LAMMPS data file via MDAnalysis

         337  atoms
           0  bonds
           0  angles
           0  dihedrals
           0  impropers

           2  atom types
           0  bond types
           0  angle types
           0  dihedral types
           0  improper types

0.000000 30.933189 xlo xhi
0.000000 21.326168 ylo yhi
0.000000 36.955410 zlo zhi
-9.141536 -20.853582 -31.629065 xy xz yz


Masses

1 1.008000
2 15.999000

Atoms

7 0 1 0.000000 22.787558 14.660723 1.293782
8 0 2 0.000000 22.679197 15.516921 0.903885
9 0 2 0.000000 22.326387 13.989106 0.773659
13 0 1 0.000000 5.210107 6.113177 1.102543
14 0 2 0.000000 5.230086 5.724934 2.012762
15 0 2 0.000000 4.467583 5.675491 0.734702
16 0 1 0.000000 11.601751 -6.662694 14.613373
17 0 2 0.000000 12.133630 -6.917192 15.373137
18 0 2 0.000000 10.709083 -6.351974 14.927499
73 0 1 0.000000 10.779818 -1.996712 14.295094
74 0 2 0.000000 11.341567 -2.030024 15.102108
75 0 2 0.000000 9.935543 -1.601347 14.481791
79 0 1 0.000000 22.549885 6.626324 0.451368
80 0 2 0.000000 22.424566 5.693095 0.713146
81 0 2 0.000000 23.432936 6.808410 0.175934
91 0 1 0.000000 11.819831 4.083759 14.787025
92 0 2 0.000000 10.955855 3.863739 15.196079
93 0 2 0.000000 12.379364 3.771140 15.512667
118 0 1 0.000000 -4.489122 -10.599677 14.244709
121 0 1 0.000000 21.603487 1.558604 1.403112
122 0 2 0.000000 20.954300 1.241859 0.757586
127 0 1 0.000000 7.167681 -3.084996 14.416332
130 0 1 0.000000 17.207211 -7.490534 14.286022
136 0 1 0.000000 -0.956632 0.933583 14.745142
137 0 2 0.000000 -1.665958 0.458486 14.261817
138 0 2 0.000000 -0.093484 0.768653 14.378416
145 0 1 0.000000 -1.451979 5.774539 1.896715
147 0 2 0.000000 -1.674716 6.077088 0.980390
160 0 1 0.000000 -4.442131 2.785931 15.775023
161 0 2 0.000000 -5.320441 3.031739 15.612811
162 0 2 0.000000 -4.440711 1.757233 15.719725
163 0 1 0.000000 23.951998 9.882728 0.585763
164 0 2 0.000000 23.363546 9.571594 1.324455
165 0 2 0.000000 24.511133 10.542918 1.007881
186 0 2 0.000000 -3.447985 3.564546 14.561666
205 0 1 0.000000 9.646315 0.374499 0.438079
206 0 2 0.000000 8.841201 0.891079 0.477919
207 0 2 0.000000 9.866989 0.024093 1.302176
213 0 2 0.000000 13.480885 5.991707 1.704942
214 0 1 0.000000 21.552629 8.866023 1.926279
215 0 2 0.000000 20.613535 9.060369 1.735665
216 0 2 0.000000 21.516842 7.997896 1.529002
217 0 1 0.000000 7.876727 15.978494 0.967628
218 0 2 0.000000 7.862413 15.325393 0.240873
219 0 2 0.000000 7.042457 15.822414 1.477374
235 0 1 0.000000 2.804307 -11.977776 16.311924
236 0 2 0.000000 2.961924 -11.748784 17.220825
237 0 2 0.000000 2.095404 -12.647584 16.422525
247 0 1 0.000000 -2.048407 11.959505 1.876968
248 0 2 0.000000 -1.112175 12.065184 2.072320
250 0 1 0.000000 12.370825 18.213226 1.835063
251 0 2 0.000000 12.844115 17.391832 1.838078
252 0 2 0.000000 11.429158 17.988100 2.056321
253 0 1 0.000000 -0.958116 -10.880774 16.327824
254 0 2 0.000000 -0.132130 -10.658743 16.706057
255 0 2 0.000000 -1.591677 -10.982083 17.054550
262 0 1 0.000000 -0.592884 -1.522405 16.017145
263 0 2 0.000000 -0.818511 -0.723526 15.577008
264 0 2 0.000000 -0.354790 -2.062998 15.277493
271 0 1 0.000000 13.986073 6.613660 0.123683
272 0 2 0.000000 13.604235 6.316271 -0.714524
273 0 2 0.000000 14.907548 6.393017 0.020707
274 0 1 0.000000 5.211864 0.757089 14.668495
275 0 2 0.000000 4.466234 1.047111 15.271242
276 0 2 0.000000 5.891987 0.567036 15.372307
286 0 1 0.000000 -12.646379 -2.098875 15.695726
287 0 2 0.000000 -12.652454 -1.263875 15.276116
288 0 2 0.000000 -12.021040 -2.011031 16.398441
292 0 1 0.000000 13.510325 -4.537189 14.463025
293 0 2 0.000000 13.818964 -4.261566 15.387185
294 0 2 0.000000 12.945744 -5.308824 14.639956
295 0 1 0.000000 -9.117572 -2.450128 15.380826
296 0 2 0.000000 -9.071128 -3.181050 16.023777
297 0 2 0.000000 -8.257390 -2.465963 14.949959
307 0 1 0.000000 25.127928 7.326102 0.261326
308 0 2 0.000000 25.849598 7.084093 -0.357775
309 0 2 0.000000 25.004942 8.254433 0.392437
316 0 1 0.000000 -3.628562 14.326197 0.824396
317 0 2 0.000000 -4.162205 13.560188 1.059016
318 0 2 0.000000 -2.752244 13.952154 0.907813
319 0 1 0.000000 10.092852 -13.395567 16.253706
320 0 2 0.000000 9.514037 -13.701177 16.971594
321 0 2 0.000000 9.809233 -12.540859 16.034721
329 0 2 0.000000 0.073189 7.080909 14.700678
334 0 1 0.000000 -4.923437 -6.349920 14.696894
336 0 2 0.000000 -4.063866 -6.638577 15.100115
349 0 1 0.000000 1.186883 16.994925 1.911721
352 0 1 0.000000 -11.548905 -6.220721 15.836382
353 0 2 0.000000 -11.341699 -6.968668 15.277508
354 0 2 0.000000 -12.156854 -5.665731 15.269484
361 0 1 0.000000 4.748142 -4.156954 15.202990
362 0 2 0.000000 4.924885 -3.348259 15.673776
363 0 2 0.000000 3.968125 -4.507727 15.558292
382 0 1 0.000000 15.586153 3.844856 2.015157
383 0 2 0.000000 16.384344 3.296660 1.858729
384 0 2 0.000000 14.880465 3.650784 1.365945
391 0 1 0.000000 14.801370 -12.659598 16.171059
392 0 2 0.000000 15.691862 -12.946158 16.355869
393 0 2 0.000000 14.409720 -12.670536 17.057076
397 0 1 0.000000 3.360588 6.220676 16.065733
398 0 2 0.000000 2.759076 6.324222 16.815178
399 0 2 0.000000 3.046474 6.905219 15.454482
412 0 1 0.000000 13.397887 -1.013816 1.610056
413 0 2 0.000000 12.904428 -1.358964 0.871859
414 0 2 0.000000 14.111127 -0.446527 1.219265
442 0 1 0.000000 9.080350 -5.481734 15.407764
443 0 2 0.000000 8.278808 -6.042906 15.200494
444 0 2 0.000000 8.767775 -4.643349 15.736300
451 0 1 0.000000 -6.321645 -2.236984 14.241123
452 0 2 0.000000 -5.810447 -2.577156 15.013032
454 0 1 0.000000 20.622042 -8.544320 14.887093
455 0 2 0.000000 19.850695 -8.954522 14.454921
456 0 2 0.000000 20.944138 -9.186004 15.555990
459 0 2 0.000000 5.794837 2.887952 1.767598
472 0 1 0.000000 6.717465 0.329411 0.445737
473 0 2 0.000000 6.784221 -0.299227 -0.295044
474 0 2 0.000000 6.105587 1.018239 0.118984
511 0 1 0.000000 7.498060 -8.262199 16.017286
512 0 2 0.000000 7.707862 -8.202167 16.987267
513 0 2 0.000000 7.531760 -9.243216 15.878830
517 0 1 0.000000 12.064213 7.298162 16.310556
518 0 2 0.000000 11.937124 6.350772 16.363407
519 0 2 0.000000 11.871716 7.698713 17.188091
526 0 1 0.000000 10.156851 1.556306 15.951770
527 0 2 0.000000 9.904236 0.666993 16.203142
528 0 2 0.000000 9.356576 1.973822 15.626540
541 0 1 0.000000 22.700794 4.042341 1.507571
543 0 2 0.000000 22.001202 3.379954 1.402068
571 0 1 0.000000 -2.974574 6.890949 14.530992
572 0 2 0.000000 -3.207779 7.767316 14.903407
598 0 1 0.000000 -15.577915 7.284921 15.845107
599 0 2 0.000000 -15.781323 6.897212 16.712906
600 0 2 0.000000 -16.391312 7.728080 15.540648
607 0 1 0.000000 2.789280 1.972073 15.344729
608 0 2 0.000000 2.592649 1.934472 16.293657
609 0 2 0.000000 2.559297 2.818928 14.995862
615 0 2 0.000000 25.313923 6.460305 2.015152
619 0 1 0.000000 19.985785 4.621122 0.130762
620 0 2 0.000000 20.684593 4.789977 -0.509006
621 0 2 0.000000 19.777189 5.399340 0.602390
622 0 1 0.000000 19.388754 7.035646 1.226286
623 0 2 0.000000 18.963430 7.726959 0.645194
624 0 2 0.000000 18.984459 7.261675 2.071590
631 0 1 0.000000 5.673290 4.248763 15.954027
632 0 2 0.000000 5.227929 4.597724 15.144096
633 0 2 0.000000 5.119600 3.528569 16.288038
634 0 1 0.000000 -0.445402 4.194784 15.669570
635 0 2 0.000000 -1.113561 4.159469 14.950892
636 0 2 0.000000 -0.722629 3.366817 16.178074
640 0 1 0.000000 16.867176 16.360155 1.584997
642 0 2 0.000000 17.123652 17.216623 1.256563
652 0 1 0.000000 14.083889 16.194145 1.305919
653 0 2 0.000000 13.951869 15.455651 1.931822
654 0 2 0.000000 15.022491 16.401211 1.394512
658 0 1 0.000000 1.317716 -7.594834 15.808664
659 0 2 0.000000 0.638110 -7.113545 15.306224
660 0 2 0.000000 1.314078 -8.454648 15.351018
685 0 1 0.000000 6.480940 10.641686 0.172516
686 0 2 0.000000 7.069187 9.962672 0.491143
687 0 2 0.000000 7.078070 11.388929 -0.017653
697 0 1 0.000000 14.148530 1.263484 14.570302
698 0 2 0.000000 13.204226 1.077588 14.443253
700 0 1 0.000000 15.433112 0.924751 1.279001
701 0 2 0.000000 15.539460 1.554955 0.572862
704 0 2 0.000000 -3.364802 -4.062771 14.745452
707 0 2 0.000000 20.452768 16.942717 1.340672
709 0 1 0.000000 11.043573 10.080256 1.738164
710 0 2 0.000000 11.051018 11.015201 1.752553
711 0 2 0.000000 11.945989 9.797335 2.030831
712 0 1 0.000000 12.986616 -9.532026 14.756389
713 0 2 0.000000 13.901752 -9.887429 14.843848
718 0 1 0.000000 2.258125 -1.889934 14.598615
724 0 1 0.000000 2.651980 -1.258497 1.857260
726 0 2 0.000000 3.632595 -1.353121 1.907597
730 0 1 0.000000 7.826994 8.576754 1.980801
732 0 2 0.000000 7.741938 7.656688 1.936339
733 0 1 0.000000 2.519345 18.819675 0.181014
734 0 2 0.000000 2.395389 18.207373 0.885608
735 0 2 0.000000 1.683910 18.980598 -0.210634
742 0 1 0.000000 3.895326 8.825993 1.633670
744 0 2 0.000000 4.453677 8.075105 1.250304
751 0 1 0.000000 8.264603 6.783244 14.440478
753 0 2 0.000000 8.271252 7.395538 15.192822
756 0 2 0.000000 11.214818 1.191082 14.550460
760 0 1 0.000000 25.504959 3.615987 1.084598
761 0 2 0.000000 25.944946 2.779778 1.321747
762 0 2 0.000000 24.557106 3.574128 1.288234
765 0 2 0.000000 -9.831786 9.542498 14.899036
766 0 1 0.000000 3.771759 8.321729 14.431670
767 0 2 0.000000 4.329353 8.599675 15.201977
768 0 2 0.000000 2.988108 8.858899 14.386980
769 0 1 0.000000 19.098873 -11.653169 16.262184
770 0 2 0.000000 19.304668 -11.365590 15.347517
771 0 2 0.000000 19.264397 -10.882299 16.809444
772 0 1 0.000000 0.580628 3.263726 0.111459
773 0 2 0.000000 1.491019 3.448285 0.335211
774 0 2 0.000000 0.133989 2.889453 0.924388
777 0 2 0.000000 -10.530803 -3.157301 14.523584
781 0 1 0.000000 -10.185390 0.051480 15.694524
782 0 2 0.000000 -9.940510 0.593739 16.499868
783 0 2 0.000000 -9.619541 -0.753811 15.747095
793 0 1 0.000000 19.019085 13.238624 1.031520
794 0 2 0.000000 18.682798 12.364039 0.840291
795 0 2 0.000000 18.901564 13.296180 1.980524
799 0 1 0.000000 1.624064 -10.026824 14.553527
800 0 2 0.000000 1.983750 -10.830501 15.011142
808 0 1 0.000000 -3.835742 19.776533 1.705853
809 0 2 0.000000 -3.290646 20.444960 1.180098
810 0 2 0.000000 -3.564333 18.855253 1.417816
812 0 2 0.000000 -14.378042 6.476186 14.705997
819 0 2 0.000000 1.022347 13.353390 1.981319
823 0 1 0.000000 -1.036460 19.207436 2.031538
825 0 2 0.000000 -1.112904 19.191532 1.054226
829 0 1 0.000000 2.363937 -5.117708 15.398433
830 0 2 0.000000 1.974044 -4.713672 16.154583
831 0 2 0.000000 2.394207 -6.090036 15.578497
832 0 1 0.000000 -10.928986 5.336845 15.421136
833 0 2 0.000000 -11.307183 4.604255 14.973101
834 0 2 0.000000 -10.017220 5.419493 15.149857
838 0 1 0.000000 -8.669807 3.079548 14.272334
840 0 2 0.000000 -8.608655 3.997454 14.412712
852 0 2 0.000000 0.488152 5.235230 1.907941
853 0 1 0.000000 -7.490092 -6.875847 15.881157
854 0 2 0.000000 -8.172660 -6.544906 15.177741
855 0 2 0.000000 -6.673164 -6.396818 15.728362
859 0 1 0.000000 8.153156 3.055630 14.817630
861 0 2 0.000000 7.248333 3.019016 15.161051
865 0 1 0.000000 8.550023 -11.180410 16.070854
866 0 2 0.000000 8.174595 -11.243459 15.171192
867 0 2 0.000000 9.236870 -10.528904 16.165377
871 0 1 0.000000 15.302443 19.771206 1.817364
872 0 2 0.000000 14.794068 20.562143 1.974978
873 0 2 0.000000 14.841553 19.399855 1.063784
877 0 1 0.000000 17.689835 -4.432862 14.557881
878 0 2 0.000000 17.509346 -3.564013 14.932712
881 0 2 0.000000 11.204676 8.180772 14.944112
904 0 1 0.000000 4.630457 2.020649 0.279694
905 0 2 0.000000 4.675671 2.542790 -0.561267
906 0 2 0.000000 3.996367 1.271768 0.088343
907 0 1 0.000000 3.876918 11.176600 0.289706
908 0 2 0.000000 3.655481 10.381715 0.782792
909 0 2 0.000000 4.855972 11.072456 0.202254
910 0 1 0.000000 15.867004 -10.109822 14.837914
911 0 2 0.000000 16.081900 -10.223454 15.815800
912 0 2 0.000000 16.064758 -9.182291 14.602341
928 0 1 0.000000 1.996635 4.488695 14.623798
929 0 2 0.000000 1.099913 4.429231 15.017189
930 0 2 0.000000 2.563801 5.090793 15.153801
937 0 1 0.000000 -2.511537 -7.529840 15.159343
938 0 2 0.000000 -2.755114 -7.906437 16.001806
939 0 2 0.000000 -1.822529 -6.901128 15.391814
955 0 1 0.000000 5.583616 -11.849625 15.242352
956 0 2 0.000000 5.737540 -11.164269 14.543388
957 0 2 0.000000 4.624294 -11.786512 15.316246
962 0 2 0.000000 9.814309 -8.741945 14.408332
985 0 1 0.000000 26.365137 0.327406 0.754754
986 0 2 0.000000 25.881680 -0.467029 1.105472
987 0 2 0.000000 27.124996 0.596479 1.335951
988 0 1 0.000000 -6.799810 1.113068 14.758695
989 0 2 0.000000 -6.955729 0.642319 15.597461
990 0 2 0.000000 -7.459641 1.784489 14.595352
1027 0 1 0.000000 5.243352 17.732550 2.072819
1028 0 2 0.000000 5.126675 17.610622 1.155899
1033 0 1 0.000000 17.484108 -0.956756 1.555138
1034 0 2 0.000000 17.505169 -1.818889 1.021572
1035 0 2 0.000000 16.574968 -0.719132 1.472952
1044 0 2 0.000000 13.141709 9.494659 14.535542
1067 0 2 0.000000 -1.814633 -9.039599 14.421406
1069 0 1 0.000000 15.173327 -1.302903 15.666209
1070 0 2 0.000000 15.733420 -1.563441 16.430141
1071 0 2 0.000000 14.989704 -0.364635 15.580884
1084 0 1 0.000000 -6.210356 -9.301804 16.049631
1085 0 2 0.000000 -5.561011 -9.582623 15.385535
1086 0 2 0.000000 -6.768958 -8.608608 15.627913
1106 0 2 0.000000 10.368258 6.029150 1.334593
1114 0 1 0.000000 12.575948 -1.653201 16.252184
1115 0 2 0.000000 13.522672 -1.772941 16.034735
1116 0 2 0.000000 12.419024 -1.948001 17.146097
1126 0 1 0.000000 -0.227387 9.088869 0.820480
1127 0 2 0.000000 -1.076567 8.604541 0.595526
1128 0 2 0.000000 0.515821 8.461736 0.655120
1129 0 1 0.000000 18.408388 18.845030 0.410773
1130 0 2 0.000000 18.732859 19.718216 0.741743
1131 0 2 0.000000 17.842764 19.062210 -0.382100
1132 0 1 0.000000 -5.270596 11.834537 1.617923
1133 0 2 0.000000 -4.589336 11.130703 1.565371
1144 0 1 0.000000 23.094105 17.199202 0.074773
1145 0 2 0.000000 23.382896 16.541687 -0.611523
1146 0 2 0.000000 23.767143 17.874096 -0.106213
1147 0 1 0.000000 2.367390 13.849365 0.801112
1148 0 2 0.000000 3.010403 14.398882 1.282400
1149 0 2 0.000000 2.887532 12.992529 0.740646
1168 0 1 0.000000 -0.699849 -5.657562 15.282930
1169 0 2 0.000000 -0.529680 -5.289388 16.127476
1170 0 2 0.000000 -0.310018 -4.928505 14.821964
1174 0 1 0.000000 -3.828523 0.127748 16.328852
1175 0 2 0.000000 -3.622508 -0.396609 15.523396
1176 0 2 0.000000 -3.513297 -0.492937 17.000160
1180 0 1 0.000000 -1.119243 15.827662 1.222184
1181 0 2 0.000000 -0.434249 16.400080 1.551877
1182 0 2 0.000000 -1.513573 15.518965 2.033442
1189 0 1 0.000000 -13.354501 1.207162 14.492429
1190 0 2 0.000000 -13.057033 1.161441 15.406155
1191 0 2 0.000000 -13.921921 2.019009 14.533257
1201 0 1 0.000000 8.373054 -0.621242 14.302442
1204 0 1 0.000000 -3.562056 17.092760 1.118914
1205 0 2 0.000000 -2.628607 16.847591 0.932334
1206 0 2 0.000000 -4.038050 16.317963 1.443247
1218 0 2 0.000000 20.017126 3.789977 1.982769
1231 0 1 0.000000 17.611618 10.875217 0.350071
1232 0 2 0.000000 16.922318 11.164697 -0.245964
1233 0 2 0.000000 17.028011 10.485691 0.965411
1240 0 1 0.000000 11.812335 12.641004 0.863227
1241 0 2 0.000000 11.608628 13.572262 1.102815
1242 0 2 0.000000 11.751503 12.520613 -0.090931
1246 0 1 0.000000 6.606924 -5.889512 14.344344
1247 0 2 0.000000 5.860966 -5.363434 14.652388
1252 0 1 0.000000 14.518379 11.876938 1.004046
1253 0 2 0.000000 15.083262 12.621876 0.736252
1254 0 2 0.000000 13.667320 12.295130 1.208637
1255 0 1 0.000000 16.180395 13.969598 0.150499
1256 0 2 0.000000 16.472391 14.676472 0.707661
1257 0 2 0.000000 16.905422 13.780083 -0.482119
1261 0 1 0.000000 -3.597781 9.809573 1.850036
1262 0 2 0.000000 -2.699115 10.199465 1.987272
1267 0 1 0.000000 15.746077 9.102396 1.276492
1268 0 2 0.000000 15.828347 8.217046 1.702278
1269 0 2 0.000000 15.104787 9.162012 0.616705
1271 0 2 0.000000 3.576623 2.735677 1.900722
1273 0 1 0.000000 -8.358410 5.830970 14.476591
1275 0 2 0.000000 -8.344422 6.676781 14.957317
1276 0 1 0.000000 10.760083 15.379537 1.302200
1277 0 2 0.000000 9.785314 15.661476 1.348691
1282 0 1 0.000000 -14.424848 3.758019 15.452257
1283 0 2 0.000000 -13.735278 3.706043 16.195179
1284 0 2 0.000000 -14.102511 4.529648 14.915447
1295 0 2 0.000000 9.154536 12.838748 1.705757
