LAMMPS data file via MDAnalysis

         959  atoms
           0  bonds
           0  angles
           0  dihedrals
           0  impropers

           2  atom types
           0  bond types
           0  angle types
           0  dihedral types
           0  improper types

0.000000 30.933189 xlo xhi
0.000000 21.326168 ylo yhi
0.000000 36.955410 zlo zhi
-9.141536 -20.853582 -31.629065 xy xz yz


Masses

1 1.008000
2 15.999000

Atoms

1 0 1 0.000000 12.292950 3.110259 12.132031
2 0 2 0.000000 13.050452 3.502198 11.644022
3 0 2 0.000000 12.218374 3.453169 13.030740
4 0 1 0.000000 0.421540 14.600750 4.762516
5 0 2 0.000000 -0.400138 15.073063 4.563237
6 0 2 0.000000 1.052521 15.344172 4.839481
10 0 1 0.000000 -10.949551 13.067351 9.594964
11 0 2 0.000000 -11.849236 12.961959 10.001769
12 0 2 0.000000 -11.178931 13.601507 8.781057
19 0 1 0.000000 21.477886 11.570536 2.645275
20 0 2 0.000000 21.917669 10.791189 3.067660
21 0 2 0.000000 21.712305 12.383266 3.151739
22 0 1 0.000000 14.607571 14.139802 3.020855
23 0 2 0.000000 14.980619 14.704060 3.706080
24 0 2 0.000000 14.605961 13.217718 3.357332
25 0 1 0.000000 -3.272395 4.451720 3.297959
26 0 2 0.000000 -2.551667 4.793378 2.800642
27 0 2 0.000000 -3.086043 4.699837 4.234746
28 0 1 0.000000 0.354521 -3.148531 5.929212
29 0 2 0.000000 -0.384788 -2.524883 5.947342
30 0 2 0.000000 -0.060945 -4.011151 5.828742
31 0 1 0.000000 9.539595 5.346822 8.402802
32 0 2 0.000000 8.881749 5.867533 7.965109
33 0 2 0.000000 9.117887 4.970363 9.163203
34 0 1 0.000000 5.690962 2.194740 4.946697
35 0 2 0.000000 5.307465 1.559704 4.285910
36 0 2 0.000000 6.518479 2.474812 4.634478
37 0 1 0.000000 3.355670 2.834859 8.882359
38 0 2 0.000000 4.222672 3.051960 9.252631
39 0 2 0.000000 2.720047 3.499561 9.249955
40 0 1 0.000000 15.019427 -4.262899 6.595269
41 0 2 0.000000 15.190265 -4.251103 5.587211
42 0 2 0.000000 14.084249 -4.633022 6.651037
43 0 1 0.000000 8.847742 1.782382 7.164694
44 0 2 0.000000 9.467629 2.211063 7.791263
45 0 2 0.000000 8.756409 2.359481 6.370121
46 0 1 0.000000 23.731817 -2.981263 4.328160
47 0 2 0.000000 23.835962 -2.510397 3.493159
48 0 2 0.000000 22.812155 -2.965556 4.590309
49 0 1 0.000000 3.859137 12.701907 6.128421
50 0 2 0.000000 3.449100 12.435605 5.292119
51 0 2 0.000000 3.053767 13.099342 6.551620
52 0 1 0.000000 23.243204 1.018735 7.503929
53 0 2 0.000000 23.541922 0.738234 8.374146
54 0 2 0.000000 23.002806 1.977056 7.638444
55 0 1 0.000000 14.318876 6.312905 8.746429
56 0 2 0.000000 14.322451 5.593631 8.100748
57 0 2 0.000000 15.088981 6.847142 8.545291
58 0 1 0.000000 -4.242560 -4.583025 7.865947
59 0 2 0.000000 -5.192007 -4.776081 7.874379
60 0 2 0.000000 -4.063198 -3.889997 7.213663
61 0 1 0.000000 -5.112698 1.709404 8.894589
62 0 2 0.000000 -5.253633 2.700970 9.007204
63 0 2 0.000000 -5.625711 1.170417 9.543214
64 0 1 0.000000 -11.525770 8.443921 10.652719
65 0 2 0.000000 -12.124045 9.216273 10.471277
66 0 2 0.000000 -10.593749 8.754710 10.528510
67 0 1 0.000000 3.499556 15.673509 2.642900
68 0 2 0.000000 3.970155 15.234275 3.388152
69 0 2 0.000000 4.062037 16.403822 2.332944
70 0 1 0.000000 -5.293025 7.039834 7.145689
71 0 2 0.000000 -6.119800 7.119502 6.675295
72 0 2 0.000000 -4.848145 7.861624 6.857553
76 0 1 0.000000 -3.344162 -3.087844 5.842137
77 0 2 0.000000 -2.736188 -2.605494 6.460829
78 0 2 0.000000 -3.785460 -2.510830 5.226218
82 0 1 0.000000 14.214792 0.340949 10.730287
83 0 2 0.000000 13.796565 0.791454 9.976746
84 0 2 0.000000 13.547528 0.129010 11.350394
85 0 1 0.000000 -8.042738 13.628888 7.286809
86 0 2 0.000000 -7.144149 13.703659 7.060078
87 0 2 0.000000 -8.012111 13.670087 8.245707
88 0 1 0.000000 10.147616 11.513768 10.315340
89 0 2 0.000000 10.418344 11.095287 11.171074
90 0 2 0.000000 10.174397 10.679899 9.744477
94 0 1 0.000000 12.811675 -7.706437 9.228538
95 0 2 0.000000 13.727445 -7.907528 8.941869
96 0 2 0.000000 12.994668 -8.023446 10.118593
97 0 1 0.000000 24.460850 -1.925756 6.748936
98 0 2 0.000000 24.550161 -2.005936 5.787101
99 0 2 0.000000 25.320997 -1.561579 7.105912
100 0 1 0.000000 -9.189314 -5.925675 13.722412
101 0 2 0.000000 -9.655143 -5.110450 13.881007
102 0 2 0.000000 -8.546161 -5.696569 12.965544
103 0 1 0.000000 -9.333502 5.634814 11.823583
104 0 2 0.000000 -9.064785 6.381661 11.307773
105 0 2 0.000000 -10.281066 5.725710 12.162510
106 0 1 0.000000 -0.286007 10.096320 3.327675
107 0 2 0.000000 -0.131516 9.732822 2.442010
108 0 2 0.000000 0.548612 10.165131 3.755825
109 0 1 0.000000 -5.909428 3.722355 6.293121
110 0 2 0.000000 -5.562601 2.813293 6.216473
111 0 2 0.000000 -5.094150 4.274847 6.260046
112 0 1 0.000000 10.182742 -4.427746 12.619172
113 0 2 0.000000 10.427074 -3.894566 13.399057
114 0 2 0.000000 11.002374 -4.751818 12.234037
115 0 1 0.000000 14.441596 -1.870620 7.876009
116 0 2 0.000000 14.747025 -2.543927 7.220853
117 0 2 0.000000 15.060117 -2.098330 8.612391
119 0 2 0.000000 -3.581831 -10.436417 14.001785
120 0 2 0.000000 -4.960717 -11.014815 13.480541
123 0 2 0.000000 21.611486 0.951871 2.141153
124 0 1 0.000000 1.744486 9.692318 13.161911
125 0 2 0.000000 1.275797 10.584726 13.049446
126 0 2 0.000000 1.335955 9.175431 12.448956
128 0 2 0.000000 7.235033 -3.958344 13.981216
129 0 2 0.000000 6.392943 -2.626897 14.066010
131 0 2 0.000000 18.023504 -7.329495 13.739920
132 0 2 0.000000 16.491188 -7.036903 13.794988
133 0 1 0.000000 16.414806 -6.049289 8.062102
134 0 2 0.000000 15.801377 -6.801864 8.173841
135 0 2 0.000000 15.992573 -5.527983 7.402483
139 0 1 0.000000 4.778893 -3.600712 8.114882
140 0 2 0.000000 4.501459 -4.206316 8.794962
141 0 2 0.000000 5.248491 -2.939337 8.589813
142 0 1 0.000000 -1.866830 -2.604316 8.082102
143 0 2 0.000000 -1.809663 -3.383527 8.638044
144 0 2 0.000000 -1.072202 -2.030676 8.058906
146 0 2 0.000000 -1.344279 6.536896 2.533923
148 0 1 0.000000 -5.816996 7.277498 9.879638
149 0 2 0.000000 -5.650490 7.371984 8.946699
150 0 2 0.000000 -6.730732 7.565294 9.982490
151 0 1 0.000000 3.335810 2.871221 6.213542
152 0 2 0.000000 4.202852 2.717615 5.810765
153 0 2 0.000000 3.482355 3.025378 7.148644
154 0 1 0.000000 8.270809 0.581431 3.147065
155 0 2 0.000000 7.647255 1.251015 2.803313
156 0 2 0.000000 7.896426 0.335971 4.007041
157 0 1 0.000000 4.374749 6.737263 12.234884
158 0 2 0.000000 4.135967 7.210888 13.051371
159 0 2 0.000000 3.695457 6.016000 12.116889
166 0 1 0.000000 1.067377 1.765007 11.166657
167 0 2 0.000000 0.167728 1.840944 11.481904
168 0 2 0.000000 1.141701 1.273367 10.398726
169 0 1 0.000000 4.588931 -0.085123 3.829268
170 0 2 0.000000 4.947120 -0.816292 3.256586
171 0 2 0.000000 4.073165 -0.598165 4.483308
172 0 1 0.000000 14.891000 -9.100820 11.493935
173 0 2 0.000000 14.328068 -9.895075 11.649711
174 0 2 0.000000 14.287368 -8.428112 11.848853
175 0 1 0.000000 17.028234 11.030490 7.229898
176 0 2 0.000000 17.737236 11.603708 6.813584
177 0 2 0.000000 16.589447 10.491176 6.549434
178 0 1 0.000000 15.579689 13.578799 6.649271
179 0 2 0.000000 15.890672 12.662186 6.800811
180 0 2 0.000000 14.645321 13.603928 6.844429
181 0 1 0.000000 -11.508034 7.340578 13.111717
182 0 2 0.000000 -12.385673 7.033031 13.400773
183 0 2 0.000000 -11.650567 7.882061 12.341586
184 0 1 0.000000 -2.792497 3.994430 13.927052
185 0 2 0.000000 -3.027691 4.906896 14.001467
187 0 1 0.000000 8.996233 -6.901351 12.282494
188 0 2 0.000000 9.376917 -6.129427 12.732312
189 0 2 0.000000 9.267285 -6.788752 11.344269
190 0 1 0.000000 15.975379 -1.296888 13.056258
191 0 2 0.000000 15.889310 -1.542620 13.996381
192 0 2 0.000000 16.158484 -0.361788 13.089290
193 0 1 0.000000 28.762239 -0.931950 2.796120
194 0 2 0.000000 28.120941 -0.885681 3.522289
195 0 2 0.000000 28.839350 -1.893252 2.749080
196 0 1 0.000000 0.279187 8.296708 7.771677
197 0 2 0.000000 0.295885 9.245868 8.017286
198 0 2 0.000000 1.271172 8.025801 7.982635
199 0 1 0.000000 3.307206 -5.726845 9.332329
200 0 2 0.000000 3.722331 -6.479190 8.858812
201 0 2 0.000000 3.551074 -5.800995 10.274465
202 0 1 0.000000 6.107929 5.178632 13.210289
203 0 2 0.000000 6.708321 5.574882 13.903707
204 0 2 0.000000 5.624582 5.977077 12.767796
208 0 1 0.000000 11.700914 3.991400 6.092916
209 0 2 0.000000 12.627532 4.248372 6.256867
210 0 2 0.000000 11.084358 4.678416 5.725088
211 0 1 0.000000 13.201057 5.746327 2.614065
212 0 2 0.000000 12.265429 6.054612 2.602105
220 0 1 0.000000 16.401167 11.523762 3.051403
221 0 2 0.000000 16.927872 12.336207 2.989531
222 0 2 0.000000 15.595855 11.661617 2.478248
223 0 1 0.000000 12.482087 10.607139 7.172488
224 0 2 0.000000 12.364381 11.535257 7.241344
225 0 2 0.000000 13.080848 10.345694 7.972363
226 0 1 0.000000 10.662807 6.976099 11.825978
227 0 2 0.000000 9.864718 7.515348 11.660947
228 0 2 0.000000 10.495828 6.077096 11.611740
229 0 1 0.000000 6.312503 2.274038 8.085343
230 0 2 0.000000 7.029197 2.380031 7.428223
231 0 2 0.000000 5.901172 3.128058 8.283403
232 0 1 0.000000 -7.658669 3.576006 10.812884
233 0 2 0.000000 -8.247936 4.136294 11.412561
234 0 2 0.000000 -8.168378 2.755989 10.760887
238 0 1 0.000000 19.303591 12.172488 5.967612
239 0 2 0.000000 20.131535 11.952361 6.417639
240 0 2 0.000000 19.158649 11.412404 5.392411
241 0 1 0.000000 18.242640 -3.867058 7.798086
242 0 2 0.000000 18.791430 -3.415846 8.434641
243 0 2 0.000000 17.789635 -4.601721 8.230975
244 0 1 0.000000 23.451513 -0.060801 4.891285
245 0 2 0.000000 23.847418 0.653926 4.397609
246 0 2 0.000000 23.699549 -0.002644 5.843289
249 0 2 0.000000 -2.435499 12.231994 2.717736
256 0 1 0.000000 10.008397 -2.562287 4.103973
257 0 2 0.000000 9.646901 -2.017428 3.461124
258 0 2 0.000000 10.859529 -2.286644 4.494682
259 0 1 0.000000 21.411175 2.069614 4.941125
260 0 2 0.000000 21.839102 1.210119 5.179469
261 0 2 0.000000 20.939688 2.390569 5.724888
265 0 1 0.000000 -11.430335 3.338448 13.683379
266 0 2 0.000000 -12.038428 2.608992 13.886290
267 0 2 0.000000 -11.713639 3.731022 12.837551
268 0 1 0.000000 25.556492 -8.028763 9.452421
269 0 2 0.000000 25.900322 -7.251914 9.934381
270 0 2 0.000000 24.989838 -7.668093 8.724239
277 0 1 0.000000 8.477347 7.743820 6.684092
278 0 2 0.000000 9.004685 8.506189 7.018041
279 0 2 0.000000 8.068500 7.945385 5.827094
280 0 1 0.000000 4.058486 10.044769 11.811359
281 0 2 0.000000 4.707247 9.507662 12.298427
282 0 2 0.000000 3.290159 10.045579 12.395796
283 0 1 0.000000 2.692951 4.032283 12.061759
284 0 2 0.000000 2.222125 4.252663 12.876554
285 0 2 0.000000 2.159141 3.342383 11.651578
289 0 1 0.000000 -7.886335 -9.174871 13.279114
290 0 2 0.000000 -7.918067 -10.056052 13.699511
291 0 2 0.000000 -8.581080 -8.671184 13.752316
298 0 1 0.000000 21.251413 -7.969138 9.668688
299 0 2 0.000000 22.053074 -8.337515 10.001276
300 0 2 0.000000 20.541725 -8.580260 10.007190
301 0 1 0.000000 18.424269 -2.220280 11.992112
302 0 2 0.000000 19.129530 -1.628973 12.283794
303 0 2 0.000000 17.624762 -1.974929 12.478463
304 0 1 0.000000 -2.031084 -0.163650 10.866188
305 0 2 0.000000 -2.829508 -0.661458 11.058729
306 0 2 0.000000 -2.217437 0.128382 9.980047
310 0 1 0.000000 18.964838 10.420085 3.549461
311 0 2 0.000000 19.764349 10.930317 3.169622
312 0 2 0.000000 18.136147 10.655360 3.015638
313 0 1 0.000000 -5.308321 11.004569 8.198149
314 0 2 0.000000 -6.136634 10.456531 8.203268
315 0 2 0.000000 -4.590183 10.357168 8.282473
322 0 1 0.000000 3.674371 10.021517 7.065025
323 0 2 0.000000 4.550685 9.640639 7.194547
324 0 2 0.000000 3.700582 10.886172 6.598512
325 0 1 0.000000 15.184690 -4.797247 10.444358
326 0 2 0.000000 15.314400 -3.818857 10.400918
327 0 2 0.000000 15.702303 -5.203212 9.746473
328 0 1 0.000000 -0.491578 6.793799 13.960276
330 0 2 0.000000 -0.087451 6.403233 13.137323
331 0 1 0.000000 9.009120 -3.502813 6.455066
332 0 2 0.000000 8.159774 -3.967948 6.395582
333 0 2 0.000000 9.106257 -3.001890 5.651828
335 0 2 0.000000 -4.689904 -5.583529 14.142054
337 0 1 0.000000 -8.648078 1.034798 10.177646
338 0 2 0.000000 -8.663407 0.539894 11.006285
339 0 2 0.000000 -9.538038 1.279208 9.932858
340 0 1 0.000000 5.081733 14.482542 4.316419
341 0 2 0.000000 4.838982 13.992707 5.167588
342 0 2 0.000000 6.021022 14.726869 4.443263
343 0 1 0.000000 4.348649 7.540777 5.747804
344 0 2 0.000000 3.739599 6.860138 5.467654
345 0 2 0.000000 3.765112 8.325026 5.786077
346 0 1 0.000000 21.227417 -2.625119 5.422496
347 0 2 0.000000 20.331276 -2.780243 5.155580
348 0 2 0.000000 21.204233 -1.812746 5.938710
350 0 2 0.000000 1.285480 17.535662 2.732483
351 0 2 0.000000 1.690679 16.181911 2.109959
355 0 1 0.000000 -13.355870 10.601306 10.261996
356 0 2 0.000000 -13.103304 11.270190 10.959910
357 0 2 0.000000 -13.623605 11.051981 9.479962
358 0 1 0.000000 14.123371 1.383584 4.020960
359 0 2 0.000000 13.321809 1.181831 4.592265
360 0 2 0.000000 14.676188 1.950386 4.602578
364 0 1 0.000000 14.239161 4.138460 7.156270
365 0 2 0.000000 14.975098 3.841614 6.593991
366 0 2 0.000000 14.160056 3.520298 7.940156
367 0 1 0.000000 16.707666 7.044733 10.973767
368 0 2 0.000000 16.425486 7.816125 11.486867
369 0 2 0.000000 15.929876 6.491506 10.697479
370 0 1 0.000000 -5.189236 5.757390 13.463635
371 0 2 0.000000 -4.449295 6.005019 14.077515
372 0 2 0.000000 -5.865154 6.403129 13.581450
373 0 1 0.000000 20.630482 -2.731085 9.047957
374 0 2 0.000000 20.745657 -2.705720 10.027339
375 0 2 0.000000 20.461639 -1.823999 8.752384
376 0 1 0.000000 1.461200 0.563141 13.585833
377 0 2 0.000000 1.968490 1.148176 14.161972
378 0 2 0.000000 1.474047 0.933600 12.719560
379 0 1 0.000000 6.398356 -5.271313 6.612879
380 0 2 0.000000 6.782355 -5.685991 7.423912
381 0 2 0.000000 5.937556 -4.522181 6.931602
385 0 1 0.000000 1.367468 4.690062 9.316402
386 0 2 0.000000 1.657554 5.458749 8.789993
387 0 2 0.000000 0.896814 4.219032 8.667473
388 0 1 0.000000 -1.475880 2.554761 11.810230
389 0 2 0.000000 -1.675544 2.715545 12.789486
390 0 2 0.000000 -1.846018 1.704593 11.510429
394 0 1 0.000000 10.246794 15.835119 5.602123
395 0 2 0.000000 10.262258 16.405386 6.379689
396 0 2 0.000000 9.904717 15.054550 6.063997
400 0 1 0.000000 19.384285 -7.006716 12.569459
401 0 2 0.000000 20.275702 -7.038639 12.919917
402 0 2 0.000000 19.282812 -6.173194 12.162319
403 0 1 0.000000 -5.872919 16.202751 3.209976
404 0 2 0.000000 -6.040601 15.591108 2.465485
405 0 2 0.000000 -5.824028 15.675267 4.000699
406 0 1 0.000000 0.823353 -4.651065 8.492848
407 0 2 0.000000 1.618333 -4.993039 8.887190
408 0 2 0.000000 1.007043 -3.712074 8.244218
409 0 1 0.000000 -7.532352 9.641755 8.618427
410 0 2 0.000000 -7.826047 9.088821 7.848037
411 0 2 0.000000 -8.339452 10.040277 8.906283
415 0 1 0.000000 4.382554 0.192651 7.041866
416 0 2 0.000000 4.954225 -0.381095 7.566548
417 0 2 0.000000 4.920635 1.001510 6.922735
418 0 1 0.000000 15.649136 0.582875 7.320672
419 0 2 0.000000 15.241606 -0.314141 7.437700
420 0 2 0.000000 15.041376 1.125469 7.830166
421 0 1 0.000000 18.319811 4.610346 11.395739
422 0 2 0.000000 18.170246 5.550872 11.329576
423 0 2 0.000000 17.905918 4.090187 10.682866
424 0 1 0.000000 -3.407696 4.998061 6.157449
425 0 2 0.000000 -3.699145 5.801808 6.664701
426 0 2 0.000000 -3.004903 4.462399 6.857146
427 0 1 0.000000 3.916916 -2.657259 5.426831
428 0 2 0.000000 3.280442 -3.372546 5.741044
429 0 2 0.000000 4.524626 -2.392300 6.103566
430 0 1 0.000000 4.961184 -1.623734 13.558526
431 0 2 0.000000 4.855424 -0.725940 14.015094
432 0 2 0.000000 5.245681 -1.428937 12.658484
433 0 1 0.000000 19.156609 6.723228 8.627373
434 0 2 0.000000 20.041338 6.536346 8.319196
435 0 2 0.000000 19.168917 7.275524 9.412518
436 0 1 0.000000 6.599568 10.790288 5.845436
437 0 2 0.000000 6.038957 10.828320 5.087495
438 0 2 0.000000 6.381745 9.968876 6.230256
439 0 1 0.000000 -9.972061 10.539803 9.447474
440 0 2 0.000000 -10.489239 10.036541 8.770945
441 0 2 0.000000 -10.199096 11.448324 9.357471
445 0 1 0.000000 7.035359 -0.460553 5.485266
446 0 2 0.000000 6.153358 -0.157348 5.141345
447 0 2 0.000000 7.063679 -1.380352 5.250605
448 0 1 0.000000 12.659564 3.125632 2.251190
449 0 2 0.000000 13.014234 3.974042 2.610507
450 0 2 0.000000 13.086799 2.494416 2.886529
453 0 2 0.000000 -5.824475 -2.490286 13.453923
457 0 1 0.000000 6.669695 2.913474 2.233794
458 0 2 0.000000 6.755866 3.760047 2.656656
460 0 1 0.000000 1.746528 0.400040 8.725333
461 0 2 0.000000 2.387530 1.083241 8.375841
462 0 2 0.000000 2.194820 -0.480985 8.583596
463 0 1 0.000000 -4.527426 -1.264131 8.292812
464 0 2 0.000000 -3.920133 -2.006823 8.597054
465 0 2 0.000000 -4.921310 -0.955166 9.181190
466 0 1 0.000000 5.832813 -1.289910 8.810561
467 0 2 0.000000 5.863105 -1.172968 9.779607
468 0 2 0.000000 6.757473 -1.360063 8.542627
469 0 1 0.000000 12.808420 -5.008274 8.126288
470 0 2 0.000000 12.776889 -5.796993 8.699567
471 0 2 0.000000 13.058268 -4.260723 8.719401
475 0 1 0.000000 -0.540548 11.293468 7.689086
476 0 2 0.000000 -0.946479 11.608281 8.490692
477 0 2 0.000000 0.270746 11.800463 7.581004
478 0 1 0.000000 24.044016 -4.865338 8.834644
479 0 2 0.000000 24.038021 -3.926243 9.100688
480 0 2 0.000000 23.272057 -4.893515 8.249144
481 0 1 0.000000 12.084123 15.327678 3.751325
482 0 2 0.000000 11.494869 15.283146 4.530212
483 0 2 0.000000 12.769125 14.648700 3.827955
484 0 1 0.000000 -1.438497 12.021882 10.156930
485 0 2 0.000000 -0.472328 11.955596 10.325135
486 0 2 0.000000 -1.756314 11.151714 10.450179
487 0 1 0.000000 7.252606 -10.275330 13.577281
488 0 2 0.000000 8.147312 -9.804579 13.485860
489 0 2 0.000000 7.212484 -10.848975 12.783740
490 0 1 0.000000 18.503143 16.223616 3.937300
491 0 2 0.000000 19.221519 16.673246 3.430672
492 0 2 0.000000 18.273857 16.802277 4.655212
493 0 1 0.000000 0.755388 -10.054085 11.855875
494 0 2 0.000000 1.146086 -9.365559 11.290521
495 0 2 0.000000 0.010465 -10.389912 11.351899
496 0 1 0.000000 15.950045 1.860863 12.199289
497 0 2 0.000000 16.014814 2.718087 11.758450
498 0 2 0.000000 15.149273 1.499929 11.740412
499 0 1 0.000000 14.064557 7.371685 4.586401
500 0 2 0.000000 13.744390 6.659757 4.027202
501 0 2 0.000000 13.374662 7.547408 5.270335
502 0 1 0.000000 -5.949786 12.801256 4.452894
503 0 2 0.000000 -6.165614 11.878199 4.755314
504 0 2 0.000000 -6.807578 13.267940 4.377448
505 0 1 0.000000 2.403027 -1.849701 11.365624
506 0 2 0.000000 2.813374 -0.968226 11.482821
507 0 2 0.000000 1.469185 -1.800603 11.586679
508 0 1 0.000000 19.472422 2.589281 7.075903
509 0 2 0.000000 18.858986 3.326563 6.916710
510 0 2 0.000000 19.765720 2.800640 7.964685
514 0 1 0.000000 9.765814 3.055741 2.511179
515 0 2 0.000000 9.877793 2.059289 2.599551
516 0 2 0.000000 10.694532 3.328579 2.355160
520 0 1 0.000000 18.217712 13.565211 3.667894
521 0 2 0.000000 18.654964 13.315429 4.514985
522 0 2 0.000000 18.257708 14.560012 3.709225
523 0 1 0.000000 -8.226503 -0.450733 12.590081
524 0 2 0.000000 -7.753154 -0.088618 13.364505
525 0 2 0.000000 -8.212541 -1.371134 12.617391
529 0 1 0.000000 2.350226 -2.282990 8.765855
530 0 2 0.000000 3.221502 -2.574363 8.463932
531 0 2 0.000000 2.412791 -2.150611 9.733582
532 0 1 0.000000 8.408508 -1.080072 7.927935
533 0 2 0.000000 8.133660 -0.420873 7.189785
534 0 2 0.000000 8.557437 -1.936765 7.368240
535 0 1 0.000000 12.757561 13.812985 7.077475
536 0 2 0.000000 12.594142 13.684838 7.996369
537 0 2 0.000000 12.522400 14.757082 6.993122
538 0 1 0.000000 8.139247 -3.324135 11.085681
539 0 2 0.000000 8.751325 -3.492255 10.341605
540 0 2 0.000000 8.671609 -3.589534 11.845569
542 0 2 0.000000 22.855288 4.135118 2.450313
544 0 1 0.000000 2.573696 7.373272 3.265406
545 0 2 0.000000 1.940737 6.691972 2.881224
546 0 2 0.000000 2.081429 7.787688 4.032684
547 0 1 0.000000 10.966782 -0.088308 2.726858
548 0 2 0.000000 11.894361 -0.331565 2.489362
549 0 2 0.000000 10.983301 0.387011 3.562146
550 0 1 0.000000 -7.012123 -5.765612 11.605184
551 0 2 0.000000 -7.151103 -5.632341 10.630169
552 0 2 0.000000 -6.397914 -6.504426 11.808939
553 0 1 0.000000 -3.976468 8.149873 4.075043
554 0 2 0.000000 -4.316257 7.323838 3.630551
555 0 2 0.000000 -3.011201 8.071902 4.142725
556 0 1 0.000000 2.078057 0.359180 5.772381
557 0 2 0.000000 2.728212 1.119120 5.995597
558 0 2 0.000000 2.661408 -0.368644 6.111916
559 0 1 0.000000 -0.066304 -3.397225 13.916348
560 0 2 0.000000 -0.268060 -3.149202 12.999220
561 0 2 0.000000 0.900238 -3.205386 14.114878
562 0 1 0.000000 -0.697439 -0.632135 6.237111
563 0 2 0.000000 -1.099282 -0.113419 7.002434
564 0 2 0.000000 0.187987 -0.154632 6.141330
565 0 1 0.000000 -2.412891 1.083832 4.891885
566 0 2 0.000000 -1.862382 1.861110 4.943749
567 0 2 0.000000 -1.791611 0.321467 5.053792
568 0 1 0.000000 -5.691821 -7.770892 12.762256
569 0 2 0.000000 -6.309530 -8.458873 13.054626
570 0 2 0.000000 -5.352440 -7.404431 13.646119
573 0 2 0.000000 -2.095211 7.083240 14.182264
574 0 1 0.000000 -7.523922 -2.136270 9.171692
575 0 2 0.000000 -7.479668 -2.072629 8.206985
576 0 2 0.000000 -8.488579 -2.171217 9.374227
577 0 1 0.000000 18.202686 -4.798733 11.016616
578 0 2 0.000000 18.098139 -3.966588 11.444109
579 0 2 0.000000 17.484192 -5.381053 11.160583
580 0 1 0.000000 7.324210 17.483526 4.074093
581 0 2 0.000000 6.616656 17.790344 3.420182
582 0 2 0.000000 7.559796 18.207678 4.699319
583 0 1 0.000000 -3.053282 -1.017788 13.812428
584 0 2 0.000000 -3.070461 -1.983674 13.606006
585 0 2 0.000000 -3.661550 -0.607917 13.196730
586 0 1 0.000000 15.517186 -5.719335 13.095965
587 0 2 0.000000 15.424084 -5.456132 12.169905
588 0 2 0.000000 14.701145 -5.657669 13.540265
589 0 1 0.000000 6.907086 -6.308700 8.972873
590 0 2 0.000000 6.575689 -7.191858 9.107734
591 0 2 0.000000 6.664299 -5.697520 9.699601
592 0 1 0.000000 5.184164 2.232024 12.153786
593 0 2 0.000000 5.351974 1.997743 13.095063
594 0 2 0.000000 4.425517 2.926303 12.138353
595 0 1 0.000000 -9.297067 -2.952411 11.574832
596 0 2 0.000000 -9.260587 -3.879359 11.301903
597 0 2 0.000000 -9.967499 -2.966012 12.303538
601 0 1 0.000000 6.101115 12.942901 8.142748
602 0 2 0.000000 5.880466 12.553370 7.267940
603 0 2 0.000000 6.635343 12.222103 8.536735
604 0 1 0.000000 -2.512439 3.117324 7.780725
605 0 2 0.000000 -2.462227 3.700844 8.565825
606 0 2 0.000000 -1.573760 2.965452 7.606633
610 0 1 0.000000 6.171090 12.689749 2.407498
611 0 2 0.000000 7.148226 12.519584 2.371418
612 0 2 0.000000 5.920720 13.305724 3.086411
613 0 1 0.000000 25.481810 6.147679 2.931971
614 0 2 0.000000 25.708067 5.266542 2.690275
616 0 1 0.000000 9.504588 13.880038 7.367907
617 0 2 0.000000 10.205565 13.798644 8.065578
618 0 2 0.000000 8.685877 14.179276 7.659646
625 0 1 0.000000 8.580754 8.756087 11.329033
626 0 2 0.000000 8.233412 9.316359 10.624838
627 0 2 0.000000 7.961508 8.836081 12.021229
628 0 1 0.000000 -0.623635 2.092980 2.311416
629 0 2 0.000000 -1.507746 1.697587 2.430539
630 0 2 0.000000 0.000682 1.535624 2.871759
637 0 1 0.000000 -2.145253 -5.909316 12.254465
638 0 2 0.000000 -1.440427 -6.428471 12.653683
639 0 2 0.000000 -2.566559 -6.437681 11.548007
641 0 2 0.000000 17.355263 16.361063 2.446937
643 0 1 0.000000 -0.921373 3.387187 4.936384
644 0 2 0.000000 -0.867923 4.307562 5.197436
645 0 2 0.000000 -0.712487 3.408318 4.000588
646 0 1 0.000000 -3.216105 12.893758 4.355970
647 0 2 0.000000 -4.170980 12.842715 4.459314
648 0 2 0.000000 -2.906266 12.095654 4.833962
649 0 1 0.000000 -8.501260 13.891781 4.052063
650 0 2 0.000000 -8.971934 14.380540 4.785576
651 0 2 0.000000 -8.585948 14.552416 3.340316
655 0 1 0.000000 10.249059 -1.177968 11.403790
656 0 2 0.000000 10.316410 -1.884574 10.741459
657 0 2 0.000000 10.690453 -1.495807 12.161828
661 0 1 0.000000 11.932590 8.302344 6.013273
662 0 2 0.000000 12.177326 9.287768 6.039828
663 0 2 0.000000 11.782127 8.014012 6.969481
664 0 1 0.000000 20.667042 6.020529 4.337196
665 0 2 0.000000 20.681248 5.117339 4.022852
666 0 2 0.000000 20.728384 5.949176 5.312362
667 0 1 0.000000 -3.847492 7.874332 11.680195
668 0 2 0.000000 -4.582776 7.568279 11.100295
669 0 2 0.000000 -3.738219 7.196186 12.347748
670 0 1 0.000000 20.917131 -5.341662 10.430831
671 0 2 0.000000 19.983391 -5.248330 10.450397
672 0 2 0.000000 21.062016 -6.297877 10.364443
673 0 1 0.000000 9.927516 9.439382 8.515544
674 0 2 0.000000 10.640499 8.786481 8.697495
675 0 2 0.000000 10.328682 10.013537 7.867765
676 0 1 0.000000 -6.578923 16.200928 6.052390
677 0 2 0.000000 -6.006968 16.213787 6.814137
678 0 2 0.000000 -7.448478 15.974144 6.440246
679 0 1 0.000000 16.828304 -2.028915 6.187519
680 0 2 0.000000 17.225107 -2.673791 6.784787
681 0 2 0.000000 17.331976 -1.246990 6.088389
682 0 1 0.000000 18.597017 0.189014 6.016556
683 0 2 0.000000 19.041862 0.128600 5.107857
684 0 2 0.000000 18.626726 1.139499 6.231182
688 0 1 0.000000 11.254687 -0.335792 7.758994
689 0 2 0.000000 11.359816 0.018040 8.677026
690 0 2 0.000000 10.311073 -0.513805 7.677048
691 0 1 0.000000 -5.411781 3.219691 12.290098
692 0 2 0.000000 -5.256377 3.970434 12.934083
693 0 2 0.000000 -6.352845 3.227875 12.048845
694 0 1 0.000000 16.368238 6.602969 5.833349
695 0 2 0.000000 17.172066 6.865857 5.337248
696 0 2 0.000000 15.603449 6.838420 5.336222
699 0 2 0.000000 14.446219 1.822375 13.833094
702 0 2 0.000000 15.224908 1.442085 2.107565
703 0 1 0.000000 -3.745274 -4.174411 13.863070
705 0 2 0.000000 -3.082244 -4.735894 13.405436
706 0 1 0.000000 20.519873 17.389385 2.217140
708 0 2 0.000000 21.491636 17.302519 2.482008
714 0 2 0.000000 12.888680 -9.159330 13.877116
715 0 1 0.000000 23.061056 9.788565 3.866269
716 0 2 0.000000 23.830032 9.756726 4.492306
717 0 2 0.000000 22.848516 8.929533 3.529728
719 0 2 0.000000 1.860831 -1.195161 14.034695
720 0 2 0.000000 3.126066 -2.016441 14.212658
721 0 1 0.000000 13.180882 8.469760 11.166121
722 0 2 0.000000 13.446692 8.801946 10.286821
723 0 2 0.000000 12.453972 7.864043 11.040643
725 0 2 0.000000 2.119740 -2.025707 2.270976
727 0 1 0.000000 10.368279 -3.986283 8.912777
728 0 2 0.000000 10.032262 -3.963522 7.960834
729 0 2 0.000000 11.302225 -3.763883 8.829735
731 0 2 0.000000 8.643007 8.768267 2.461330
736 0 1 0.000000 2.858250 16.158123 5.586342
737 0 2 0.000000 2.913709 16.130394 6.558718
738 0 2 0.000000 2.713328 17.086306 5.421142
739 0 1 0.000000 4.817685 7.263653 9.462358
740 0 2 0.000000 5.452558 7.940663 9.094973
741 0 2 0.000000 4.645118 7.534710 10.383555
743 0 2 0.000000 3.189262 8.338044 2.168082
745 0 1 0.000000 -1.967801 15.191248 3.767512
746 0 2 0.000000 -2.646923 14.560045 4.101432
747 0 2 0.000000 -2.186890 15.924750 4.353739
748 0 1 0.000000 -3.667422 -2.361015 10.902854
749 0 2 0.000000 -4.516378 -2.587945 11.318106
750 0 2 0.000000 -3.068699 -3.051375 11.207819
752 0 2 0.000000 9.059715 7.077647 13.928428
754 0 1 0.000000 11.596980 0.742486 13.789384
755 0 2 0.000000 11.471974 -0.155112 13.971469
757 0 1 0.000000 19.033842 -10.370864 13.219417
758 0 2 0.000000 19.291716 -11.272454 13.316373
759 0 2 0.000000 18.133476 -10.407676 13.585479
763 0 1 0.000000 -9.709627 9.126778 14.068880
764 0 2 0.000000 -10.504802 8.496339 13.930309
775 0 1 0.000000 -10.804326 -3.627277 13.700733
776 0 2 0.000000 -11.731908 -3.775463 13.745361
778 0 1 0.000000 -0.231614 -2.200180 11.513363
779 0 2 0.000000 -0.693995 -1.363644 11.410336
780 0 2 0.000000 -0.629481 -2.871594 10.900794
784 0 1 0.000000 9.933720 4.204220 10.910522
785 0 2 0.000000 10.553765 3.842857 11.572451
786 0 2 0.000000 9.072309 3.751403 11.153182
787 0 1 0.000000 -4.866107 11.879249 10.861241
788 0 2 0.000000 -4.906842 11.518465 9.980906
789 0 2 0.000000 -3.997945 12.326314 10.917772
790 0 1 0.000000 8.299558 1.214960 10.022855
791 0 2 0.000000 7.644693 1.679602 9.492573
792 0 2 0.000000 8.770260 0.667616 9.379763
796 0 1 0.000000 2.314384 -6.673539 12.199945
797 0 2 0.000000 2.969319 -7.192023 12.639696
798 0 2 0.000000 2.472923 -5.804656 12.669704
801 0 2 0.000000 1.381561 -10.308826 13.682730
802 0 1 0.000000 6.856221 7.789356 4.724123
803 0 2 0.000000 6.811520 8.357466 3.957064
804 0 2 0.000000 5.881815 7.772794 5.002381
805 0 1 0.000000 7.545797 5.412942 2.845804
806 0 2 0.000000 7.383988 5.917971 3.638507
807 0 2 0.000000 8.465978 5.096631 2.741868
811 0 1 0.000000 -13.856945 6.109535 14.002735
813 0 2 0.000000 -14.489547 5.959447 13.258347
814 0 1 0.000000 17.581739 2.271435 3.117655
815 0 2 0.000000 17.591162 1.202317 3.166358
816 0 2 0.000000 18.480436 2.581809 3.060879
817 0 1 0.000000 0.450099 12.929880 2.668261
818 0 2 0.000000 0.268341 13.647326 3.278359
820 0 1 0.000000 8.327859 3.128015 5.041153
821 0 2 0.000000 8.350406 4.019352 5.344578
822 0 2 0.000000 8.992302 3.122150 4.290506
824 0 2 0.000000 -1.207373 20.073803 2.343778
826 0 1 0.000000 6.281390 9.102153 7.996552
827 0 2 0.000000 6.603104 9.742116 8.637899
828 0 2 0.000000 7.140618 8.615741 7.836309
835 0 1 0.000000 -1.166531 -4.274900 10.151322
836 0 2 0.000000 -1.300960 -4.920250 10.871138
837 0 2 0.000000 -0.435168 -4.512449 9.551675
839 0 2 0.000000 -9.568597 2.822953 14.023018
841 0 1 0.000000 17.699633 4.758771 7.368284
842 0 2 0.000000 17.269741 5.082035 6.567579
843 0 2 0.000000 18.090502 5.556938 7.872030
844 0 1 0.000000 5.449013 4.617803 9.357270
845 0 2 0.000000 6.070131 4.530567 10.172914
846 0 2 0.000000 5.283566 5.547971 9.304224
847 0 1 0.000000 13.527176 9.525144 2.809241
848 0 2 0.000000 14.364642 9.589677 2.391262
849 0 2 0.000000 13.510326 8.703472 3.342702
850 0 1 0.000000 1.136662 5.067797 2.586754
851 0 2 0.000000 1.851647 4.640650 2.119092
856 0 1 0.000000 10.613861 11.616470 4.108010
857 0 2 0.000000 10.319859 11.608464 5.021765
858 0 2 0.000000 11.593987 11.650837 4.110753
860 0 2 0.000000 8.166143 2.673848 13.898248
862 0 1 0.000000 19.314129 -0.217408 3.474785
863 0 2 0.000000 18.640181 -0.745044 2.926811
864 0 2 0.000000 20.162149 -0.587838 3.349786
868 0 1 0.000000 -5.859496 -0.268418 10.369634
869 0 2 0.000000 -5.605206 0.107064 11.262858
870 0 2 0.000000 -6.672348 -0.797902 10.468850
874 0 1 0.000000 -7.795722 3.775694 8.068997
875 0 2 0.000000 -6.930464 3.930190 7.648035
876 0 2 0.000000 -7.597039 3.698646 9.033448
879 0 2 0.000000 16.907068 -4.647321 13.981922
880 0 1 0.000000 11.111675 8.489850 14.050163
882 0 2 0.000000 11.030293 7.743607 13.475286
883 0 1 0.000000 11.747482 1.103320 5.315261
884 0 2 0.000000 11.681042 0.603160 6.168577
885 0 2 0.000000 11.596814 2.030237 5.545649