LAMMPS data file via MDAnalysis

         314  atoms
           0  bonds
           0  angles
           0  dihedrals
           0  impropers

           2  atom types
           0  bond types
           0  angle types
           0  dihedral types
           0  improper types

0.000000 30.922583 xlo xhi
0.000000 21.318533 ylo yhi
0.000000 36.719425 zlo zhi
-9.138223 -20.713795 -31.419504 xy xz yz


Masses

1 1.008000
2 15.999000

Atoms

1 0 1 0.000000 10.254826 -0.538420 15.411363
2 0 2 0.000000 11.142039 -0.871915 15.355638
3 0 2 0.000000 9.732529 -1.357787 15.614757
4 0 1 0.000000 16.724682 2.830470 1.548635
5 0 2 0.000000 15.929086 2.281519 1.744436
6 0 2 0.000000 16.578117 3.722755 1.775083
19 0 1 0.000000 2.686796 5.586956 14.445238
21 0 2 0.000000 2.097696 5.836696 15.158525
22 0 1 0.000000 -11.391811 -3.468951 14.477498
23 0 2 0.000000 -10.656832 -3.580467 15.125514
24 0 2 0.000000 -11.760418 -2.585624 14.660301
37 0 1 0.000000 9.638392 -3.180070 15.545125
38 0 2 0.000000 10.033097 -3.333283 16.418892
39 0 2 0.000000 10.361856 -3.155468 14.900975
41 0 2 0.000000 11.939430 -9.679271 14.736922
42 0 2 0.000000 13.186904 -8.900114 14.408800
46 0 1 0.000000 5.574749 11.060534 0.763972
47 0 2 0.000000 4.646321 11.162843 0.930662
48 0 2 0.000000 5.551814 10.506326 -0.063778
56 0 2 0.000000 11.999201 -5.105460 14.427230
76 0 1 0.000000 7.105364 -2.959176 15.569956
77 0 2 0.000000 7.997331 -3.215352 15.306359
78 0 2 0.000000 6.479465 -3.189809 14.881490
82 0 1 0.000000 16.062040 9.588198 1.736045
83 0 2 0.000000 15.909593 9.971690 0.857211
84 0 2 0.000000 15.240890 9.019194 1.966248
118 0 1 0.000000 -5.082485 2.549886 14.698236
120 0 2 0.000000 -5.725322 2.033351 15.302796
148 0 1 0.000000 23.017847 -1.252137 1.785063
149 0 2 0.000000 23.855907 -1.627305 1.529800
150 0 2 0.000000 22.398369 -2.004103 1.780306
154 0 1 0.000000 10.449942 20.412722 0.522822
155 0 2 0.000000 10.048079 20.038675 1.340550
156 0 2 0.000000 9.740203 20.890600 0.163157
175 0 1 0.000000 7.389867 1.541573 14.960506
177 0 2 0.000000 8.297299 1.905646 14.762266
196 0 1 0.000000 5.272532 5.406910 14.281573
197 0 2 0.000000 5.635884 5.157283 15.103505
198 0 2 0.000000 4.330327 5.372842 14.411978
211 0 1 0.000000 2.258279 -0.327320 15.622582
212 0 2 0.000000 1.543340 0.220548 16.009462
213 0 2 0.000000 1.819964 -0.910869 14.986873
216 0 2 0.000000 8.710216 -10.262223 14.274870
217 0 1 0.000000 -0.671334 6.794103 0.193463
218 0 2 0.000000 0.158898 6.527956 0.562511
219 0 2 0.000000 -0.780462 6.454184 -0.728960
223 0 1 0.000000 -1.513344 13.223900 1.158563
224 0 2 0.000000 -1.829114 14.191118 1.233648
225 0 2 0.000000 -0.771782 13.334751 0.530988
226 0 1 0.000000 1.615892 -3.329749 15.387657
227 0 2 0.000000 2.248704 -3.665955 16.000736
228 0 2 0.000000 2.153844 -3.122446 14.587438
232 0 1 0.000000 -3.676091 -4.885406 14.794868
234 0 2 0.000000 -2.730751 -4.619525 14.686720
235 0 1 0.000000 10.358275 7.024564 0.546334
236 0 2 0.000000 10.278779 6.488433 -0.232319
237 0 2 0.000000 10.017817 7.866873 0.298571
255 0 2 0.000000 0.095549 -9.832952 14.371742
287 0 2 0.000000 -1.299657 -6.288289 14.690361
288 0 2 0.000000 -2.390344 -7.301382 14.440974
301 0 1 0.000000 -8.332482 20.739883 0.642388
302 0 2 0.000000 -7.524282 21.295160 0.548094
303 0 2 0.000000 -8.184721 20.026112 1.280260
316 0 1 0.000000 5.663142 -12.573771 15.160556
318 0 2 0.000000 6.589422 -12.750883 15.443772
319 0 1 0.000000 -5.405580 12.936972 1.430710
321 0 2 0.000000 -6.309721 12.781789 1.611783
322 0 1 0.000000 1.615045 8.947581 14.345102
323 0 2 0.000000 1.416786 7.995039 14.229159
351 0 2 0.000000 2.397005 11.906968 1.930592
364 0 1 0.000000 12.745484 0.661136 0.525737
365 0 2 0.000000 13.225931 0.992674 -0.184114
366 0 2 0.000000 12.129258 1.346704 0.826736
394 0 1 0.000000 -10.238216 3.602496 16.151346
395 0 2 0.000000 -9.821594 4.418558 16.283815
396 0 2 0.000000 -10.315820 3.524386 15.197126
406 0 1 0.000000 -11.575288 7.904000 15.382403
407 0 2 0.000000 -10.674597 8.009254 15.069415
408 0 2 0.000000 -11.517123 8.074100 16.313122
409 0 1 0.000000 1.484353 -10.022339 15.792480
410 0 2 0.000000 1.371464 -9.970254 16.748436
411 0 2 0.000000 2.370935 -10.261708 15.590118
412 0 1 0.000000 22.381907 8.070691 0.103952
413 0 2 0.000000 22.845837 7.545495 0.823865
414 0 2 0.000000 22.931601 8.859641 0.075599
418 0 1 0.000000 7.089480 6.352450 1.319873
419 0 2 0.000000 6.536835 6.171306 0.529146
420 0 2 0.000000 7.039385 7.336698 1.425407
421 0 1 0.000000 23.655937 5.934187 1.152294
422 0 2 0.000000 24.374859 5.949897 1.817073
423 0 2 0.000000 24.036711 5.901608 0.308719
427 0 1 0.000000 -0.020908 19.218016 1.730209
428 0 2 0.000000 -0.979676 19.453869 1.897555
442 0 1 0.000000 14.740476 5.769773 14.455482
443 0 2 0.000000 15.636905 6.074360 14.686401
444 0 2 0.000000 14.263068 6.044125 15.262162
468 0 2 0.000000 -7.639000 15.860656 2.015710
469 0 1 0.000000 9.963095 2.776750 14.448321
470 0 2 0.000000 10.558769 3.008665 15.193790
472 0 1 0.000000 6.030921 -7.056448 16.178461
473 0 2 0.000000 5.233823 -6.457675 16.086338
474 0 2 0.000000 6.073605 -7.607979 15.338286
481 0 1 0.000000 6.493377 20.010553 1.476969
483 0 2 0.000000 5.751120 19.384729 1.348265
487 0 1 0.000000 19.868162 15.259055 1.074157
488 0 2 0.000000 19.415176 14.584921 0.483757
489 0 2 0.000000 20.699894 15.410209 0.584624
490 0 1 0.000000 15.897351 -9.885029 15.288895
491 0 2 0.000000 15.403788 -9.131891 14.990239
492 0 2 0.000000 16.778236 -9.511362 15.502719
493 0 1 0.000000 -4.351325 5.908453 14.468949
494 0 2 0.000000 -3.620819 6.466389 14.773833
498 0 2 0.000000 9.106104 11.872000 1.994871
502 0 1 0.000000 18.347977 -8.533067 15.454633
503 0 2 0.000000 18.330004 -7.535973 15.391604
504 0 2 0.000000 18.698269 -8.760931 16.322525
506 0 2 0.000000 5.438210 0.008296 14.824965
532 0 1 0.000000 22.397379 12.731196 1.365179
533 0 2 0.000000 21.703171 12.055110 1.327804
535 0 1 0.000000 1.804079 10.441736 0.157485
536 0 2 0.000000 2.380875 9.894506 0.727700
537 0 2 0.000000 1.989884 10.110287 -0.777234
547 0 1 0.000000 12.084927 3.882318 16.126614
548 0 2 0.000000 12.423078 4.073902 17.005817
549 0 2 0.000000 12.819398 3.571488 15.550977
559 0 1 0.000000 -4.644490 20.616632 0.465471
560 0 2 0.000000 -4.520810 21.091555 -0.367355
561 0 2 0.000000 -5.220920 21.186865 1.013794
565 0 1 0.000000 -7.589953 6.052169 15.644143
566 0 2 0.000000 -6.842132 6.451914 16.135572
567 0 2 0.000000 -8.083838 5.596435 16.325209
579 0 2 0.000000 12.072627 6.635982 2.029184
580 0 1 0.000000 13.026320 0.682595 15.818687
581 0 2 0.000000 13.693452 1.412895 15.736484
582 0 2 0.000000 13.337081 0.062735 16.523773
591 0 2 0.000000 -7.672936 -8.777116 14.783120
596 0 2 0.000000 -7.141343 5.092289 14.211758
614 0 2 0.000000 18.755816 8.312524 2.025953
622 0 1 0.000000 7.358618 12.964883 1.499720
623 0 2 0.000000 6.612035 12.509930 1.077004
625 0 1 0.000000 24.151224 2.518408 1.229033
626 0 2 0.000000 23.183359 2.383337 1.243384
627 0 2 0.000000 24.185043 3.260438 0.593887
631 0 1 0.000000 -8.700300 -1.153538 15.679017
632 0 2 0.000000 -7.846188 -0.674165 15.831209
633 0 2 0.000000 -8.592610 -1.980762 16.196705
640 0 1 0.000000 -1.630425 -0.619204 15.179502
641 0 2 0.000000 -1.205326 -1.254835 15.832699
642 0 2 0.000000 -0.983164 0.110400 14.853973
655 0 1 0.000000 8.887449 4.355169 2.041972
657 0 2 0.000000 8.556024 5.239066 1.742148
658 0 1 0.000000 -0.858679 -4.702507 15.445004
659 0 2 0.000000 -1.245262 -4.592105 16.331036
660 0 2 0.000000 -0.207857 -3.990872 15.330737
661 0 1 0.000000 18.053875 19.277687 1.136913
662 0 2 0.000000 18.651026 19.905285 0.636602
663 0 2 0.000000 17.420122 18.781977 0.594027
679 0 1 0.000000 5.233349 14.192483 0.189733
680 0 2 0.000000 6.082756 13.888467 -0.143704
681 0 2 0.000000 5.258885 14.243011 1.185128
712 0 1 0.000000 3.661200 8.276518 0.857344
713 0 2 0.000000 3.078115 7.496532 0.603897
714 0 2 0.000000 4.304899 8.261096 0.109998
721 0 1 0.000000 -6.185915 18.364384 0.960519
722 0 2 0.000000 -5.529215 19.049580 0.806181
723 0 2 0.000000 -5.867750 17.433174 0.985671
727 0 1 0.000000 -3.851768 -8.154076 15.116057
728 0 2 0.000000 -4.623113 -7.774446 14.635546
729 0 2 0.000000 -3.939270 -9.126081 14.969374
731 0 2 0.000000 8.251544 7.042292 14.594717
736 0 1 0.000000 2.085606 5.407615 0.164996
737 0 2 0.000000 1.804343 4.534053 0.409984
738 0 2 0.000000 2.964248 5.309945 0.508516
763 0 1 0.000000 -6.676641 0.749496 16.231951
764 0 2 0.000000 -5.800554 0.420069 16.426054
765 0 2 0.000000 -7.135057 1.197655 16.961843
766 0 1 0.000000 -2.813414 4.082953 1.609128
769 0 1 0.000000 11.931390 9.464300 1.914217
771 0 2 0.000000 12.188271 10.392461 1.824366
775 0 1 0.000000 -0.629529 9.621520 0.460996
776 0 2 0.000000 0.312536 9.802279 0.506788
777 0 2 0.000000 -0.766717 8.670219 0.400605
787 0 1 0.000000 -13.373335 1.205467 14.382018
789 0 2 0.000000 -12.935405 0.396368 14.757298
790 0 1 0.000000 19.563711 8.035797 0.585512
791 0 2 0.000000 19.193165 8.330233 -0.209112
792 0 2 0.000000 20.504175 7.959094 0.273863
794 0 2 0.000000 17.960201 13.060959 1.812719
799 0 1 0.000000 7.154512 7.915608 15.548254
800 0 2 0.000000 7.076137 7.868678 16.486427
801 0 2 0.000000 6.329566 8.243637 15.232016
803 0 2 0.000000 14.960398 14.158235 1.706125
807 0 2 0.000000 3.574700 2.344703 14.596265
822 0 2 0.000000 15.601694 5.699870 1.653670
829 0 1 0.000000 8.487207 -12.873531 15.898678
830 0 2 0.000000 8.490308 -12.220584 16.610157
831 0 2 0.000000 8.715302 -12.254100 15.184943
835 0 1 0.000000 25.871025 9.640259 0.890350
836 0 2 0.000000 26.666672 10.091392 1.222281
837 0 2 0.000000 25.378336 10.201155 0.274292
841 0 1 0.000000 13.526858 3.539235 0.077627
842 0 2 0.000000 13.636122 3.729922 1.006044
843 0 2 0.000000 14.326118 3.085858 -0.188145
844 0 1 0.000000 -12.589149 -1.144942 15.470884
845 0 2 0.000000 -13.320096 -1.381221 16.058340
846 0 2 0.000000 -11.930819 -0.799426 16.050594
859 0 1 0.000000 3.926127 -5.311668 15.709003
860 0 2 0.000000 3.477179 -5.237943 16.549385
861 0 2 0.000000 4.181489 -4.446838 15.387758
862 0 1 0.000000 8.370981 -5.974257 14.772547
863 0 2 0.000000 8.595064 -6.794456 14.292108
864 0 2 0.000000 7.592681 -6.362221 15.273106
865 0 1 0.000000 0.065712 3.338524 0.745050
866 0 2 0.000000 -0.785300 3.689548 0.861086
867 0 2 0.000000 0.005436 2.774245 0.009707
880 0 1 0.000000 14.860636 -3.407192 15.249762
881 0 2 0.000000 14.896785 -3.795726 14.343415
882 0 2 0.000000 14.520088 -2.529684 15.203766
889 0 1 0.000000 18.620701 -11.959897 15.641591
890 0 2 0.000000 18.723412 -11.153421 16.159872
891 0 2 0.000000 17.659311 -12.049984 15.571899
892 0 1 0.000000 0.448290 15.706137 1.625625
893 0 2 0.000000 0.275184 16.361774 0.908412
907 0 1 0.000000 -2.224784 2.654299 15.469546
908 0 2 0.000000 -3.130657 2.369386 15.362392
909 0 2 0.000000 -1.953216 2.363395 16.357513
911 0 2 0.000000 13.787312 -0.255322 14.430566
913 0 1 0.000000 12.862254 11.952687 1.181347
914 0 2 0.000000 12.364780 12.551581 0.610720
915 0 2 0.000000 13.300351 12.583755 1.747020
917 0 2 0.000000 26.264221 -0.734057 1.919106
919 0 1 0.000000 12.691513 17.450951 1.472356
920 0 2 0.000000 11.869114 17.633686 1.015139
940 0 1 0.000000 14.555670 -7.587482 14.698956
941 0 2 0.000000 13.883451 -6.910690 14.940289
966 0 2 0.000000 5.125630 -9.191060 14.253736
984 0 2 0.000000 -1.983108 10.204534 1.781844
988 0 1 0.000000 19.825302 3.009333 0.475049
989 0 2 0.000000 20.064602 2.387040 -0.207294
990 0 2 0.000000 20.682676 3.285097 0.888873
991 0 1 0.000000 16.522020 13.216624 0.566058
992 0 2 0.000000 16.567524 14.052985 0.012506
993 0 2 0.000000 16.488758 12.498084 -0.093925
1006 0 1 0.000000 6.824164 16.356140 2.005342
1027 0 1 0.000000 0.286033 -12.770988 15.182827
1028 0 2 0.000000 0.660739 -13.641469 15.309278
1029 0 2 0.000000 0.600590 -12.060165 15.736528
1033 0 1 0.000000 13.740339 -12.287151 14.693694
1034 0 2 0.000000 13.092278 -12.531517 15.348460
1035 0 2 0.000000 13.456127 -11.353902 14.567731
1045 0 1 0.000000 17.851547 -5.867620 15.220338
1046 0 2 0.000000 18.493183 -5.178465 14.887878
1047 0 2 0.000000 17.548265 -5.342730 15.976971
1048 0 1 0.000000 4.349678 1.448860 15.921659
1049 0 2 0.000000 3.594019 0.842490 15.923275
1050 0 2 0.000000 4.263771 2.169158 16.634911
1060 0 1 0.000000 4.105074 3.627491 1.364378
1062 0 2 0.000000 4.995379 3.251824 1.161044
1078 0 1 0.000000 10.066452 -8.635553 15.543520
1079 0 2 0.000000 10.244968 -9.330298 16.155510
1080 0 2 0.000000 9.806193 -7.814705 16.066889
1086 0 2 0.000000 22.143124 5.250386 1.752466
1090 0 1 0.000000 11.404818 6.382098 14.413054
1091 0 2 0.000000 10.422196 6.378486 14.482158
1092 0 2 0.000000 11.756868 5.779853 15.151020
1105 0 1 0.000000 -6.031861 15.699741 0.568767
1106 0 2 0.000000 -5.580556 14.889153 0.859629
1107 0 2 0.000000 -5.909235 15.794517 -0.379298
1120 0 1 0.000000 -2.674087 15.638181 1.261689
1121 0 2 0.000000 -3.184207 16.074450 1.969042
1122 0 2 0.000000 -2.274347 16.423553 0.813428
1143 0 2 0.000000 2.021120 -5.545600 14.464441
1168 0 1 0.000000 21.808212 -12.405204 14.946968
1169 0 2 0.000000 21.375124 -13.273541 14.952546
1186 0 1 0.000000 -6.702949 -12.528401 16.007210
1187 0 2 0.000000 -7.360592 -12.311869 15.324532
1188 0 2 0.000000 -6.248747 -11.701512 16.177700
1192 0 1 0.000000 14.529972 3.171488 14.878000
1194 0 2 0.000000 14.852633 4.015257 14.648640
1201 0 1 0.000000 -1.303799 5.314742 15.414115
1202 0 2 0.000000 -1.641591 4.392272 15.338317
1203 0 2 0.000000 -1.701211 5.690858 16.240101
1207 0 1 0.000000 4.228550 18.486233 0.383876
1208 0 2 0.000000 4.477091 17.591557 0.105297
1209 0 2 0.000000 4.280465 18.977621 -0.433101
1219 0 1 0.000000 6.679664 2.517848 1.336729
1221 0 2 0.000000 7.522033 2.977517 1.597659
1226 0 2 0.000000 -2.084097 7.074762 1.725852
1231 0 1 0.000000 9.657989 14.898732 1.159092
1232 0 2 0.000000 9.584630 15.876036 1.016927
1233 0 2 0.000000 8.778401 14.540174 1.070617
1234 0 1 0.000000 21.706152 0.885486 0.859787
1235 0 2 0.000000 20.893095 0.472831 0.596008
1236 0 2 0.000000 22.293243 0.133600 1.036780
1237 0 1 0.000000 1.114944 3.501285 16.087650
1238 0 2 0.000000 0.641470 4.305344 16.406370
1239 0 2 0.000000 1.025152 3.399923 15.121682
1240 0 1 0.000000 28.879053 0.050133 0.773609
1241 0 2 0.000000 29.795963 -0.013506 0.471479
1242 0 2 0.000000 28.505129 0.744185 0.203506
1257 0 2 0.000000 5.831214 -1.301735 1.701757
1258 0 1 0.000000 20.229053 10.801459 1.578586
1259 0 2 0.000000 20.653999 10.008391 1.980157
1270 0 1 0.000000 -13.043402 3.726336 14.636182
1271 0 2 0.000000 -13.198738 4.230223 15.393514
1272 0 2 0.000000 -13.064709 2.787234 14.858761
1285 0 1 0.000000 -3.975363 -10.845613 14.627992
1286 0 2 0.000000 -4.835072 -11.315501 14.482344
1287 0 2 0.000000 -3.405052 -11.444841 15.150504
1288 0 1 0.000000 6.631342 4.072519 16.255871
1289 0 2 0.000000 6.413605 3.774078 17.170918
1290 0 2 0.000000 6.837738 3.234432 15.803405
1291 0 1 0.000000 7.304013 9.155576 1.776032
1293 0 2 0.000000 6.721714 9.911004 1.897538
