LAMMPS data file via MDAnalysis

        1296  atoms
           0  bonds
           0  angles
           0  dihedrals
           0  impropers

           2  atom types
           0  bond types
           0  angle types
           0  dihedral types
           0  improper types

0.000000 30.968616 xlo xhi
0.000000 21.347401 ylo yhi
0.000000 16.280087 zlo zhi
-9.153410 -9.190221 -13.940674 xy xz yz


Masses

1 1.008000
2 15.999000

Atoms

1 0 1 0.000000 -0.440574 -3.874718 4.844084
2 0 2 0.000000 -0.400356 -3.146937 5.477796
3 0 2 0.000000 -1.242416 -3.644220 4.368813
4 0 1 0.000000 0.263705 3.962024 1.946072
5 0 2 0.000000 -0.425298 3.416702 2.396693
6 0 2 0.000000 -0.132520 4.515657 1.286458
7 0 1 0.000000 5.976489 1.704734 0.366376
8 0 2 0.000000 5.658445 0.828419 0.134785
9 0 2 0.000000 5.941550 1.842311 1.385199
10 0 1 0.000000 -1.502089 -0.009571 3.908040
11 0 2 0.000000 -2.167126 -0.688278 4.011284
12 0 2 0.000000 -0.630330 -0.457115 3.947968
13 0 1 0.000000 -3.097961 5.225459 1.596506
14 0 2 0.000000 -2.701747 5.432886 2.500217
15 0 2 0.000000 -2.463424 5.574788 0.931788
16 0 1 0.000000 3.109317 0.323383 2.357266
17 0 2 0.000000 2.981219 1.251998 2.020854
18 0 2 0.000000 3.760774 -0.071151 1.694554
19 0 1 0.000000 2.198558 6.264527 0.846900
20 0 2 0.000000 3.069610 6.095941 1.217072
21 0 2 0.000000 2.113142 5.576200 0.156072
22 0 1 0.000000 1.126655 -1.276708 3.551101
23 0 2 0.000000 1.867867 -0.785056 3.137287
24 0 2 0.000000 1.547742 -1.776712 4.264240
25 0 1 0.000000 -3.956152 0.701978 5.756989
26 0 2 0.000000 -4.005812 0.338182 4.902329
27 0 2 0.000000 -3.867302 1.672428 5.623352
28 0 1 0.000000 2.857168 2.795447 1.410929
29 0 2 0.000000 3.533190 3.530582 1.273368
30 0 2 0.000000 2.066266 3.130471 1.828597
31 0 1 0.000000 4.839027 -2.293270 4.065226
32 0 2 0.000000 4.195122 -2.295505 4.775225
33 0 2 0.000000 4.258046 -2.582419 3.321136
34 0 1 0.000000 -1.972632 2.369694 2.966166
35 0 2 0.000000 -1.719082 1.442627 3.162427
36 0 2 0.000000 -2.611252 2.627852 3.691942
37 0 1 0.000000 7.040280 -3.877612 5.104240
38 0 2 0.000000 7.428017 -3.160417 5.619016
39 0 2 0.000000 6.367429 -3.432512 4.527328
40 0 1 0.000000 8.263410 3.921709 2.017214
41 0 2 0.000000 7.571689 3.402315 2.516336
42 0 2 0.000000 7.699290 4.241475 1.285036
43 0 1 0.000000 13.597753 1.699434 0.337350
44 0 2 0.000000 13.598059 0.739462 0.451610
45 0 2 0.000000 13.613355 2.135664 1.169611
46 0 1 0.000000 6.692500 -0.147932 4.363291
47 0 2 0.000000 6.053437 -0.852878 4.542642
48 0 2 0.000000 7.611968 -0.398098 4.262603
49 0 1 0.000000 4.450873 4.881918 1.327011
50 0 2 0.000000 4.953965 4.911064 2.216679
51 0 2 0.000000 5.185822 4.971072 0.709485
52 0 1 0.000000 11.138214 0.309277 2.985745
53 0 2 0.000000 11.069032 1.140917 2.522784
54 0 2 0.000000 11.946060 -0.101815 2.721419
55 0 1 0.000000 10.241469 6.231639 0.993671
56 0 2 0.000000 11.072001 5.936340 1.454610
57 0 2 0.000000 10.026132 5.558204 0.356301
58 0 1 0.000000 9.026438 -1.110130 3.836877
59 0 2 0.000000 9.701880 -0.581581 3.302580
60 0 2 0.000000 9.589304 -1.679887 4.380778
61 0 1 0.000000 3.673237 0.659294 5.086904
62 0 2 0.000000 3.615814 0.473276 4.163396
63 0 2 0.000000 3.793334 1.632615 5.088457
64 0 1 0.000000 10.665484 2.720154 1.791461
65 0 2 0.000000 11.351400 3.380726 1.735437
66 0 2 0.000000 9.736300 3.082558 1.587761
67 0 1 0.000000 12.731404 -2.543383 4.171575
68 0 2 0.000000 12.053323 -2.715161 4.858076
69 0 2 0.000000 3.094876 18.493290 3.328855
70 0 1 0.000000 6.278550 2.225972 3.091319
71 0 2 0.000000 6.288068 1.324733 3.480951
72 0 2 0.000000 5.544685 2.739595 3.523708
73 0 1 0.000000 14.889935 -4.013228 4.833836
74 0 2 0.000000 15.209363 -3.293209 5.409585
75 0 2 0.000000 14.052319 -3.656773 4.418653
76 0 1 0.000000 15.940228 3.571861 1.701669
77 0 2 0.000000 15.230011 3.231337 2.281755
78 0 2 0.000000 15.510015 4.186196 1.073538
79 0 1 0.000000 12.169562 -12.127254 16.279613
80 0 2 0.000000 21.309214 0.850828 0.223891
81 0 2 0.000000 21.119097 2.056509 0.921755
82 0 1 0.000000 14.463317 -0.222933 4.243215
83 0 2 0.000000 13.830562 -0.972720 4.374008
84 0 2 0.000000 15.407203 -0.497793 4.062443
85 0 1 0.000000 12.667552 4.606304 1.617056
86 0 2 0.000000 13.195075 4.974579 2.451468
87 0 2 0.000000 13.315172 4.706418 0.904482
88 0 1 0.000000 18.845707 0.116476 2.652989
89 0 2 0.000000 18.493603 0.940762 2.232916
90 0 2 0.000000 19.568230 -0.180892 2.014329
91 0 1 0.000000 18.173656 6.516352 0.844044
92 0 2 0.000000 18.850664 6.175697 1.487499
93 0 2 0.000000 17.842541 5.716212 0.363992
94 0 1 0.000000 17.024462 -1.320727 4.031151
95 0 2 0.000000 17.594074 -0.892155 3.331007
96 0 2 0.000000 17.550102 -2.062394 4.406435
97 0 1 0.000000 11.682260 0.718610 5.624112
98 0 2 0.000000 11.631252 0.639942 4.659760
99 0 2 0.000000 11.796180 1.668906 5.698413
100 0 1 0.000000 18.334530 2.342013 1.535591
101 0 2 0.000000 18.982702 3.067204 1.704726
102 0 2 0.000000 17.410137 2.732380 1.439002
103 0 1 0.000000 20.642811 -2.332907 4.105518
104 0 2 0.000000 20.055719 -2.560249 4.860472
105 0 2 0.000000 20.181347 -2.471080 3.296171
106 0 1 0.000000 13.707417 2.186445 2.978319
107 0 2 0.000000 14.162873 1.464615 3.436214
108 0 2 0.000000 13.138185 2.564298 3.676915
109 0 1 0.000000 13.898509 17.656559 4.226432
110 0 2 0.000000 23.146067 -3.095314 4.999685
111 0 2 0.000000 13.047926 17.929577 3.870936
112 0 1 0.000000 24.010170 3.766504 1.607981
113 0 2 0.000000 23.304165 3.185969 2.068631
114 0 2 0.000000 23.538568 4.388552 0.996227
115 0 1 0.000000 29.283743 1.723257 0.287671
116 0 2 0.000000 29.079386 0.786088 0.452644
117 0 2 0.000000 -1.746608 2.115689 1.171083
118 0 1 0.000000 22.460199 0.170378 4.152658
119 0 2 0.000000 21.847797 -0.577245 4.119521
120 0 2 0.000000 23.365204 -0.151447 3.825660
121 0 1 0.000000 20.140009 4.712063 1.626357
122 0 2 0.000000 20.640783 4.929914 2.476114
123 0 2 0.000000 20.796673 4.983172 0.968769
124 0 1 0.000000 26.840027 0.402491 2.704484
125 0 2 0.000000 26.820196 1.227855 2.211048
126 0 2 0.000000 27.508162 -0.104172 2.124733
127 0 1 0.000000 25.569300 6.146581 1.039426
128 0 2 0.000000 26.426952 5.866763 1.395798
129 0 2 0.000000 25.400940 5.464655 0.344154
130 0 1 0.000000 24.745037 -0.914360 3.477665
131 0 2 0.000000 25.588705 -0.533437 3.112893
132 0 2 0.000000 24.900988 -1.641302 4.093087
133 0 1 0.000000 19.312243 0.911522 5.107427
134 0 2 0.000000 19.286905 0.529187 4.206669
135 0 2 0.000000 19.462936 1.884082 5.084900
136 0 1 0.000000 26.573908 2.947816 1.262562
137 0 2 0.000000 27.217926 3.637244 1.332616
138 0 2 0.000000 25.668980 3.258176 1.071038
139 0 1 0.000000 28.238890 -2.638292 4.011322
140 0 2 0.000000 27.544352 -2.693502 4.678538
141 0 2 0.000000 27.694683 -2.636521 3.209931
142 0 1 0.000000 21.637653 2.246968 2.699392
143 0 2 0.000000 22.080713 1.426670 3.126664
144 0 2 0.000000 21.090752 2.482733 3.440752
145 0 1 0.000000 -3.878788 3.447655 4.829243
146 0 2 0.000000 -3.452419 4.076171 5.418513
147 0 2 0.000000 -4.686676 3.974229 4.480406
148 0 1 0.000000 -2.350697 11.251338 1.777301
149 0 2 0.000000 -2.944367 10.832992 2.419959
150 0 2 0.000000 -2.973078 11.462788 1.027583
151 0 1 0.000000 -6.529207 -4.882203 16.284784
152 0 2 0.000000 -6.526998 -5.837807 16.228666
153 0 2 0.000000 2.917448 9.324436 0.874448
154 0 1 0.000000 -4.169203 7.149649 4.165635
155 0 2 0.000000 -4.875452 6.454171 4.156076
156 0 2 0.000000 -3.384180 6.667567 4.043433
157 0 1 0.000000 -6.175549 12.075522 1.372469
158 0 2 0.000000 -5.596742 12.239446 2.150852
159 0 2 0.000000 -5.613898 12.299307 0.615062
160 0 1 0.000000 0.242037 7.405418 2.526605
161 0 2 0.000000 -0.145583 8.170835 2.047210
162 0 2 0.000000 0.909450 7.018824 1.884438
163 0 1 0.000000 -0.546825 13.523640 1.146116
164 0 2 0.000000 0.403478 13.236447 1.433572
165 0 2 0.000000 -0.888294 12.919693 0.479663
166 0 1 0.000000 -1.556782 5.710571 3.688720
167 0 2 0.000000 -0.787267 6.199061 3.325427
168 0 2 0.000000 -1.247270 4.910828 4.126711
169 0 1 0.000000 -6.948142 8.086262 5.621110
170 0 2 0.000000 -6.871186 7.951649 4.633337
171 0 2 0.000000 -6.577621 8.992048 5.644160
172 0 1 0.000000 -0.036194 10.025477 1.253449
173 0 2 0.000000 0.745064 10.590731 1.487272
174 0 2 0.000000 -0.824250 10.606826 1.248485
175 0 1 0.000000 1.622001 4.990926 4.105894
176 0 2 0.000000 0.894377 4.834742 4.714378
177 0 2 0.000000 1.219149 4.829287 3.265205
178 0 1 0.000000 -4.619775 9.844464 3.165215
179 0 2 0.000000 -4.670945 8.940813 3.518705
180 0 2 0.000000 -5.483186 10.280381 3.377655
181 0 1 0.000000 4.159204 3.323832 4.351043
182 0 2 0.000000 4.406284 4.132095 4.925655
183 0 2 0.000000 3.304739 3.613844 3.939171
184 0 1 0.000000 5.228202 10.957981 1.764273
185 0 2 0.000000 4.499439 10.442867 2.252780
186 0 2 0.000000 4.787925 11.581004 1.181695
187 0 1 0.000000 10.506123 8.738032 0.108921
188 0 2 0.000000 10.407984 7.753095 0.235017
189 0 2 0.000000 10.337541 9.034307 0.992700
190 0 1 0.000000 3.344453 6.967618 4.142631
191 0 2 0.000000 2.697098 6.277071 4.087514
192 0 2 0.000000 4.286369 6.647099 3.876076
193 0 1 0.000000 1.842010 11.892534 1.673619
194 0 2 0.000000 2.244251 12.297266 2.440871
195 0 2 0.000000 2.381204 11.991899 0.848300
196 0 1 0.000000 7.930552 7.109279 2.444124
197 0 2 0.000000 7.830051 8.031486 2.155802
198 0 2 0.000000 8.799660 6.835283 2.155942
199 0 1 0.000000 6.955050 13.735726 0.865370
200 0 2 0.000000 7.771389 13.208913 0.994259
201 0 2 0.000000 6.387898 13.161691 0.320409
202 0 1 0.000000 5.912736 5.638136 3.585581
203 0 2 0.000000 6.545334 6.313516 3.206570
204 0 2 0.000000 6.359109 5.089749 4.190702
205 0 1 0.000000 0.580369 8.043450 5.269471
206 0 2 0.000000 0.611853 7.793768 4.324707
207 0 2 0.000000 0.753463 9.020410 5.243001
208 0 1 0.000000 7.816494 9.719549 1.419794
209 0 2 0.000000 8.506717 10.399409 1.487224
210 0 2 0.000000 6.960770 10.106271 1.515039
211 0 1 0.000000 9.826794 5.003369 4.101593
212 0 2 0.000000 9.078832 5.068565 4.693253
213 0 2 0.000000 9.400793 4.688983 3.297311
214 0 1 0.000000 3.210871 9.311020 2.918077
215 0 2 0.000000 3.025346 8.411724 3.199850
216 0 2 0.000000 2.609618 9.904936 3.409731
217 0 1 0.000000 11.966956 3.220520 4.707909
218 0 2 0.000000 12.327266 3.962343 5.253108
219 0 2 0.000000 11.078386 3.615544 4.486349
220 0 1 0.000000 12.663297 10.798100 1.724354
221 0 2 0.000000 11.997351 10.212752 2.147853
222 0 2 0.000000 12.144119 11.441957 1.231356
223 0 1 0.000000 18.385660 9.061828 0.166914
224 0 2 0.000000 18.299992 8.068513 0.192924
225 0 2 0.000000 18.405912 9.346343 1.117710
226 0 1 0.000000 11.457536 7.083155 4.246478
227 0 2 0.000000 10.878981 6.277455 4.316358
228 0 2 0.000000 12.394554 6.768743 4.206353
229 0 1 0.000000 9.395585 12.232537 1.315309
230 0 2 0.000000 9.871570 12.317147 2.193868
231 0 2 0.000000 10.142144 12.362961 0.725095
232 0 1 0.000000 15.746655 7.120762 2.571165
233 0 2 0.000000 15.624685 8.018019 2.238047
234 0 2 0.000000 16.637751 6.909489 2.286078
235 0 1 0.000000 14.676478 13.259725 1.016835
236 0 2 0.000000 15.517278 12.862273 1.379341
237 0 2 0.000000 14.627789 12.696086 0.219612
238 0 1 0.000000 13.830486 5.759310 3.791627
239 0 2 0.000000 14.540305 6.238633 3.387340
240 0 2 0.000000 14.286068 5.160166 4.416642
241 0 1 0.000000 8.297601 7.247946 5.067998
242 0 2 0.000000 8.255031 7.188010 4.109463
243 0 2 0.000000 8.505980 8.164416 5.185197
244 0 1 0.000000 15.439104 9.451517 1.376011
245 0 2 0.000000 16.023733 10.169619 1.676775
246 0 2 0.000000 14.560305 9.825484 1.313166
247 0 1 0.000000 17.287970 4.813777 4.114537
248 0 2 0.000000 16.674015 4.427520 4.716319
249 0 2 0.000000 17.022800 4.368661 3.241181
250 0 1 0.000000 10.556410 9.208987 2.919873
251 0 2 0.000000 10.865519 8.354010 3.289226
252 0 2 0.000000 10.007070 9.658036 3.580247
253 0 1 0.000000 19.768250 3.485082 4.567329
254 0 2 0.000000 19.665176 4.069458 5.322693
255 0 2 0.000000 19.004734 3.810792 4.090490
256 0 1 0.000000 20.633188 11.215625 1.909510
257 0 2 0.000000 19.949036 10.676799 2.344402
258 0 2 0.000000 20.161673 11.705437 1.235661
259 0 1 0.000000 25.950691 8.863276 0.272906
260 0 2 0.000000 25.496243 8.046867 0.402790
261 0 2 0.000000 25.857733 9.192839 1.193368
262 0 1 0.000000 19.132429 6.929916 4.129672
263 0 2 0.000000 18.430141 6.312850 4.385142
264 0 2 0.000000 19.914631 6.376767 3.909382
265 0 1 0.000000 17.082764 11.920467 1.527193
266 0 2 0.000000 17.567669 12.114666 2.323760
267 0 2 0.000000 17.749620 12.084667 0.856753
268 0 1 0.000000 23.748220 7.544523 2.488643
269 0 2 0.000000 23.512686 8.414494 1.987700
270 0 2 0.000000 24.588594 7.135705 2.131016
271 0 1 0.000000 22.504587 13.517196 0.942005
272 0 2 0.000000 23.310265 13.041675 1.252065
273 0 2 0.000000 22.196001 12.907706 0.256614
274 0 1 0.000000 21.698286 6.062678 3.475195
275 0 2 0.000000 22.333696 6.581783 2.932114
276 0 2 0.000000 22.155676 5.613686 4.241688
277 0 1 0.000000 16.050508 7.955538 5.346640
278 0 2 0.000000 15.982807 7.585631 4.441548
279 0 2 0.000000 16.410870 8.900023 5.144624
280 0 1 0.000000 23.187271 9.906530 1.117930
281 0 2 0.000000 23.845846 10.670475 1.132226
282 0 2 0.000000 22.324677 10.362169 1.068520
283 0 1 0.000000 25.154493 5.019965 4.061084
284 0 2 0.000000 24.376802 4.749935 4.623571
285 0 2 0.000000 24.795862 4.734767 3.127681
286 0 1 0.000000 18.737404 9.337289 3.006762
287 0 2 0.000000 18.747103 8.416951 3.227921
288 0 2 0.000000 18.074892 9.802676 3.551219
289 0 1 0.000000 -6.666937 10.701850 4.545269
290 0 2 0.000000 -6.304039 11.323829 5.153649
291 0 2 0.000000 -7.454651 11.135268 4.157708
292 0 1 0.000000 -5.822203 17.780661 2.042777
293 0 2 0.000000 -6.431881 17.499002 2.733077
294 0 2 0.000000 -6.244946 18.431170 1.446983
295 0 1 0.000000 -0.026602 16.093737 0.336238
296 0 2 0.000000 -0.372193 15.165738 0.201733
297 0 2 0.000000 -0.101102 16.164524 1.298145
298 0 1 0.000000 -6.832389 14.002173 4.018408
299 0 2 0.000000 -7.424290 13.307535 4.267618
300 0 2 0.000000 -5.935637 13.703529 3.834794
301 0 1 0.000000 21.559820 19.105459 1.470736
302 0 2 0.000000 -9.060527 19.156250 2.369798
303 0 2 0.000000 -8.652665 19.304840 0.916515
304 0 1 0.000000 -2.631701 14.751562 2.607966
305 0 2 0.000000 -2.930823 15.569912 2.159277
306 0 2 0.000000 -1.838983 14.387337 2.117735
307 0 1 0.000000 -4.152413 20.346222 0.740109
308 0 2 0.000000 -3.272705 20.162064 1.162928
309 0 2 0.000000 -4.432175 19.712297 0.100940
310 0 1 0.000000 -4.391642 12.713582 3.462913
311 0 2 0.000000 -3.763840 13.337656 3.045928
312 0 2 0.000000 -3.917213 12.222485 4.176180
313 0 1 0.000000 -9.858395 14.902802 5.247993
314 0 2 0.000000 -10.016205 14.752879 4.291308
315 0 2 0.000000 -9.802252 15.873742 5.235389
316 0 1 0.000000 -3.395363 16.958548 1.357672
317 0 2 0.000000 -2.752574 17.687998 1.258814
318 0 2 0.000000 -4.355349 17.293470 1.488309
319 0 1 0.000000 -0.893808 12.031837 4.013688
320 0 2 0.000000 -1.731880 11.882010 4.493512
321 0 2 0.000000 -1.073030 12.336863 3.169969
322 0 1 0.000000 -7.690690 16.431599 3.338008
323 0 2 0.000000 -7.461660 15.496332 3.545504
324 0 2 0.000000 -8.369569 16.721722 3.907067
325 0 1 0.000000 1.284835 10.577761 4.700111
326 0 2 0.000000 1.478643 11.109383 5.453371
327 0 2 0.000000 0.474926 11.004384 4.352392
328 0 1 0.000000 2.261646 18.049103 1.917782
329 0 2 0.000000 1.526714 17.398666 2.035788
330 0 2 0.000000 1.804277 18.746580 1.406022
331 0 1 0.000000 7.870195 16.248802 0.238544
332 0 2 0.000000 7.522800 15.340795 0.107329
333 0 2 0.000000 7.848714 16.352097 1.216428
334 0 1 0.000000 0.825149 14.138688 4.578482
335 0 2 0.000000 0.206629 13.367836 4.641592
336 0 2 0.000000 1.602456 13.756431 4.179909
337 0 1 0.000000 -1.597080 19.147095 1.611424
338 0 2 0.000000 8.014297 -1.882352 2.384248
339 0 2 0.000000 -0.953218 19.219381 0.911202
340 0 1 0.000000 5.090666 14.587287 2.746064
341 0 2 0.000000 4.835062 15.442656 2.358502
342 0 2 0.000000 5.807774 14.312923 2.180745
343 0 1 0.000000 13.286064 -0.774786 1.344950
344 0 2 0.000000 14.137336 -1.211677 1.609759
345 0 2 0.000000 3.933814 20.015806 0.532719
346 0 1 0.000000 3.123392 12.958940 3.735234
347 0 2 0.000000 3.807956 13.486208 3.228610
348 0 2 0.000000 3.698991 12.370194 4.293073
349 0 1 0.000000 -2.228528 14.801596 5.293267
350 0 2 0.000000 -2.284747 14.848475 4.307653
351 0 2 0.000000 -2.193407 15.717348 5.494954
352 0 1 0.000000 4.685771 16.932241 1.341394
353 0 2 0.000000 5.330972 17.667852 1.469682
354 0 2 0.000000 3.784912 17.373552 1.230536
355 0 1 0.000000 6.698353 11.994025 3.863714
356 0 2 0.000000 6.086545 11.934237 4.617052
357 0 2 0.000000 6.208202 11.769464 3.039513
358 0 1 0.000000 0.163919 16.625244 3.381394
359 0 2 0.000000 0.261847 15.759933 3.865673
360 0 2 0.000000 -0.581708 17.053411 3.764121
361 0 1 0.000000 8.790634 10.255750 4.746021
362 0 2 0.000000 9.176355 11.063083 5.147300
363 0 2 0.000000 7.891528 10.450435 4.491488
364 0 1 0.000000 9.752215 18.307463 1.984518
365 0 2 0.000000 9.269285 17.548494 2.312711
366 0 2 0.000000 9.165306 18.778131 1.467725
367 0 1 0.000000 14.994223 15.953724 0.318275
368 0 2 0.000000 15.009236 14.966408 0.452923
369 0 2 0.000000 15.196335 16.264563 1.207324
370 0 1 0.000000 8.372390 14.132819 4.061667
371 0 2 0.000000 7.739796 13.437799 3.931525
372 0 2 0.000000 9.208640 13.711928 3.791971
373 0 1 0.000000 6.425617 18.838751 2.065680
374 0 2 0.000000 15.923126 -2.281122 2.996438
375 0 2 0.000000 7.142954 19.025879 1.435090
376 0 1 0.000000 12.833415 14.547869 2.589415
377 0 2 0.000000 12.688526 15.356159 2.042909
378 0 2 0.000000 13.571968 14.094537 2.086934
379 0 1 0.000000 11.918407 20.633881 0.736090
380 0 2 0.000000 12.783576 20.210823 1.079237
381 0 2 0.000000 2.382924 6.159653 16.299013
382 0 1 0.000000 10.999430 12.890652 3.568887
383 0 2 0.000000 11.647267 13.509076 3.155173
384 0 2 0.000000 11.417630 12.467481 4.320765
385 0 1 0.000000 5.551607 14.805484 5.352056
386 0 2 0.000000 5.317361 14.658115 4.429236
387 0 2 0.000000 5.641026 15.746710 5.341273
388 0 1 0.000000 12.052559 16.702749 1.128019
389 0 2 0.000000 12.699527 17.459034 1.047838
390 0 2 0.000000 11.232553 17.157509 1.326910
391 0 1 0.000000 14.317537 11.813169 3.704097
392 0 2 0.000000 13.721031 11.912288 4.522722
393 0 2 0.000000 13.636902 11.560469 3.000134
394 0 1 0.000000 7.939540 16.483244 3.103016
395 0 2 0.000000 8.177503 15.549564 3.278014
396 0 2 0.000000 7.187451 16.682848 3.748329
397 0 1 0.000000 16.788841 10.565877 4.603232
398 0 2 0.000000 16.994011 11.244189 5.281574
399 0 2 0.000000 15.906091 10.782881 4.296136
400 0 1 0.000000 17.391508 18.232019 1.964037
401 0 2 0.000000 16.747234 17.596552 2.352278
402 0 2 0.000000 16.891937 18.730381 1.275103
403 0 1 0.000000 22.660749 16.038763 0.591463
404 0 2 0.000000 22.661963 15.065601 0.595922
405 0 2 0.000000 -8.024508 16.309261 1.458434
406 0 1 0.000000 16.117586 13.838983 4.135447
407 0 2 0.000000 15.543752 13.100503 3.927406
408 0 2 0.000000 17.009176 13.413404 4.155335
409 0 1 0.000000 13.875935 18.960600 1.373870
410 0 2 0.000000 14.291162 19.345518 2.187253
411 0 2 0.000000 14.590672 18.811529 0.743187
412 0 1 0.000000 20.533070 14.311056 2.537609
413 0 2 0.000000 20.318230 15.193904 2.138518
414 0 2 0.000000 21.369925 14.032592 2.074011
415 0 1 0.000000 19.343569 20.430290 0.944570
416 0 2 0.000000 20.205727 19.960293 1.133721
417 0 2 0.000000 18.937664 19.906443 0.229748
418 0 1 0.000000 18.696991 12.837185 3.680898
419 0 2 0.000000 19.315023 13.394994 3.149484
420 0 2 0.000000 19.226286 12.341869 4.353745
421 0 1 0.000000 13.400568 14.961437 5.194653
422 0 2 0.000000 13.212887 14.961838 4.172548
423 0 2 0.000000 13.751063 15.832546 5.317310
424 0 1 0.000000 19.810369 16.863695 1.378859
425 0 2 0.000000 20.318716 17.718664 1.310753
426 0 2 0.000000 18.871691 17.092466 1.330835
427 0 1 0.000000 21.989347 12.045424 4.023387
428 0 2 0.000000 21.353733 12.018222 4.778364
429 0 2 0.000000 21.425039 11.875237 3.236120
430 0 1 0.000000 15.636739 16.214239 2.816653
431 0 2 0.000000 16.043741 15.360476 3.050146
432 0 2 0.000000 15.031425 16.455948 3.544787
433 0 1 0.000000 -12.651168 12.637488 9.879560
434 0 2 0.000000 -3.308695 -8.014437 10.496887
435 0 2 0.000000 -13.436564 12.939469 9.399087
436 0 1 0.000000 -2.712055 -0.904378 7.377599
437 0 2 0.000000 -3.472694 -1.336493 7.858645
438 0 2 0.000000 -3.099303 -0.256033 6.796089
439 0 1 0.000000 2.546032 -2.791149 5.577274
440 0 2 0.000000 2.578727 -3.723604 5.554631
441 0 2 0.000000 2.650214 -2.588241 6.553830
442 0 1 0.000000 -4.013608 -4.683074 9.261969
443 0 2 0.000000 -4.591619 -5.487195 9.277247
444 0 2 0.000000 -3.085135 -5.050313 9.350909
445 0 1 0.000000 -6.374764 0.329269 7.241505
446 0 2 0.000000 -5.952075 0.688401 7.992846
447 0 2 0.000000 -5.665657 0.212177 6.579476
448 0 1 0.000000 0.303489 -4.803556 7.868538
449 0 2 0.000000 0.147900 -3.849883 7.637832
450 0 2 0.000000 1.033481 -5.075579 7.241043
451 0 1 0.000000 -0.810225 1.543794 6.269482
452 0 2 0.000000 -0.055311 1.082423 6.629191
453 0 2 0.000000 -1.081434 1.197366 5.394064
454 0 1 0.000000 -1.508683 -6.386131 9.013502
455 0 2 0.000000 -0.750967 -6.171627 8.487275
456 0 2 0.000000 -1.095761 -6.975258 9.648765
457 0 1 0.000000 -6.963765 -3.955622 10.562239
458 0 2 0.000000 23.920332 -4.326211 9.653409
459 0 2 0.000000 -7.072692 -3.017524 10.412005
460 0 1 0.000000 -0.091335 -1.865121 6.726816
461 0 2 0.000000 0.576077 -1.200911 6.846056
462 0 2 0.000000 -0.994101 -1.532573 6.990854
463 0 1 0.000000 1.955190 -7.058325 9.534413
464 0 2 0.000000 1.275179 -7.338375 10.147040
465 0 2 0.000000 1.673134 -7.257636 8.634061
466 0 1 0.000000 -4.844840 -2.462796 8.137389
467 0 2 0.000000 -4.711044 -3.337523 8.406621
468 0 2 0.000000 -5.323740 -2.000930 8.865179
469 0 1 0.000000 4.271693 -8.527413 10.418947
470 0 2 0.000000 4.534101 -7.819732 11.059859
471 0 2 0.000000 3.444470 -8.202836 10.012951
472 0 1 0.000000 5.034948 -0.757266 7.038083
473 0 2 0.000000 4.367060 -1.290900 7.494170
474 0 2 0.000000 4.558651 -0.187210 6.394905
475 0 1 0.000000 10.461932 -2.457219 5.987858
476 0 2 0.000000 10.557871 -3.393375 6.081498
477 0 2 0.000000 10.213584 -2.132963 6.856060
478 0 1 0.000000 3.577937 -4.882376 9.501022
479 0 2 0.000000 2.943186 -5.613526 9.691415
480 0 2 0.000000 4.459556 -5.278437 9.600376
481 0 1 0.000000 1.640080 0.307019 6.728708
482 0 2 0.000000 2.102504 0.481782 7.611135
483 0 2 0.000000 2.170851 0.493570 5.947165
484 0 1 0.000000 7.969871 -4.483204 8.018920
485 0 2 0.000000 7.743449 -3.566894 7.698599
486 0 2 0.000000 8.831676 -4.702090 7.551600
487 0 1 0.000000 7.016238 1.600422 6.292470
488 0 2 0.000000 7.844326 1.166507 6.565697
489 0 2 0.000000 6.749197 0.968214 5.590304
490 0 1 0.000000 6.141760 -6.151182 9.234208
491 0 2 0.000000 6.809074 -5.585734 8.825509
492 0 2 0.000000 6.592999 -6.522172 10.032182
493 0 1 0.000000 0.663341 -4.064506 10.524615
494 0 2 0.000000 0.524782 -4.217930 9.578839
495 0 2 0.000000 0.745000 -3.077846 10.480194
496 0 1 0.000000 7.644158 -1.834904 6.930087
497 0 2 0.000000 8.341177 -1.127904 7.010084
498 0 2 0.000000 6.787910 -1.432266 6.926954
499 0 1 0.000000 9.572902 -6.940615 9.614457
500 0 2 0.000000 8.913081 -7.297371 10.244650
501 0 2 0.000000 9.168738 -6.853289 8.715009
502 0 1 0.000000 3.120245 -2.367678 8.393658
503 0 2 0.000000 3.106475 -3.284025 8.708539
504 0 2 0.000000 2.340285 -1.907184 8.820974
505 0 1 0.000000 11.924306 -8.263269 10.127943
506 0 2 0.000000 12.326321 -7.682112 10.815920
507 0 2 0.000000 11.091067 -7.994856 9.794536
508 0 1 0.000000 13.010198 -1.119010 7.376483
509 0 2 0.000000 12.298620 -1.692904 7.736926
510 0 2 0.000000 12.574977 -0.566625 6.721463
511 0 1 0.000000 18.467596 -2.947642 5.569016
512 0 2 0.000000 18.355829 -3.909384 5.547507
513 0 2 0.000000 18.331570 -2.643322 6.500651
514 0 1 0.000000 11.461376 -4.848166 9.859861
515 0 2 0.000000 10.890420 -5.643094 9.949658
516 0 2 0.000000 12.390988 -5.162854 9.753054
517 0 1 0.000000 9.338001 0.426898 7.117091
518 0 2 0.000000 9.749119 0.692070 7.917448
519 0 2 0.000000 10.038351 0.433625 6.447555
520 0 1 0.000000 15.926432 -4.486214 8.220782
521 0 2 0.000000 15.792223 -3.769828 7.577068
522 0 2 0.000000 16.654760 -5.023966 7.835743
523 0 1 0.000000 14.751083 1.685201 6.348363
524 0 2 0.000000 15.666162 1.492048 6.678000
525 0 2 0.000000 14.564288 0.970474 5.680990
526 0 1 0.000000 13.945553 -6.072849 9.434885
527 0 2 0.000000 14.627340 -5.426911 9.151928
528 0 2 0.000000 14.459122 -6.629768 10.047340
529 0 1 0.000000 8.509907 -3.977015 10.723384
530 0 2 0.000000 8.380754 -4.179595 9.745157
531 0 2 0.000000 8.645592 -2.999848 10.664209
532 0 1 0.000000 15.566277 -2.198092 6.550932
533 0 2 0.000000 16.144909 -1.506749 6.213271
534 0 2 0.000000 14.627196 -1.746634 6.697400
535 0 1 0.000000 17.438982 -6.885981 9.620225
536 0 2 0.000000 16.759695 -7.215320 10.269733
537 0 2 0.000000 17.066742 -7.232795 8.765863
538 0 1 0.000000 10.696230 -2.538770 8.611403
539 0 2 0.000000 10.922465 -3.357556 9.101521
540 0 2 0.000000 10.046090 -2.028870 9.148175
541 0 1 0.000000 19.805195 -8.246250 10.367805
542 0 2 0.000000 20.090126 -7.646598 11.051211
543 0 2 0.000000 18.918337 -7.920467 10.031725
544 0 1 0.000000 20.716862 -0.469545 7.110623
545 0 2 0.000000 20.047958 -1.106946 7.505587
546 0 2 0.000000 20.209843 0.050588 6.510534
547 0 1 0.000000 25.776390 -2.605278 5.461383
548 0 2 0.000000 25.580940 -3.559259 5.562854
549 0 2 0.000000 26.016058 -2.320587 6.384267
550 0 1 0.000000 19.120871 -4.731019 9.536987
551 0 2 0.000000 18.457466 -5.391320 9.704229
552 0 2 0.000000 20.014397 -5.158642 9.459729
553 0 1 0.000000 17.078442 0.173098 6.784389
554 0 2 0.000000 17.566601 0.350752 7.565855
555 0 2 0.000000 17.684504 0.397158 6.049664
556 0 1 0.000000 23.648237 -4.690262 7.706157
557 0 2 0.000000 23.414465 -3.735868 7.550452
558 0 2 0.000000 24.237238 -5.053998 6.965069
559 0 1 0.000000 22.539669 2.055232 6.309519
560 0 2 0.000000 23.288092 1.496497 6.696331
561 0 2 0.000000 22.146677 1.504021 5.613253
562 0 1 0.000000 21.675880 -5.968847 9.045872
563 0 2 0.000000 22.421522 -5.526994 8.636092
564 0 2 0.000000 22.009363 -6.400152 9.854998
565 0 1 0.000000 16.492619 -3.867873 10.848365
566 0 2 0.000000 16.206547 -4.075264 9.915481
567 0 2 0.000000 16.709261 -2.875377 10.819209
568 0 1 0.000000 23.055225 -2.081205 6.689955
569 0 2 0.000000 23.858561 -1.617099 6.757905
570 0 2 0.000000 22.408459 -1.460610 7.018509
571 0 1 0.000000 -5.588102 -6.849109 9.510455
572 0 2 0.000000 24.612171 -6.899689 10.137910
573 0 2 0.000000 24.934002 -6.904315 8.661518
574 0 1 0.000000 18.662104 -2.311573 8.279352
575 0 2 0.000000 18.992910 -2.989610 8.915820
576 0 2 0.000000 17.987040 -1.795784 8.779229
577 0 1 0.000000 -6.778792 -1.216235 10.023371
578 0 2 0.000000 -6.345753 -0.550408 10.657800
579 0 2 0.000000 -7.588830 -0.708443 9.803710
580 0 1 0.000000 -5.478058 6.745286 7.610569
581 0 2 0.000000 -6.081206 6.060892 7.863225
582 0 2 0.000000 -5.925604 7.203193 6.879719
583 0 1 0.000000 -0.578692 4.084046 5.558207
584 0 2 0.000000 -0.483212 3.151895 5.822548
585 0 2 0.000000 -0.693384 4.530935 6.415143
586 0 1 0.000000 -7.022074 2.651928 9.523717
587 0 2 0.000000 -7.699822 1.968669 9.721743
588 0 2 0.000000 -6.121574 2.286534 9.507846
589 0 1 0.000000 -9.092706 6.851784 7.058831
590 0 2 0.000000 -8.558633 7.264751 7.744887
591 0 2 0.000000 -8.694432 7.379815 6.306774
592 0 1 0.000000 -2.716661 2.589587 8.074896
593 0 2 0.000000 -2.933841 3.531153 7.787187
594 0 2 0.000000 -1.934709 2.266890 7.633795
595 0 1 0.000000 -3.334479 8.732995 6.488315
596 0 2 0.000000 -2.552607 8.377319 6.847919
597 0 2 0.000000 -3.564059 8.143177 5.765473
598 0 1 0.000000 -4.645657 1.332170 9.425076
599 0 2 0.000000 -3.935578 1.767748 8.910769
600 0 2 0.000000 -4.221036 0.606988 9.959558
601 0 1 0.000000 -10.387478 3.382500 10.975415
602 0 2 0.000000 -10.216715 3.330644 10.063846
603 0 2 0.000000 -10.050194 4.203254 11.333081
604 0 1 0.000000 -3.267996 5.079465 7.029508
605 0 2 0.000000 -2.577189 5.764527 6.995661
606 0 2 0.000000 -4.043127 5.604453 7.212005
607 0 1 0.000000 -0.982955 0.103463 9.551764
608 0 2 0.000000 -1.645335 0.035592 10.267044
609 0 2 0.000000 -1.503668 -0.124158 8.767220
610 0 1 0.000000 -7.411632 4.726202 8.068652
611 0 2 0.000000 -7.383317 3.839270 8.455317
612 0 2 0.000000 -8.135676 5.139017 8.585140
613 0 1 0.000000 1.287078 -1.450380 10.016735
614 0 2 0.000000 1.599770 -0.853336 10.704402
615 0 2 0.000000 0.547646 -0.935017 9.625601
616 0 1 0.000000 2.077347 6.493260 7.079421
617 0 2 0.000000 1.251223 6.304628 7.497641
618 0 2 0.000000 1.873262 7.045644 6.287846
619 0 1 0.000000 7.360945 4.539187 5.600158
620 0 2 0.000000 7.416829 3.597754 5.828641
621 0 2 0.000000 7.461139 4.954255 6.448954
622 0 1 0.000000 0.762051 2.580611 9.786723
623 0 2 0.000000 0.247092 1.760113 9.749298
624 0 2 0.000000 1.662918 2.265426 9.527043
625 0 1 0.000000 -1.272223 6.891848 6.852852
626 0 2 0.000000 -0.898818 7.052924 7.757834
627 0 2 0.000000 -0.672456 7.436252 6.323527
628 0 1 0.000000 4.863588 2.542268 7.697740
629 0 2 0.000000 4.748375 3.456379 7.455903
630 0 2 0.000000 5.634964 2.251699 7.161196
631 0 1 0.000000 3.805779 8.898471 6.202869
632 0 2 0.000000 4.664933 8.778782 6.670567
633 0 2 0.000000 3.805195 8.182980 5.510798
634 0 1 0.000000 3.001007 1.135207 9.097134
635 0 2 0.000000 3.708795 1.522124 8.591651
636 0 2 0.000000 3.531955 0.661749 9.817764
637 0 1 0.000000 -2.349880 3.372463 11.093201
638 0 2 0.000000 -2.698890 2.996714 10.264550
639 0 2 0.000000 -2.057065 4.245729 10.959777
640 0 1 0.000000 4.271640 4.941873 6.448554
641 0 2 0.000000 4.924885 5.680245 6.640726
642 0 2 0.000000 3.376500 5.210755 6.824452
643 0 1 0.000000 6.626862 0.089370 9.354743
644 0 2 0.000000 6.022308 0.018036 10.151431
645 0 2 0.000000 6.016567 0.080028 8.636539
646 0 1 0.000000 0.038940 4.975946 8.427649
647 0 2 0.000000 0.280039 4.147671 8.907628
648 0 2 0.000000 -0.558723 5.303253 9.086518
649 0 1 0.000000 8.701754 -1.346135 10.365290
650 0 2 0.000000 8.950991 -0.824943 11.135081
651 0 2 0.000000 8.039923 -0.877646 9.884484
652 0 1 0.000000 9.854791 6.259790 7.502102
653 0 2 0.000000 9.120365 5.828803 8.048985
654 0 2 0.000000 9.499410 6.538862 6.627323