LAMMPS data file via write_data, version 23 Jun 2022, timestep = 1000000

1296 atoms
2 atom types

0.14988867161124908 30.9701103283888 xlo xhi
0.03138588022875588 21.437248119770636 ylo yhi
0.06478302303221284 16.329389976968052 zlo zhi
-9.144197354304563 -9.195753473925592 -13.95508662699775 xy xz yz

Masses

1 1.008
2 15.999

Atoms # full

1 0 1 0 -0.45365559662646104 -3.878257612118205 4.839478428388316 0 0 0
2 0 2 0 -0.4176212380935036 -3.1475584844405313 5.4725876651633625 0 0 0
3 0 2 0 -1.2499219477608394 -3.647822510198136 4.364659904549108 0 0 0
4 0 1 0 0.24738130248337886 3.9757153325384174 1.9442217111919156 0 0 0
5 0 2 0 -0.43943400645621744 3.429558792316366 2.3944142243492372 0 0 0
6 0 2 0 -0.14491857290288868 4.52990129918474 1.285234532185301 0 0 0
7 0 1 0 5.943458620430974 1.7099374166057537 0.3660272902097756 0 0 0
8 0 2 0 5.629389079679383 0.8308849453077958 0.13465722357939308 0 0 0
9 0 2 0 5.903946350975705 1.849379116383765 1.3838819417099137 0 0 0
10 0 1 0 -1.5122061295878628 -0.003892113707018474 3.904324174663973 0 0 0
11 0 2 0 -2.1734132487619453 -0.6843067166605228 4.007470447648758 0 0 0
12 0 2 0 -0.644075344103179 -0.4526027464906197 3.9442146846512327 0 0 0
13 0 1 0 -3.0986770619728006 5.242100474239201 1.5949885571058589 0 0 0
14 0 2 0 -2.7087059515629037 5.451414272557084 2.4978402831593147 0 0 0
15 0 2 0 -2.4648002266047775 5.591415909334336 0.9309025510101244 0 0 0
16 0 1 0 3.083438877919415 0.32771021460637995 2.355025321868407 0 0 0
17 0 2 0 2.9559398094425426 1.2583768013608172 2.0189333299694256 0 0 0
18 0 2 0 3.7353542507584483 -0.0688721470417315 1.6929431167739633 0 0 0
19 0 1 0 2.1740992901253207 6.282920585995751 0.84609494450574 0 0 0
20 0 2 0 3.039609610783069 6.1144123628315805 1.215914526608317 0 0 0
21 0 2 0 2.093273407647789 5.591698781413863 0.15592333911876777 0 0 0
22 0 1 0 1.1075805632410796 -1.2750205903631895 3.5477251588206733 0 0 0
23 0 2 0 1.8462780946476156 -0.782625457902151 3.1343040717195625 0 0 0
24 0 2 0 1.524299714742845 -1.7753529645583124 4.260186298406077 0 0 0
25 0 1 0 -3.963864329144389 0.7123056502285401 5.751515215706979 0 0 0
26 0 2 0 -4.008905304953373 0.34626462576304284 4.897668425142361 0 0 0
27 0 2 0 -3.876422118216972 1.6852175577290032 5.618005273475169 0 0 0
28 0 1 0 2.832683443088552 2.805161982109269 1.4095876513554515 0 0 0
29 0 2 0 3.504882983627983 3.542109748027373 1.2721573861349742 0 0 0
30 0 2 0 2.0431741633699994 3.1417133753779902 1.8268581047653139 0 0 0
31 0 1 0 4.801534629906808 -2.2936154191611435 4.0613605986601415 0 0 0
32 0 2 0 4.157569854792637 -2.2948204865263255 4.770684577142646 0 0 0
33 0 2 0 4.227105433665778 -2.584643125394151 3.3179787873955315 0 0 0
34 0 1 0 -1.980179153467561 2.3805136633193564 2.9633462645117197 0 0 0
35 0 2 0 -1.7272096378337147 1.4511945634973191 3.159420208742133 0 0 0
36 0 2 0 -2.6193760965047463 2.6404384602659543 3.6884314705556687 0 0 0
37 0 1 0 6.990203471595656 -3.8807791475884392 5.099387204990124 0 0 0
38 0 2 0 7.372634159647333 -3.160869004667907 5.6136733466052195 0 0 0
39 0 2 0 6.322412107037502 -3.4353028501138003 4.523023567074297 0 0 0
40 0 1 0 8.20850189313031 3.935393222775529 2.015296567144166 0 0 0
41 0 2 0 7.518725858256204 3.415306155269431 2.5139436615692294 0 0 0
42 0 2 0 7.649814986763213 4.254966736630133 1.2838144553298085 0 0 0
43 0 1 0 13.528340552093415 1.7045803755023763 0.33702940076353444 0 0 0
44 0 2 0 13.529697878815531 0.7421460739723554 0.4511803903524235 0 0 0
45 0 2 0 13.539469225956141 2.14322038328971 1.1684988149484223 0 0 0
46 0 1 0 6.64132208072955 -0.14196703083476203 4.359142895712263 0 0 0
47 0 2 0 6.005670554991115 -0.8485820543866751 4.5383230611554595 0 0 0
48 0 2 0 7.557235828128556 -0.3929655230660938 4.25855010357384 0 0 0
49 0 1 0 4.415737111082933 4.897225787820626 1.325749169569475 0 0 0
50 0 2 0 4.912426545629646 4.927748887392575 2.214571296889833 0 0 0
51 0 2 0 5.149758591741499 4.98572174047867 0.7088104682841102 0 0 0
52 0 1 0 11.071099144237898 0.3144825004250449 2.982906763881211 0 0 0
53 0 2 0 11.002951193886899 1.147724375178175 2.520385958374526 0 0 0
54 0 2 0 11.876914072791251 -0.09812061449988763 2.7188318334908814 0 0 0
55 0 1 0 10.177873790538072 6.250156459080095 0.9927259380678952 0 0 0
56 0 2 0 11.002862014051123 5.954721547577682 1.453226696550095 0 0 0
57 0 2 0 9.967487955448165 5.5739454846152094 0.3559619347984576 0 0 0
58 0 1 0 8.967971819000644 -1.107568774189041 3.8332290076162274 0 0 0
59 0 2 0 9.641688944831628 -0.5783522178468092 3.299439711159407 0 0 0
60 0 2 0 9.52665301161062 -1.6780920483478026 4.376613211589615 0 0 0
61 0 1 0 3.632006952047299 0.6685258521014834 5.082068187360406 0 0 0
62 0 2 0 3.5792567562208233 0.48064997123092335 4.159437710876705 0 0 0
63 0 2 0 3.749942690006494 1.6445153250700564 5.083619135962047 0 0 0
64 0 1 0 10.602019720752198 2.7302190949877483 1.7897581420642992 0 0 0
65 0 2 0 11.283824236414665 3.392517941816285 1.7337874007551084 0 0 0
66 0 2 0 9.677600667441599 3.093318308712239 1.5862518341076977 0 0 0
67 0 1 0 12.656027401213716 -2.544258369543453 4.167609427775508 0 0 0
68 0 2 0 11.978428745757828 -2.715504806248813 4.8534574473380285 0 0 0
69 0 2 0 3.035268804034634 18.548796206271113 3.325690148861199 0 -1 0
70 0 1 0 6.231143420208721 2.2365807308998704 3.0883799471848747 0 0 0
71 0 2 0 6.240350781733547 1.33344208400935 3.477641053962061 0 0 0
72 0 2 0 5.498044084075065 2.7522415143030634 3.5203580805743937 0 0 0
73 0 1 0 14.80366547526653 -4.017161824143317 4.829239846315154 0 0 0
74 0 2 0 15.117840274807772 -3.2943302267172005 5.404442069028245 0 0 0
75 0 2 0 13.971323368251737 -3.6603368647584578 4.414451052581306 0 0 0
76 0 1 0 15.850503508733583 3.5841265755104335 1.7000513057281443 0 0 0
77 0 2 0 15.14166847573043 3.243518214323317 2.279585723527834 0 0 0
78 0 2 0 15.424139952374563 4.199227918974249 1.0725174503032078 0 0 0
79 0 1 0 12.058737594231738 -12.136699234244265 16.264136023620313 0 0 -1
80 0 2 0 21.204731253574693 0.8534846243023777 0.2236784400006233 0 0 0
81 0 2 0 21.010472549574978 2.063486328446213 0.9208786287388325 0 0 0
82 0 1 0 14.375557837148843 -0.21734900718174943 4.239180755260667 0 0 0
83 0 2 0 13.74646951996539 -0.9689984587166416 4.369849794505139 0 0 0
84 0 2 0 15.316165611384244 -0.493225110741188 4.058581073086227 0 0 0
85 0 1 0 12.592203923014317 4.621279915471035 1.6155184924209018 0 0 0
86 0 2 0 13.112902797343668 4.991781798724324 2.4491377808699326 0 0 0
87 0 2 0 13.239718469837413 4.720628001179463 0.9036218351733281 0 0 0
88 0 1 0 18.7434493966529 0.1206681523681481 2.650467033125667 0 0 0
89 0 2 0 18.39355735209029 0.9465977394520564 2.2307926514842737 0 0 0
90 0 2 0 19.465824241460055 -0.17844633534473586 2.0124141213781677 0 0 0
91 0 1 0 18.072252728762138 6.5354293716740255 0.8432413936084853 0 0 0
92 0 2 0 18.74371510101767 6.194781327874338 1.4860842872659927 0 0 0
93 0 2 0 17.746153097749996 5.732398021157399 0.3636461595529044 0 0 0
94 0 1 0 16.92715339846869 -1.318458854933748 4.02731813458216 0 0 0
95 0 2 0 17.496445217967796 -0.8897354010686467 3.327839899608472 0 0 0
96 0 2 0 17.44981157878658 -2.0616087767574696 4.402245591451964 0 0 0
97 0 1 0 11.600174020865582 0.728788146972974 5.618765444468066 0 0 0
98 0 2 0 11.553814857486596 0.6484971195130362 4.655329418147102 0 0 0
99 0 2 0 11.71167690280611 1.6817950968824498 5.692995757475364 0 0 0
100 0 1 0 18.236064412469013 2.3506678685656537 1.5341309156083016 0 0 0
101 0 2 0 18.879203689205923 3.0780921008224205 1.7031058461875481 0 0 0
102 0 2 0 17.315894615582714 2.7419633898741465 1.437634290904513 0 0 0
103 0 1 0 20.529472759735476 -2.3333030591638195 4.101614605696799 0 0 0
104 0 2 0 19.942217952446313 -2.560164963852799 4.855850588205535 0 0 0
105 0 2 0 20.074037245988272 -2.473035930110852 3.2930371816639967 0 0 0
106 0 1 0 13.624977738256026 2.1967807323564665 2.975487743396917 0 0 0
107 0 2 0 14.07739243925426 1.4736427022173992 3.4329472666476204 0 0 0
108 0 2 0 13.054761126468332 2.5766889665803614 3.6734191809145025 0 0 0
109 0 1 0 13.784513488028638 17.71108154972999 4.222413711723703 0 -1 0
110 0 2 0 23.018008836440906 -3.0964915194091245 4.994931485058622 0 0 0
111 0 2 0 12.939136433899213 17.984330604067843 3.867256249625286 0 -1 0
112 0 1 0 23.88187540081188 3.779166562590944 1.6064523044417376 0 0 0
113 0 2 0 23.178152036872724 3.197713897978929 2.066664659745809 0 0 0
114 0 2 0 23.414236386053886 4.40202470344687 0.9952793573034434 0 0 0
115 0 1 0 29.13934753938173 1.7283964065481694 0.28739774873399426 0 0 0
116 0 2 0 28.936757300921748 0.7889016423416546 0.4522132589881518 0 0 0
117 0 2 0 -1.7468652625057812 2.123192341237373 1.1699694192363106 1 0 0
118 0 1 0 22.333883710471667 0.1769064904786939 4.148709971257371 0 0 0
119 0 2 0 21.72577606388777 -0.5728121398565702 4.1156043238277285 0 0 0
120 0 2 0 23.23652067724096 -0.14627728996507905 3.822022617140553 0 0 0
121 0 1 0 20.028644911800235 4.727341930002751 1.6248106376699816 0 0 0
122 0 2 0 20.52289185147466 4.947030491229606 2.473759924382309 0 0 0
123 0 2 0 20.684637621449333 4.9982340048231855 0.9678477785923668 0 0 0
124 0 1 0 26.698767694639628 0.4075421270373716 2.701912062248247 0 0 0
125 0 2 0 26.679881018263572 1.2344455667403889 2.208946314414883 0 0 0
126 0 2 0 27.367093232583002 -0.10135576646562328 2.1227132689671344 0 0 0
127 0 1 0 25.4321901312164 6.164930625941647 1.038438067774667 0 0 0
128 0 2 0 26.28460770243381 5.884867141437151 1.394471448971581 0 0 0
129 0 2 0 25.268824891847196 5.480122435371876 0.34382682179397045 0 0 0
130 0 1 0 24.612526604503877 -0.9117868308627488 3.4743587043644117 0 0 0
131 0 2 0 25.453150808720608 -0.5303536309831625 3.109933189753605 0 0 0
132 0 2 0 24.766177489399617 -1.6398210525233692 4.0891955250001875 0 0 0
133 0 1 0 19.195574580991888 0.9214746721942522 5.102570796608529 0 0 0
134 0 2 0 19.17497037562856 0.5367775210835504 4.2026700897982945 0 0 0
135 0 2 0 19.344068928589707 1.8966659369378807 5.080065710992421 0 0 0
136 0 1 0 26.436187983671076 2.957732286140983 1.2613613910123669 0 0 0
137 0 2 0 27.075691790006147 3.649150746761669 1.3313491652768854 0 0 0
138 0 2 0 25.53594052587954 3.2686628560761903 1.070019977452547 0 0 0
139 0 1 0 28.090071462239976 -2.6396609892935357 4.007508671094828 0 0 0
140 0 2 0 27.395988032486706 -2.6940481585748293 4.674090348561349 0 0 0
141 0 2 0 27.55202016823568 -2.639055838807735 3.206879604157358 0 0 0
142 0 1 0 21.518353017541664 2.257061659740128 2.696825810061601 0 0 0
143 0 2 0 21.958723189959514 1.4351416045060854 3.123691103615014 0 0 0
144 0 2 0 20.97039976223744 2.4945544868851233 3.437480217466053 0 0 0
145 0 1 0 -3.8872131386659703 3.464147087738903 4.824651228024278 0 0 0
146 0 2 0 -3.466519605364202 4.095244447950831 5.413361913908877 0 0 0
147 0 2 0 -4.690537473145516 3.9916535632523202 4.476146271382728 0 0 0
148 0 1 0 -2.3655762225349606 11.284744805064314 1.775611372947888 0 0 0
149 0 2 0 -2.9585725883428653 10.866192151447583 2.4176583713944937 0 0 0
150 0 2 0 -2.9819932891234346 11.495679201855669 1.026606042520318 0 0 0
151 0 1 0 -6.5622119756892 -4.871799506514824 16.269301494796792 0 0 -1
152 0 2 0 -6.558213714161842 -5.830102282355402 16.213238339115712 0 0 -1
153 0 2 0 2.88445652832328 9.351248784934892 0.8736166026831186 0 0 0
154 0 1 0 -4.179301060732826 7.175310165703293 4.1616744122792095 0 0 0
155 0 2 0 -4.880995042431179 6.477913961020301 4.152125003282213 0 0 0
156 0 2 0 -3.3967162557270405 6.691730211420043 4.03958868015194 0 0 0
157 0 1 0 -6.171642220721712 12.110596701573405 1.3711638220305253 0 0 0
158 0 2 0 -5.599326395876037 12.276104949685198 2.148807541424318 0 0 0
159 0 2 0 -5.609687295080875 12.333888348774963 0.6144771984815073 0 0 0
160 0 1 0 0.2176531711031362 7.429388023896246 2.524203343184252 0 0 0
161 0 2 0 -0.16722528846506113 8.196199070460965 2.045263257551743 0 0 0
162 0 2 0 0.8853435743691753 7.0407964315602385 1.8826465755569615 0 0 0
163 0 1 0 -0.5712367903888513 13.562349312682759 1.1450267251227848 0 0 0
164 0 2 0 0.37370398268751104 13.274789397861152 1.4322085180851511 0 0 0
165 0 2 0 -0.907133609153723 12.955776287037082 0.47920651716703794 0 0 0
166 0 1 0 -1.574948204426018 5.731595323472253 3.6852129862687035 0 0 0
167 0 2 0 -0.8083022243481199 6.220892263667099 3.3222653170192515 0 0 0
168 0 2 0 -1.2675636307049936 4.93030160626118 4.122787704002672 0 0 0
169 0 1 0 -6.952899349238744 8.116612209170873 5.615766511951939 0 0 0
170 0 2 0 -6.87171301805083 7.980189568824089 4.628931300447611 0 0 0
171 0 2 0 -6.585725736321487 9.02491365660254 5.638793702586342 0 0 0
172 0 1 0 -0.05785062640747696 10.054763154686423 1.2522572732346504 0 0 0
173 0 2 0 0.7177093119293521 10.621905248384804 1.4858583168873534 0 0 0
174 0 2 0 -0.8430525866694006 10.637696554795617 1.2472980286584752 0 0 0
175 0 1 0 1.5879199219513778 5.010587944261559 4.101990283201887 0 0 0
176 0 2 0 0.861337813369289 4.8548651175536355 4.709896731682762 0 0 0
177 0 2 0 1.1909894757268662 4.8472789676121195 3.2621006347040353 0 0 0
178 0 1 0 -4.627652806873595 9.876044623367905 3.1622058766265786 0 0 0
179 0 2 0 -4.678678553109732 8.970435104175154 3.515360185571955 0 0 0
180 0 2 0 -5.488576079052752 10.31346743991141 3.374444081056779 0 0 0
181 0 1 0 4.114583481701661 3.3392866122485922 4.346906512345099 0 0 0
182 0 2 0 4.356620229219012 4.1506023017130245 4.920972084676534 0 0 0
183 0 2 0 3.2655691137316265 3.6294914829606557 3.935425589217077 0 0 0
184 0 1 0 5.177540197637957 10.990566634030358 1.7625959844016632 0 0 0
185 0 2 0 4.4509397068657135 10.474755310416247 2.250638433338011 0 0 0
186 0 2 0 4.7409442875733925 11.614445887841056 1.1805713286372113 0 0 0
187 0 1 0 10.441114168694618 8.762121259762027 0.10881715689315605 0 0 0
188 0 2 0 10.34448571927454 7.774670808171705 0.2347936754382179 0 0 0
189 0 2 0 10.268939824160858 9.060498311875392 0.9917565098405074 0 0 0
190 0 1 0 3.2987486215036506 6.992745952181502 4.138692501987044 0 0 0
191 0 2 0 2.65585951178067 6.300228182193232 4.083627506121228 0 0 0
192 0 2 0 4.237852639948218 6.67096160336248 3.8723906455290016 0 0 0
193 0 1 0 1.806460065031556 11.927545965673605 1.6720279442844725 0 0 0
194 0 2 0 2.202713524060855 12.334507863629208 2.4385500420460176 0 0 0
195 0 2 0 2.346568512134067 12.025980149445889 0.8474934497610391 0 0 0
196 0 1 0 7.870173657488854 7.132316743409861 2.4418001996329304 0 0 0
197 0 2 0 7.769934861128125 8.056626810983152 2.1537527537519097 0 0 0
198 0 2 0 8.736838309438463 6.857150007568654 2.1538924891378466 0 0 0
199 0 1 0 6.895589797462043 13.774606865038898 0.8645476184069405 0 0 0
200 0 2 0 7.708302688069207 13.246537824756606 0.9933141895720554 0 0 0
201 0 2 0 6.33450616167259 13.198202425574744 0.3201040931592227 0 0 0
202 0 1 0 5.859352312545158 5.658810956416472 3.5821724228450798 0 0 0
203 0 2 0 6.489505015886131 6.335487786653485 3.2035213377763894 0 0 0
204 0 2 0 6.301793110105033 5.109805837359593 4.186718305426541 0 0 0
205 0 1 0 0.5411653504893774 8.073171646815304 5.264460500274748 0 0 0
206 0 2 0 0.5770936022618147 7.821426358938746 4.320595108787823 0 0 0
207 0 2 0 0.7119616251183079 9.052766931588929 5.238016567403864 0 0 0
208 0 1 0 7.7569674085074265 9.748240387357855 1.4184441136866734 0 0 0
209 0 2 0 8.442480088968223 10.430060271924473 1.4858094868068585 0 0 0
210 0 2 0 6.904293220712213 10.136160358503272 1.5135989885443928 0 0 0
211 0 1 0 9.753395768055297 5.023059137720139 4.09769321749313 0 0 0
212 0 2 0 9.006289547460568 5.089297149561547 4.688791302870233 0 0 0
213 0 2 0 9.333513754488392 4.706638538532759 3.2941762994391417 0 0 0
214 0 1 0 3.167433017769045 9.340779625550057 2.9153024469576083 0 0 0
215 0 2 0 2.98300690674822 8.439431052623156 3.1968074417801104 0 0 0
216 0 2 0 2.565917673784157 9.937039360160297 3.4064891852655594 0 0 0
217 0 1 0 11.8835097236503 3.236212756710651 4.703432617787787 0 0 0
218 0 2 0 12.238469955355539 3.980863393741613 5.2481135419876495 0 0 0
219 0 2 0 10.999536787028442 3.6319949028091445 4.482083919696997 0 0 0
220 0 1 0 12.577445265211638 10.83018838960458 1.7227149415941128 0 0 0
221 0 2 0 11.913762191036318 10.243856308541364 2.145811352536359 0 0 0
222 0 2 0 12.06189573575328 11.475088922783932 1.230185278572256 0 0 0
223 0 1 0 18.2821129744191 9.086888034743131 0.16675538860108371 0 0 0
224 0 2 0 18.19835350724363 8.090891820328451 0.19274038924634887 0 0 0
225 0 2 0 18.297588272582416 9.373570641681761 1.11664769365892 0 0 0
226 0 1 0 11.372307713206466 7.108751681342228 4.242440640683113 0 0 0
227 0 2 0 10.797520799312927 6.300947829553547 4.312253851525299 0 0 0
228 0 2 0 12.305522696547314 6.793421384137403 4.202353568738369 0 0 0
229 0 1 0 9.32487782460302 12.267957707970716 1.3140588818815715 0 0 0
230 0 2 0 9.794546894104617 12.354082275697822 2.1917822531011617 0 0 0
231 0 2 0 10.07026491309584 12.397876345665983 0.724405488714919 0 0 0
232 0 1 0 15.64823975595869 7.144017375804399 2.5687202168106227 0 0 0
233 0 2 0 15.526877320363893 8.043244012988366 2.235919255571006 0 0 0
234 0 2 0 16.536674381156253 6.93174884303324 2.2839044259380046 0 0 0
235 0 1 0 14.580120610281305 13.29752201409946 1.0158685472703968 0 0 0
236 0 2 0 15.415927364814344 12.899512538968324 1.3780296031333856 0 0 0
237 0 2 0 14.536115410286202 12.731176343582204 0.2194028375160822 0 0 0
238 0 1 0 13.738051238160237 5.780617246596334 3.788021869037617 0 0 0
239 0 2 0 14.445484705159732 6.260662920993534 3.384119300615234 0 0 0
240 0 2 0 14.189652094155864 5.18074581477225 4.412442899293307 0 0 0
241 0 1 0 8.223603167036687 7.27519320593117 5.0631796658213215 0 0 0
242 0 2 0 8.185584933487664 7.213694322779608 4.105555561324917 0 0 0
243 0 2 0 8.4289752713639 8.194345726474879 5.18026724455031 0 0 0
244 0 1 0 15.343681314302525 9.479409370457114 1.3747024906593568 0 0 0
245 0 2 0 15.923006692717342 10.199917261863087 1.6751811855671384 0 0 0
246 0 2 0 14.46876373510917 9.854308891786879 1.3119176503022265 0 0 0
247 0 1 0 17.17907156731745 4.832967896460982 4.110625495684211 0 0 0
248 0 2 0 16.566014389106932 4.4465310737743895 4.7118354206347 0 0 0
249 0 2 0 16.91976630822655 4.3853571710895825 3.238099313887836 0 0 0
250 0 1 0 10.477929891674538 9.238468842030532 2.917097330803867 0 0 0
251 0 2 0 10.785307931136293 8.381688803851835 3.286098937034508 0 0 0
252 0 2 0 9.927567779567278 9.689712973516174 3.5768429906074886 0 0 0
253 0 1 0 19.64761347193476 3.501293798097324 4.562986209878449 0 0 0
254 0 2 0 19.540735393740505 4.088373057223824 5.317632700868436 0 0 0
255 0 2 0 18.889343237035888 3.8272006932906653 4.086601085262505 0 0 0
256 0 1 0 20.50764505130782 11.249126699670466 1.9076947400911615 0 0 0
257 0 2 0 19.825718717740315 10.709461611331136 2.3421731171615363 0 0 0
258 0 2 0 20.04058214540042 11.739296834866355 1.2344862125036353 0 0 0
259 0 1 0 25.8107431785024 8.887947351550489 0.27264655559596085 0 0 0
260 0 2 0 25.35922183075683 8.069492358950663 0.4024069081524628 0 0 0
261 0 2 0 25.71361369724105 9.219756030381774 1.1922332176599633 0 0 0
262 0 1 0 19.0111908666195 6.95492208530886 4.12574541465429 0 0 0
263 0 2 0 18.312133538686858 6.336540549522224 4.380973100236142 0 0 0
264 0 2 0 19.79151735753419 6.399936645201743 3.9056650192362117 0 0 0
265 0 1 0 16.974786234730175 11.955342683629299 1.5257407898925435 0 0 0
266 0 2 0 17.45352039374344 12.151235725644923 2.321550812347677 0 0 0
267 0 2 0 17.641154175271765 12.119013345804982 0.8559382395430123 0 0 0
268 0 1 0 23.611141762121648 7.568818602602126 2.486277439558366 0 0 0
269 0 2 0 23.377543938247968 8.440438803274343 1.9858107982567286 0 0 0
270 0 2 0 24.449740237690364 7.158357895666848 2.1289902416157895 0 0 0
271 0 1 0 22.37063275393939 13.55558962697119 0.9411090170983564 0 0 0
272 0 2 0 23.1718463841786 13.07921763542253 1.2508747197880263 0 0 0
273 0 2 0 22.067552748563216 12.943431328752505 0.25636959067081055 0 0 0
274 0 1 0 21.569061768654095 6.08435420371416 3.4718911326535147 0 0 0
275 0 2 0 22.202995907436645 6.604088824547818 2.9293266138165444 0 0 0
276 0 2 0 22.021591758565414 5.6352520779062365 4.2376547412095995 0 0 0
277 0 1 0 15.936973735116226 7.985130700493121 5.34155713666907 0 0 0
278 0 2 0 15.874211889085723 7.612890164977115 4.4373256438050594 0 0 0
279 0 2 0 16.294970714286208 8.931907244603467 5.139732436500026 0 0 0
280 0 1 0 23.055127236949524 9.935292432641695 1.1168672125915187 0 0 0
281 0 2 0 23.709240745006802 10.701350370652685 1.1311492003454886 0 0 0
282 0 2 0 22.19614316024854 10.39210837223905 1.0675036594885126 0 0 0
283 0 1 0 25.007803391061884 5.039640977418317 4.057222622655955 0 0 0
284 0 2 0 24.23177831725205 4.769692780792619 4.619174913928518 0 0 0
285 0 2 0 24.655491460974716 4.752299519896788 3.1247070966371067 0 0 0
286 0 1 0 18.619131890510026 9.36724867793335 3.0039029734313236 0 0 0
287 0 2 0 18.62929532241315 8.444714803929806 3.224852160010988 0 0 0
288 0 2 0 17.95662070478638 9.834706534549099 3.547843285665115 0 0 0
289 0 1 0 -6.67251591473017 10.73779426195051 4.540948124846195 0 0 0
290 0 2 0 -6.315063913762048 11.362363863655073 5.148749371918104 0 0 0
291 0 2 0 -7.455440990663078 11.171833151890466 4.153754546406486 0 0 0
292 0 1 0 -5.832221834892649 17.832339174192676 2.0408350786015537 0 0 0
293 0 2 0 -6.44158268676299 17.550914365917677 2.7304785249838295 0 0 0
294 0 2 0 -6.251352260031498 18.48375952852033 1.44560746882731 0 0 0
295 0 1 0 -0.05408622827993459 16.13830215184184 0.3359185806822703 0 0 0
296 0 2 0 -0.3959184797563794 15.207565473500237 0.20154084413643722 0 0 0
297 0 2 0 -0.1326107947794528 16.210687608739043 1.2969107881323554 0 0 0
298 0 1 0 -6.840195501558657 14.046387915838382 4.014588009375839 0 0 0
299 0 2 0 -7.429237900581846 13.35021079477 4.2635608536600405 0 0 0
300 0 2 0 -5.946441421850647 13.746656773444098 3.8311480747394167 0 0 0
301 0 1 0 21.418977928979558 19.15992968804813 1.469338021109147 -1 0 0
302 0 2 0 -9.058711148025926 19.212171023900815 2.3675454671855447 0 0 0
303 0 2 0 -8.646600882930704 19.359046224297394 0.915643948094472 0 0 0
304 0 1 0 -2.6545980080068867 14.795768768113023 2.6054867538947213 0 0 0
305 0 2 0 -2.9516246336176364 15.615704827649088 2.1572240479651947 0 0 0
306 0 2 0 -1.8629138891080537 14.429830615659347 2.1157214785093266 0 0 0
307 0 1 0 -4.16882096027037 20.403022820333604 0.7394053479447071 0 0 0
308 0 2 0 -3.2949042732627474 20.218977539920424 1.161822334978832 0 0 0
309 0 2 0 -4.443377771741686 19.766427762218356 0.10084374144664013 0 0 0
310 0 1 0 -4.40658841714258 12.753456046498966 3.4596209596322263 0 0 0
311 0 2 0 -3.7809600833445285 13.378629849361454 3.0430319206448146 0 0 0
312 0 2 0 -3.936799879122942 12.262053160551735 4.172209630899622 0 0 0
313 0 1 0 -9.85861606022912 14.95127498133406 5.243003516630767 0 0 0
314 0 2 0 -10.011183397437962 14.799546070690054 4.287228735026268 0 0 0
315 0 2 0 -9.804261092264316 15.924857285392665 5.230411460057049 0 0 0
316 0 1 0 -3.412638166366877 17.00697264587778 1.3563816458925257 0 0 0
317 0 2 0 -2.7736746104019416 17.738274757480916 1.2576170132164493 0 0 0
318 0 2 0 -4.3691468856370355 17.343004912922297 1.486893692637407 0 0 0
319 0 1 0 -0.9268511308788727 12.07064734347529 4.0098726501014355 0 0 0
320 0 2 0 -1.7627926769560722 11.921108906508465 4.489239503006996 0 0 0
321 0 2 0 -1.101968611162066 12.375276618783904 3.1669551103722027 0 0 0
322 0 1 0 -7.695308582542975 16.481471264023853 3.334833990070576 0 0 0
323 0 2 0 -7.466779285144139 15.543947582914026 3.542132683360112 0 0 0
324 0 2 0 -8.373930231385708 16.773221502210717 3.9033525699883023 0 0 0
325 0 1 0 1.2406674304478535 10.61359115784575 4.6956420101919445 0 0 0
326 0 2 0 1.429343753035687 11.147766714246659 5.448185989747619 0 0 0
327 0 2 0 0.43548842806812216 11.040875289255984 4.348253549601603 0 0 0
328 0 1 0 2.2130084868433233 18.101331661315335 1.9159590708750929 0 0 0
329 0 2 0 1.4821326585312748 17.449287762290652 2.033852610228988 0 0 0
330 0 2 0 1.7589682906831603 18.79997173223952 1.4046851332682597 0 0 0
331 0 1 0 7.805052092691258 16.293650321982362 0.23831737235689945 0 0 0
332 0 2 0 7.461377368519376 15.382963449611335 0.10722719664696602 0 0 0
333 0 2 0 7.779171302279655 16.398653670605754 1.2152718710613797 0 0 0
334 0 1 0 0.777943533188179 14.184091579743308 4.574128460778956 0 0 0
335 0 2 0 0.16335759149929618 13.411221421278592 4.637178963673945 0 0 0
336 0 2 0 1.5539138580604899 13.800205709879394 4.175934625671689 0 0 0
337 0 1 0 -1.6276488877863007 19.201883754941512 1.6098923512195487 0 0 0
338 0 2 0 7.968375219576184 -1.8840262207179377 2.3819812352791696 0 1 0
339 0 2 0 -0.983885724579765 19.273345930041167 0.9103352063109346 0 0 0
340 0 1 0 5.030418695614667 14.631245312428558 2.743453021803261 0 0 0
341 0 2 0 4.776369465378897 15.488390662652522 2.356259484805172 0 0 0
342 0 2 0 5.747042750485229 14.35530497665742 2.1786715304880953 0 0 0
343 0 1 0 13.217693368887153 -0.7749439038770485 1.3436713262051614 0 1 0
344 0 2 0 14.064420332380237 -1.212645409402679 1.6082283269102677 0 1 0
345 0 2 0 3.880114059380278 20.0713989337886 0.5322121531634041 0 0 0
346 0 1 0 3.0708289149841614 12.999880565416545 3.7316832313151647 0 0 0
347 0 2 0 3.7535037690891384 13.52785424130506 3.2255406731306735 0 0 0
348 0 2 0 3.6421523705964796 12.410338319268648 4.288991585264854 0 0 0
349 0 1 0 -2.2653464898480458 14.849858661988335 5.288234859773998 0 0 0
350 0 2 0 -2.317001136256401 14.89542818931225 4.3035579234698735 0 0 0
351 0 2 0 -2.232772554983129 15.768412969762169 5.489729575595455 0 0 0
352 0 1 0 4.629886647979609 16.980569279907712 1.340118632309594 0 0 0
353 0 2 0 5.270234044949653 17.718381277668982 1.4682846941078402 0 0 0
354 0 2 0 3.7331214001034265 17.422927857145623 1.2293662520739859 0 0 0
355 0 1 0 6.629654693996255 12.032513163926373 3.8600407516117703 0 0 0
356 0 2 0 6.017534786198155 11.973660916703244 4.612662328745689 0 0 0
357 0 2 0 6.145872293685213 11.806134579568587 3.036623552182455 0 0 0
358 0 1 0 0.12115567952698769 16.67570872469676 3.3781795491315294 0 0 0
359 0 2 0 0.21787100608158738 15.808736453163194 3.8619974478823607 0 0 0
360 0 2 0 -0.6232913306292747 17.105607487965706 3.7605424208178526 0 0 0
361 0 1 0 8.71081767050004 10.290765354557399 4.741509060463198 0 0 0
362 0 2 0 9.091603157944734 11.100894279427395 5.142406008534902 0 0 0
363 0 2 0 7.816834635677899 10.485610991054926 4.487218488987325 0 0 0
364 0 1 0 9.666970293714348 18.360495825869904 1.9826313570072476 0 0 0
365 0 2 0 9.186130192267191 17.599928935849825 2.3105118751989764 0 0 0
366 0 2 0 9.084400516324484 18.83170202883214 1.4663297333628933 0 0 0
367 0 1 0 14.895067078688482 15.997880809242327 0.31797212376321227 0 0 0
368 0 2 0 14.911015193791012 15.00805536232657 0.45249256125021464 0 0 0
369 0 2 0 15.091765390473402 16.31086932301713 1.206176564121698 0 0 0
370 0 1 0 8.291321870304342 14.177452711301507 4.057805332133784 0 0 0
371 0 2 0 7.663465107627424 13.480339666620432 3.927786593877816 0 0 0
372 0 2 0 9.125441235724248 13.75501593820868 3.7883663220911896 0 0 0
373 0 1 0 6.355090105351935 18.89335865400154 2.0637161206782686 0 0 0
374 0 2 0 15.83723994541066 -2.2829946548391455 2.993588762479166 0 1 0
375 0 2 0 7.071483017973193 19.080078874832274 1.4337253844406905 0 0 0
376 0 1 0 12.736826206059627 14.591487941854071 2.5869532061711147 0 0 0
377 0 2 0 12.593741701010128 15.401195340093743 2.040967094611192 0 0 0
378 0 2 0 13.474800855215397 14.136183626669235 2.0849499585035334 0 0 0
379 0 1 0 11.824543373866149 20.69146373059632 0.735389710407691 0 0 0
380 0 2 0 12.68473060434728 20.267746980133204 1.0782114149412845 0 0 0
381 0 2 0 2.289229645899189 6.20031740896596 16.28351502666214 0 0 -1
382 0 1 0 10.909972993725303 12.93116509656071 3.5654938407473726 0 0 0
383 0 2 0 11.555538455107952 13.550678459597584 3.1521727537060924 0 0 0
384 0 2 0 11.323525574167189 12.507930614080742 4.316656652288923 0 0 0
385 0 1 0 5.47724142057866 14.853844627677335 5.346966931545825 0 0 0
386 0 2 0 5.248448777457174 14.704723231472007 4.425025137717139 0 0 0
387 0 2 0 5.564752531139629 15.79763199831431 5.336194397552243 0 0 0
388 0 1 0 11.962693308550694 16.750139151164745 1.1269469157475245 0 0 0
389 0 2 0 12.60569022554839 17.50837762783759 1.0468418398726678 0 0 0
390 0 2 0 11.144998840132576 17.20643143779055 1.3256488519806084 0 0 0
391 0 1 0 14.213331549950096 11.85092906589139 3.700574930376898 0 0 0
392 0 2 0 13.61589423796338 11.951513593201256 4.518422396562206 0 0 0
393 0 2 0 13.539487361414121 11.596508421291345 2.997282383935643 0 0 0
394 0 1 0 7.860979160957144 16.53291610041788 3.1000656773810493 0 0 0
395 0 2 0 8.09854316861381 15.596935731949328 3.274897852370027 0 0 0
396 0 2 0 7.109309734690539 16.73400761986234 3.7447650041054397 0 0 0
397 0 1 0 16.6708319964184 10.601532136081849 4.598855729944694 0 0 0
398 0 2 0 16.87091146093995 11.282693544086232 5.276552409967488 0 0 0
399 0 2 0 15.793318355778197 10.818683683129217 4.292051183476829 0 0 0
400 0 1 0 17.26986984386084 18.284817237901315 1.9621692743965218 0 0 0
401 0 2 0 16.627995157325316 17.648175401590954 2.3500420606361243 0 0 0
402 0 2 0 16.77494104816833 18.783538635627792 1.2738903541807802 0 0 0
403 0 1 0 22.523508318006193 16.083549798856055 0.5909004161849135 0 0 0
404 0 2 0 22.526276810757132 15.107730277622215 0.5953555661552282 0 0 0
405 0 2 0 -8.018993650782424 16.356053018004445 1.4570472170462878 1 0 0
406 0 1 0 15.999554807924632 13.882919596288874 4.131514958454994 0 0 0
407 0 2 0 15.430591109660748 13.142115111632183 3.9236718070793772 0 0 0
408 0 2 0 16.887474530666324 13.456203000164477 4.151384370152676 0 0 0
409 0 1 0 13.772579138415496 19.014530579768042 1.372564241885566 0 0 0
410 0 2 0 14.181582704766017 19.40169084761458 2.1851740974452403 0 0 0
411 0 2 0 14.486927846490655 18.86413167058589 0.7424803157898142 0 0 0
412 0 1 0 20.400196867839988 14.353953790907708 2.5351961054286765 0 0 0
413 0 2 0 20.186724709391214 15.238635702678646 2.1364849387162836 0 0 0