LAMMPS data file via MDAnalysis

         964  atoms
           0  bonds
           0  angles
           0  dihedrals
           0  impropers

           2  atom types
           0  bond types
           0  angle types
           0  dihedral types
           0  improper types

0.000000 30.957142 xlo xhi
0.000000 21.341127 ylo yhi
0.000000 36.861931 zlo zhi
-9.151336 -20.802219 -31.562393 xy xz yz


Masses

1 1.008000
2 15.999000

Atoms

1 0 1 0.000000 17.663637 -2.230969 5.061940
2 0 2 0.000000 17.286844 -3.145380 4.912724
3 0 2 0.000000 17.162878 -1.616660 4.568159
4 0 1 0.000000 -5.472925 -3.376882 8.846086
5 0 2 0.000000 -4.632407 -2.892072 8.999086
6 0 2 0.000000 -5.379479 -3.883593 8.027652
10 0 1 0.000000 -7.657995 -8.950032 12.430904
11 0 2 0.000000 -8.262800 -8.459228 12.932392
12 0 2 0.000000 -8.070978 -9.404196 11.676851
13 0 1 0.000000 -4.953970 -2.782861 13.240164
14 0 2 0.000000 -4.246161 -3.136346 13.676985
15 0 2 0.000000 -4.481443 -2.438821 12.428706
16 0 1 0.000000 2.143235 7.352555 8.621364
17 0 2 0.000000 2.438191 6.829424 9.411124
18 0 2 0.000000 1.219977 7.070652 8.365513
19 0 1 0.000000 -3.556424 0.206887 9.330216
20 0 2 0.000000 -2.922663 0.883760 9.620354
21 0 2 0.000000 -3.954648 0.394659 8.419373
22 0 1 0.000000 11.242353 -2.544867 12.154343
23 0 2 0.000000 12.074354 -2.143607 12.303386
24 0 2 0.000000 10.723658 -1.976397 11.519084
25 0 1 0.000000 -0.676027 -0.821187 11.129786
26 0 2 0.000000 0.281757 -0.673460 11.194548
27 0 2 0.000000 -1.087610 0.022245 11.109226
28 0 1 0.000000 14.856258 14.219690 4.634340
29 0 2 0.000000 14.008700 13.879572 4.955979
30 0 2 0.000000 15.236354 14.642458 5.383685
31 0 1 0.000000 -0.455087 6.636271 7.450269
32 0 2 0.000000 -0.329534 6.277961 6.580025
33 0 2 0.000000 -1.056319 5.994152 7.987129
34 0 1 0.000000 9.945173 -0.871882 5.541011
35 0 2 0.000000 10.137807 -0.727003 4.601184
36 0 2 0.000000 9.459526 -0.113276 5.811118
39 0 2 0.000000 8.312430 -2.369893 14.218799
40 0 1 0.000000 17.148880 12.136128 3.937772
41 0 2 0.000000 17.506264 12.314524 2.989804
42 0 2 0.000000 16.251745 12.564458 3.982497
43 0 1 0.000000 -2.928915 3.364037 12.426933
44 0 2 0.000000 -2.418047 4.117250 12.814139
45 0 2 0.000000 -2.843345 2.701247 13.105238
46 0 1 0.000000 -6.805675 -4.819841 13.083512
47 0 2 0.000000 -7.140551 -4.604450 12.200775
48 0 2 0.000000 -6.231636 -4.107962 13.353182
49 0 1 0.000000 2.137285 10.253477 8.945913
50 0 2 0.000000 1.936936 9.297885 8.900421
51 0 2 0.000000 3.098890 10.219677 9.191668
54 0 2 0.000000 17.710318 -11.116514 14.128463
55 0 1 0.000000 -3.946292 12.639761 7.809973
56 0 2 0.000000 -3.238496 12.547234 8.460458
57 0 2 0.000000 -4.767848 12.518199 8.339555
58 0 1 0.000000 9.095406 4.137989 12.954135
59 0 2 0.000000 9.570959 3.995775 13.787580
60 0 2 0.000000 8.297722 3.533502 13.045390
61 0 1 0.000000 9.197828 12.678301 5.226017
62 0 2 0.000000 9.473104 11.990687 5.813260
63 0 2 0.000000 9.793515 12.776876 4.478778
64 0 1 0.000000 -9.433578 -0.093019 11.094723
65 0 2 0.000000 -9.281709 0.244882 12.001593
66 0 2 0.000000 -10.424580 -0.017023 11.051805
68 0 2 0.000000 15.774750 10.078953 2.457378
70 0 1 0.000000 11.396597 16.515736 5.325535
71 0 2 0.000000 11.099349 16.352942 6.239970
72 0 2 0.000000 11.078856 17.367840 5.031188
73 0 1 0.000000 1.329156 -6.065600 11.802102
74 0 2 0.000000 1.338145 -5.035954 11.723083
75 0 2 0.000000 2.239345 -6.380057 11.955001
76 0 1 0.000000 -7.839123 7.385440 13.459782
77 0 2 0.000000 -7.712837 7.303536 12.466014
78 0 2 0.000000 -7.822745 8.301061 13.727007
79 0 1 0.000000 -13.699071 8.122324 13.565479
80 0 2 0.000000 -14.199312 8.188133 12.781494
81 0 2 0.000000 -14.314632 8.338890 14.284020
85 0 1 0.000000 21.449785 6.586580 4.122606
86 0 2 0.000000 20.574835 6.790409 4.537766
87 0 2 0.000000 21.213903 6.308160 3.199922
89 0 2 0.000000 1.543148 -9.632275 14.249086
91 0 1 0.000000 -10.148614 0.666674 13.904801
92 0 2 0.000000 -10.569247 1.512817 13.821042
94 0 1 0.000000 24.767845 6.678915 2.736833
95 0 2 0.000000 24.155418 5.911746 2.847363
96 0 2 0.000000 24.310120 7.342062 2.203373
97 0 1 0.000000 5.460927 13.823009 2.311642
99 0 2 0.000000 5.826929 13.458548 3.133524
100 0 1 0.000000 0.981238 15.101295 3.078611
101 0 2 0.000000 1.633248 15.187634 3.840171
102 0 2 0.000000 0.641815 14.197296 3.173803
103 0 1 0.000000 -1.734509 -3.602653 6.491879
104 0 2 0.000000 -1.208356 -3.224369 7.192590
105 0 2 0.000000 -2.461624 -3.003760 6.363331
106 0 1 0.000000 13.236953 1.760216 13.980987
108 0 2 0.000000 13.296065 1.728713 12.968257
109 0 1 0.000000 10.035057 -5.593983 9.498049
110 0 2 0.000000 9.141537 -5.871544 9.796434
111 0 2 0.000000 10.603807 -6.370083 9.497105
112 0 1 0.000000 3.761845 -7.283490 11.691877
113 0 2 0.000000 4.361865 -6.536231 11.643452
114 0 2 0.000000 3.737638 -7.437952 12.625437
115 0 1 0.000000 12.998481 16.713524 2.651499
116 0 2 0.000000 13.626270 16.096004 2.227254
117 0 2 0.000000 13.395867 17.160208 3.474914
121 0 1 0.000000 -5.360880 5.681030 13.418956
122 0 2 0.000000 -6.143494 6.238512 13.283568
123 0 2 0.000000 -4.853667 5.701242 12.618651
124 0 1 0.000000 4.293589 6.151684 12.523823
125 0 2 0.000000 4.665604 6.590352 13.284739
126 0 2 0.000000 4.872044 5.436489 12.378079
127 0 1 0.000000 3.537684 14.868350 3.994344
128 0 2 0.000000 4.130882 15.612167 4.121722
129 0 2 0.000000 3.946858 14.369871 3.285834
130 0 1 0.000000 23.099165 4.918362 5.449937
131 0 2 0.000000 22.784323 4.034788 5.228357
132 0 2 0.000000 22.559792 5.486029 4.863591
133 0 1 0.000000 19.316448 -4.014016 12.095054
134 0 2 0.000000 19.082541 -4.863349 11.673636
135 0 2 0.000000 19.859762 -4.264173 12.856701
136 0 1 0.000000 1.528708 -2.072992 13.484439
137 0 2 0.000000 0.787629 -1.532837 13.651919
138 0 2 0.000000 1.507354 -2.867569 14.008271
139 0 1 0.000000 -5.137181 3.129157 10.929467
140 0 2 0.000000 -5.926702 2.709882 11.166606
141 0 2 0.000000 -4.551456 3.095870 11.654195
142 0 1 0.000000 9.314716 8.638865 14.090408
143 0 2 0.000000 10.126167 8.445096 13.664568
144 0 2 0.000000 8.601854 8.040114 13.772959
145 0 1 0.000000 18.503925 0.138015 12.390564
146 0 2 0.000000 18.944443 0.320119 13.211170
147 0 2 0.000000 18.102331 -0.721981 12.373757
148 0 1 0.000000 8.871625 15.685706 2.441917
149 0 2 0.000000 9.653721 15.474977 2.923982
150 0 2 0.000000 8.239676 15.870166 3.153890
151 0 1 0.000000 19.079992 -4.579722 8.436212
152 0 2 0.000000 18.995613 -5.237383 9.151766
153 0 2 0.000000 20.059109 -4.395088 8.383286
154 0 1 0.000000 -1.527459 9.949026 2.881075
155 0 2 0.000000 -1.992437 9.675948 3.736196
156 0 2 0.000000 -0.584169 9.867505 2.979335
160 0 1 0.000000 15.092661 5.214454 13.953633
162 0 2 0.000000 14.543399 4.515089 13.595105
163 0 1 0.000000 17.046478 5.736274 12.140285
164 0 2 0.000000 16.489218 5.757865 12.871400
165 0 2 0.000000 17.932896 5.738891 12.516576
166 0 1 0.000000 0.097404 7.737316 4.895492
167 0 2 0.000000 0.664316 8.287752 5.450737
168 0 2 0.000000 0.409434 7.968698 3.993802
169 0 1 0.000000 14.737617 10.352630 5.697748
170 0 2 0.000000 15.674796 9.990440 5.643132
171 0 2 0.000000 14.678842 11.054391 6.349197
172 0 1 0.000000 -2.823749 15.717721 2.838810
173 0 2 0.000000 -3.067921 16.244638 3.642389
174 0 2 0.000000 -2.050000 16.247471 2.433672
175 0 1 0.000000 4.872572 -0.512632 8.702712
176 0 2 0.000000 4.805907 -0.839969 7.794953
177 0 2 0.000000 4.160005 0.182480 8.817365
181 0 1 0.000000 -1.887121 7.998803 10.709485
182 0 2 0.000000 -1.112529 8.495436 10.678482
183 0 2 0.000000 -2.466800 8.290599 9.986095
187 0 1 0.000000 10.943014 6.740980 11.987061
188 0 2 0.000000 11.819974 6.967153 11.660179
189 0 2 0.000000 11.082726 6.024525 12.634211
190 0 1 0.000000 11.561696 10.632492 8.513284
191 0 2 0.000000 12.097863 9.897544 8.111705
192 0 2 0.000000 10.755221 10.766514 7.960152
193 0 1 0.000000 13.179411 -1.143043 4.543134
194 0 2 0.000000 12.748647 -1.906839 3.989197
195 0 2 0.000000 12.566452 -0.424158 4.501176
196 0 1 0.000000 0.251299 9.916292 11.055800
197 0 2 0.000000 0.983297 9.981602 10.428650
198 0 2 0.000000 0.725236 9.759171 11.906967
199 0 1 0.000000 -5.058157 0.086831 6.912070
200 0 2 0.000000 -4.833155 0.610710 6.081424
201 0 2 0.000000 -5.924102 0.432825 7.156190
205 0 1 0.000000 -7.726498 13.927726 2.289056
207 0 2 0.000000 -8.327410 14.723926 2.259623
208 0 1 0.000000 27.826828 0.898514 2.468739
210 0 2 0.000000 28.146297 0.259643 3.147467
217 0 1 0.000000 -3.117268 14.701278 6.103900
218 0 2 0.000000 -3.684604 15.459078 5.953032
219 0 2 0.000000 -3.584493 14.020049 6.664442
220 0 1 0.000000 7.638457 11.706212 8.754914
221 0 2 0.000000 7.396716 12.538460 9.236903
222 0 2 0.000000 7.440871 11.039013 9.400767
223 0 1 0.000000 -6.854526 13.260332 4.720694
224 0 2 0.000000 -6.019503 12.785907 4.848237
225 0 2 0.000000 -7.073536 13.192258 3.778089
226 0 1 0.000000 23.551517 -6.701774 8.165288
227 0 2 0.000000 24.221201 -6.319130 7.593533
228 0 2 0.000000 23.957819 -6.881306 9.068891
232 0 1 0.000000 17.129211 10.660048 7.854359
233 0 2 0.000000 17.691299 11.010564 7.102757
234 0 2 0.000000 17.773447 10.473597 8.572190
237 0 2 0.000000 -0.966981 12.172531 2.451068
241 0 1 0.000000 2.916255 1.627667 9.083009
242 0 2 0.000000 3.476895 2.443073 9.013990
243 0 2 0.000000 2.449830 1.442283 8.244203
244 0 1 0.000000 1.323712 3.933180 6.888432
245 0 2 0.000000 1.048886 3.895430 7.799735
246 0 2 0.000000 0.529078 3.870096 6.284658
247 0 1 0.000000 4.712521 10.613843 9.538070
248 0 2 0.000000 5.103303 11.469265 9.637790
249 0 2 0.000000 5.181222 10.243630 8.759921
253 0 1 0.000000 18.835161 15.783612 3.580639
254 0 2 0.000000 17.920612 15.811992 3.352463
255 0 2 0.000000 19.219822 14.901506 3.215319
256 0 1 0.000000 3.349120 5.212004 5.806006
257 0 2 0.000000 2.620188 4.807505 6.304709
258 0 2 0.000000 4.069870 4.778069 6.278937
259 0 1 0.000000 10.551892 -3.718807 4.943538
260 0 2 0.000000 10.311491 -2.874182 5.422466
261 0 2 0.000000 10.511105 -4.504287 5.606849
262 0 1 0.000000 -2.113729 2.471505 7.368554
263 0 2 0.000000 -1.884049 2.763901 6.461468
264 0 2 0.000000 -3.110170 2.562403 7.426721
265 0 1 0.000000 7.897411 10.285047 2.448272
266 0 2 0.000000 7.308747 9.581870 2.607932
283 0 1 0.000000 11.556296 -7.868845 9.330615
284 0 2 0.000000 12.477350 -7.763225 9.660836
285 0 2 0.000000 11.719197 -8.257793 8.480016
286 0 1 0.000000 15.586599 1.887488 11.746005
287 0 2 0.000000 14.795830 2.347900 11.503683
288 0 2 0.000000 16.376169 2.405768 11.385682
289 0 1 0.000000 7.830573 5.837629 5.630760
290 0 2 0.000000 7.643512 5.966263 4.725815
291 0 2 0.000000 8.335699 6.563034 5.986910
292 0 1 0.000000 23.042816 4.533729 2.314252
294 0 2 0.000000 23.428816 3.693203 2.563728
297 0 2 0.000000 5.374791 0.247470 14.337412
299 0 2 0.000000 11.591502 1.781876 14.205711
300 0 2 0.000000 10.065975 1.689108 13.702427
301 0 1 0.000000 0.038987 -5.730972 14.256165
303 0 2 0.000000 0.430222 -6.108789 13.465940
304 0 1 0.000000 -1.901637 5.949232 4.555707
305 0 2 0.000000 -2.565577 6.030764 3.803094
306 0 2 0.000000 -1.461438 6.807473 4.599397
313 0 1 0.000000 -12.072390 2.660903 13.443465
314 0 2 0.000000 -11.923031 3.556652 13.778022
315 0 2 0.000000 -12.984571 2.446310 13.757232
316 0 1 0.000000 9.496530 6.014903 9.893012
317 0 2 0.000000 9.801588 6.351810 10.724045
318 0 2 0.000000 10.293132 5.734813 9.388396
319 0 1 0.000000 11.930022 5.443464 8.652698
320 0 2 0.000000 12.616104 5.997556 9.034740
321 0 2 0.000000 12.007704 4.547318 9.030042
324 0 2 0.000000 21.626720 16.449718 2.914853
325 0 1 0.000000 -6.447162 7.408087 7.623479
326 0 2 0.000000 -5.915499 8.058106 8.111082
327 0 2 0.000000 -7.382375 7.637104 7.685382
328 0 1 0.000000 19.749720 1.517790 6.491630
329 0 2 0.000000 19.624212 2.037885 7.318671
330 0 2 0.000000 18.883587 1.138441 6.364300
331 0 1 0.000000 8.458749 7.743630 7.901996
332 0 2 0.000000 9.420458 7.730347 7.757413
333 0 2 0.000000 8.478960 7.326642 8.790117
334 0 1 0.000000 15.768369 -0.626631 10.671275
335 0 2 0.000000 15.846835 0.194447 11.133750
336 0 2 0.000000 16.602743 -1.051805 10.964674
337 0 1 0.000000 16.866722 5.643034 4.426268
338 0 2 0.000000 16.116734 5.683073 5.029919
339 0 2 0.000000 17.671356 5.635055 4.927283
340 0 1 0.000000 2.070332 -0.541970 10.907641
341 0 2 0.000000 2.705982 -0.985816 11.523312
342 0 2 0.000000 2.536214 0.275374 10.713999
343 0 1 0.000000 22.212215 1.958959 5.230397
344 0 2 0.000000 21.318274 1.644606 5.528710
345 0 2 0.000000 22.433479 1.398664 4.460140
346 0 1 0.000000 0.313723 -4.846334 8.317246
347 0 2 0.000000 -0.458990 -4.755124 8.930335
348 0 2 0.000000 0.039211 -5.610347 7.748706
349 0 1 0.000000 1.677170 -11.025440 13.303211
350 0 2 0.000000 1.212928 -10.908197 12.464481
351 0 2 0.000000 2.595491 -11.231501 13.076970
352 0 1 0.000000 -5.379660 7.920257 4.888173
353 0 2 0.000000 -5.959557 7.579820 5.549706
354 0 2 0.000000 -5.643854 7.411246 4.067021
355 0 1 0.000000 15.191418 5.686768 9.903397
356 0 2 0.000000 15.568041 5.317584 9.127672
357 0 2 0.000000 15.882512 5.663483 10.603785
358 0 1 0.000000 10.891138 14.443951 3.953883
359 0 2 0.000000 11.208860 15.282970 4.300452
360 0 2 0.000000 11.578638 14.111567 3.311828
361 0 1 0.000000 -0.494388 13.487512 6.140760
362 0 2 0.000000 -1.388734 13.796681 6.064302
363 0 2 0.000000 -0.408381 12.880678 5.363005
367 0 1 0.000000 8.044723 1.073556 6.105704
368 0 2 0.000000 7.153738 1.311962 5.767484
369 0 2 0.000000 7.902467 0.668569 7.004181
371 0 2 0.000000 -4.972685 16.022839 2.679949
372 0 2 0.000000 -6.145708 15.220403 2.193215
373 0 1 0.000000 16.183834 3.046935 3.575235
374 0 2 0.000000 16.412477 3.953521 3.715930
375 0 2 0.000000 16.273884 2.996743 2.629440
379 0 1 0.000000 2.204506 5.780497 10.723377
380 0 2 0.000000 1.265346 5.824031 11.052822
381 0 2 0.000000 2.818234 5.638525 11.489039
382 0 1 0.000000 -4.118215 8.535519 8.886469
383 0 2 0.000000 -3.909793 9.440271 8.684512
384 0 2 0.000000 -3.690082 8.086818 8.153291
385 0 1 0.000000 -13.363698 11.819390 10.791767
386 0 2 0.000000 -14.063907 12.470878 10.793130
387 0 2 0.000000 -13.520073 11.344512 11.615898
391 0 1 0.000000 19.771044 13.382357 2.947876
392 0 2 0.000000 20.536354 13.240891 3.551614
393 0 2 0.000000 20.271614 13.491692 2.132536
394 0 1 0.000000 -4.008847 -2.307796 6.209674
395 0 2 0.000000 -4.136687 -1.428315 6.539225
396 0 2 0.000000 -4.547539 -2.446772 5.478674
397 0 1 0.000000 17.168068 0.772692 5.968686
398 0 2 0.000000 16.507690 0.432147 5.430492
399 0 2 0.000000 16.913511 0.704440 6.854583
400 0 1 0.000000 -1.814972 -0.609095 4.465431
401 0 2 0.000000 -2.046080 -1.548198 4.413838
402 0 2 0.000000 -1.624981 -0.483075 5.415556
403 0 1 0.000000 3.797759 7.851315 6.579554
404 0 2 0.000000 3.786130 6.952245 6.146955
405 0 2 0.000000 3.243716 7.691916 7.363195
406 0 1 0.000000 -0.966022 -1.230130 13.891636
407 0 2 0.000000 -0.933817 -1.282552 12.909628
408 0 2 0.000000 -1.421180 -0.408526 14.039629
409 0 1 0.000000 10.411407 -5.087983 12.832912
410 0 2 0.000000 10.683947 -4.312617 12.379452
411 0 2 0.000000 9.423804 -5.097355 12.791372
412 0 1 0.000000 21.401886 0.058033 3.092306
413 0 2 0.000000 21.368065 -0.746500 3.609851
414 0 2 0.000000 20.510313 0.383297 3.244615
415 0 1 0.000000 13.002346 -5.529115 7.713173
416 0 2 0.000000 12.322205 -5.063497 7.179788
417 0 2 0.000000 12.502450 -6.340165 7.970500
418 0 1 0.000000 -7.331937 18.239204 2.411453
419 0 2 0.000000 -7.887794 18.347837 3.161013
420 0 2 0.000000 -6.793311 17.437984 2.501034
423 0 2 0.000000 -5.438434 -1.318099 14.208319
424 0 1 0.000000 23.236290 -1.368140 8.537189
425 0 2 0.000000 23.680149 -0.703731 9.141484
426 0 2 0.000000 23.800224 -2.132468 8.638014
427 0 1 0.000000 2.774459 -5.636448 8.439834
428 0 2 0.000000 1.781672 -5.273882 8.551014
429 0 2 0.000000 2.935771 -6.443739 8.940959
430 0 1 0.000000 14.871615 6.436583 6.190921
431 0 2 0.000000 14.044289 5.925897 6.243567
432 0 2 0.000000 14.548991 7.245149 5.703748
433 0 1 0.000000 -1.804243 8.389254 13.509402
434 0 2 0.000000 -1.523172 9.251753 13.860107
435 0 2 0.000000 -2.141084 8.416910 12.607465
436 0 1 0.000000 -2.958183 10.655223 11.705988
437 0 2 0.000000 -2.872455 11.201888 12.560287
438 0 2 0.000000 -2.514561 11.171063 10.972897
442 0 1 0.000000 0.523416 -7.898005 9.953744
443 0 2 0.000000 -0.365146 -7.990456 10.417034
444 0 2 0.000000 0.836344 -7.101537 10.435529
445 0 1 0.000000 -9.506064 12.486545 5.026024
446 0 2 0.000000 -9.570974 13.183145 5.759950
447 0 2 0.000000 -8.576483 12.336669 4.965748
451 0 1 0.000000 -7.573262 10.283277 6.739270
452 0 2 0.000000 -7.281623 10.048631 7.615962
453 0 2 0.000000 -8.572089 10.305859 6.864707
455 0 2 0.000000 16.899326 6.399322 2.816696
460 0 1 0.000000 -7.155191 0.616260 13.052897
461 0 2 0.000000 -6.403235 0.388196 13.637450
462 0 2 0.000000 -7.692943 1.198723 13.633716
463 0 1 0.000000 5.065829 -1.434360 11.918528
464 0 2 0.000000 5.095927 -0.471132 11.699986
465 0 2 0.000000 4.634126 -1.390263 12.766120
469 0 1 0.000000 19.574516 3.863714 2.488474
470 0 2 0.000000 20.056732 4.610934 2.138018
471 0 2 0.000000 19.505222 4.226647 3.397421
472 0 1 0.000000 5.975032 4.410543 6.978354
473 0 2 0.000000 6.484832 4.913671 6.311018
474 0 2 0.000000 6.551959 4.445684 7.708436
475 0 1 0.000000 5.093417 -2.221518 6.458480
476 0 2 0.000000 4.404454 -1.763898 5.944931
477 0 2 0.000000 5.902537 -1.894848 6.014760
478 0 1 0.000000 21.138157 -7.593183 13.499351
479 0 2 0.000000 20.919197 -6.634729 13.758828
480 0 2 0.000000 20.266312 -8.002679 13.243060
484 0 1 0.000000 -6.844211 15.665148 5.710794
485 0 2 0.000000 -6.887042 14.696288 5.410066
486 0 2 0.000000 -6.662636 15.562031 6.688009
496 0 1 0.000000 -2.318781 5.255462 8.871151
497 0 2 0.000000 -3.098544 5.319698 8.327653
498 0 2 0.000000 -2.060401 4.375810 8.652650
500 0 2 0.000000 11.647713 17.649736 2.171877
501 0 2 0.000000 10.863714 18.624800 2.902286
502 0 1 0.000000 14.197745 0.603783 7.003541
503 0 2 0.000000 14.716138 -0.211778 7.150834
504 0 2 0.000000 14.671945 1.238689 6.426131
505 0 1 0.000000 -6.377918 0.333249 10.223944
506 0 2 0.000000 -6.587880 0.291728 11.160153
507 0 2 0.000000 -5.445734 0.120746 10.211768
511 0 1 0.000000 -1.982722 12.836592 3.806501
512 0 2 0.000000 -2.314143 13.761648 3.868738
513 0 2 0.000000 -2.687494 12.278214 4.197366
514 0 1 0.000000 25.674599 -2.386481 3.604060
515 0 2 0.000000 25.347536 -1.470752 3.377249
516 0 2 0.000000 26.566481 -2.426124 3.251082
517 0 1 0.000000 -2.479719 -3.933657 14.311407
518 0 2 0.000000 -1.931380 -4.710320 14.133492
523 0 1 0.000000 -6.382978 -7.380763 10.618694
524 0 2 0.000000 -5.795431 -6.696207 10.978279
525 0 2 0.000000 -6.804293 -7.780509 11.410330
527 0 2 0.000000 8.517064 -9.891641 14.223703
529 0 1 0.000000 6.307353 12.795954 4.810602
530 0 2 0.000000 6.171917 13.393538 5.580757
531 0 2 0.000000 7.196373 12.477180 4.905764
535 0 1 0.000000 5.418270 3.072777 2.784407
537 0 2 0.000000 5.945704 2.588317 3.411078
538 0 1 0.000000 25.340328 -5.392605 6.461020
539 0 2 0.000000 24.917944 -4.709438 5.856643
540 0 2 0.000000 26.349525 -5.474321 6.371236
541 0 1 0.000000 19.341705 7.743412 5.827682
542 0 2 0.000000 19.839706 8.551502 5.994207
543 0 2 0.000000 19.080824 7.345474 6.677607
544 0 1 0.000000 1.201687 12.128684 4.483141
545 0 2 0.000000 1.469691 11.280405 4.857600
546 0 2 0.000000 1.690844 12.285774 3.614583
547 0 1 0.000000 13.159073 7.429540 10.017253
548 0 2 0.000000 13.325398 7.975762 9.282775
549 0 2 0.000000 14.060042 7.128886 10.206764
553 0 1 0.000000 13.266811 2.590682 2.341410
554 0 2 0.000000 13.581873 3.448239 2.580447
555 0 2 0.000000 14.024126 2.052415 2.114182
556 0 1 0.000000 10.169161 2.871442 8.667438
557 0 2 0.000000 10.257492 3.215471 7.784587
558 0 2 0.000000 10.699011 2.050023 8.546511
562 0 1 0.000000 13.808611 -1.791710 13.068286
563 0 2 0.000000 14.438055 -1.481629 12.358935
564 0 2 0.000000 13.832034 -1.123078 13.757505
565 0 1 0.000000 19.944967 3.453984 8.869696
566 0 2 0.000000 19.312870 3.334941 9.586946
567 0 2 0.000000 20.685045 2.919123 9.158119
568 0 1 0.000000 -8.491500 3.784619 11.683201
569 0 2 0.000000 -8.313083 3.643917 12.625055
570 0 2 0.000000 -7.923551 4.510390 11.413268
571 0 1 0.000000 -1.026517 5.916157 13.767701
572 0 2 0.000000 -1.284891 6.871415 13.726348
574 0 1 0.000000 0.528416 3.513862 12.898755
575 0 2 0.000000 1.363977 3.244732 13.175968
576 0 2 0.000000 0.744415 3.370192 13.781737
577 0 1 0.000000 3.904658 9.026146 11.929924
578 0 2 0.000000 4.239407 9.337482 11.066039
579 0 2 0.000000 4.165176 8.102874 11.899950
580 0 1 0.000000 23.144693 -1.268376 5.707511
581 0 2 0.000000 23.597002 -0.751281 5.056975
582 0 2 0.000000 23.564531 -1.169936 6.571395
583 0 1 0.000000 0.945306 -0.722733 3.888679
584 0 2 0.000000 1.017607 -0.958807 2.916225
585 0 2 0.000000 -0.001109 -0.778240 4.051436
586 0 1 0.000000 -0.482494 5.616922 10.952172
587 0 2 0.000000 -0.531176 5.694952 11.890969
588 0 2 0.000000 -0.980948 6.338934 10.577286
589 0 1 0.000000 8.553694 14.878554 6.708541
590 0 2 0.000000 8.979790 14.093455 6.294954
591 0 2 0.000000 9.079158 15.248424 7.424278
592 0 1 0.000000 3.659529 0.559251 5.336490
593 0 2 0.000000 3.581006 0.504186 4.360826
594 0 2 0.000000 2.879606 0.927308 5.736527
595 0 1 0.000000 1.514267 1.222894 6.766132
596 0 2 0.000000 1.104896 2.098201 6.955452
597 0 2 0.000000 0.734982 0.683810 6.719945
598 0 1 0.000000 6.685618 6.000431 3.181794
599 0 2 0.000000 5.905292 5.442479 2.914372
600 0 2 0.000000 6.327969 6.872902 2.999693
601 0 1 0.000000 14.316178 -7.997168 9.589374
602 0 2 0.000000 14.896158 -7.543507 10.264216
603 0 2 0.000000 14.534294 -7.630290 8.751410
604 0 1 0.000000 11.748085 9.245687 13.214476
605 0 2 0.000000 12.150659 9.781985 13.936012
606 0 2 0.000000 12.453198 8.657394 12.991138
607 0 1 0.000000 -10.934491 5.222841 11.820842
608 0 2 0.000000 -10.238524 4.627066 11.702569
609 0 2 0.000000 -10.638387 6.038974 11.554791
613 0 1 0.000000 7.712454 -4.976492 12.844869
614 0 2 0.000000 7.803897 -4.034230 12.638700
615 0 2 0.000000 7.763587 -4.992046 13.820565
616 0 1 0.000000 0.044270 11.372183 7.928225
617 0 2 0.000000 -0.142155 12.128531 7.425255
618 0 2 0.000000 0.936802 11.305805 8.244971
619 0 1 0.000000 19.037437 -0.768316 9.593711
620 0 2 0.000000 18.336081 -1.443245 9.591490
621 0 2 0.000000 19.573946 -0.899180 8.810420
622 0 1 0.000000 -2.853959 9.336293 5.108633
623 0 2 0.000000 -2.353096 9.075572 5.905029
624 0 2 0.000000 -3.636363 8.824697 5.184157
631 0 1 0.000000 17.885389 3.158862 10.915775
632 0 2 0.000000 17.670731 4.087969 10.985570
633 0 2 0.000000 18.331762 2.975942 11.742121
634 0 1 0.000000 21.530943 -6.384516 10.882065
635 0 2 0.000000 22.327175 -5.948585 10.637787
636 0 2 0.000000 21.652519 -6.524168 11.861896
637 0 1 0.000000 2.940418 18.374170 2.780856
638 0 2 0.000000 2.277631 18.839428 2.254064
639 0 2 0.000000 2.395296 17.817160 3.410026
640 0 1 0.000000 23.727367 11.185817 2.342303
641 0 2 0.000000 24.661861 11.156906 2.364791
642 0 2 0.000000 23.477551 10.468660 2.980752
646 0 1 0.000000 21.497791 -3.877284 7.790630
647 0 2 0.000000 22.311724 -4.057333 8.352916
648 0 2 0.000000 21.350433 -2.911290 7.759596
649 0 1 0.000000 12.613859 12.938385 2.444986
655 0 1 0.000000 11.327956 7.141349 6.642565
656 0 2 0.000000 11.346572 6.294833 7.178881
657 0 2 0.000000 11.378095 6.855136 5.722433
661 0 1 0.000000 13.482897 8.065454 4.219328
662 0 2 0.000000 12.918046 7.420039 3.817059
663 0 2 0.000000 13.989120 8.433907 3.533162
664 0 1 0.000000 13.128984 -2.866204 6.650762
665 0 2 0.000000 13.842046 -2.506828 7.124002
666 0 2 0.000000 12.943274 -2.176205 6.019295
667 0 1 0.000000 -0.596932 3.464704 5.080336
668 0 2 0.000000 -0.205635 3.072870 4.307319
669 0 2 0.000000 -1.098033 4.306087 4.807391
673 0 1 0.000000 7.512603 9.856771 10.852271
674 0 2 0.000000 7.039450 9.017561 10.840404
675 0 2 0.000000 8.430843 9.662013 10.904447
676 0 1 0.000000 7.784200 16.608734 4.713134
677 0 2 0.000000 8.181033 16.213573 5.508448
678 0 2 0.000000 6.807186 16.628044 4.917271
679 0 1 0.000000 1.243231 9.654592 2.602874
680 0 2 0.000000 2.125565 9.807706 2.931792
682 0 1 0.000000 16.235996 16.065090 3.001337
683 0 2 0.000000 15.568480 15.608978 3.504755
684 0 2 0.000000 16.274584 16.998285 3.211554
685 0 1 0.000000 14.071953 10.724870 2.848157
686 0 2 0.000000 13.663378 11.556710 2.553954
687 0 2 0.000000 14.118581 10.796247 3.809168
688 0 1 0.000000 -9.786975 7.647501 11.140388
689 0 2 0.000000 -9.342828 7.670553 10.258039
690 0 2 0.000000 -10.007102 8.552924 11.428390
691 0 1 0.000000 -6.661322 12.772604 8.042344
692 0 2 0.000000 -6.890906 12.123424 7.371304
693 0 2 0.000000 -7.293741 12.791875 8.725283
694 0 1 0.000000 12.779360 4.518091 5.307745
695 0 2 0.000000 11.912394 4.147814 5.524826
696 0 2 0.000000 12.761570 4.760209 4.412491
697 0 1 0.000000 -2.062785 12.321899 9.695576
698 0 2 0.000000 -1.210931 11.897298 9.422663
699 0 2 0.000000 -1.846530 13.229628 10.069053
700 0 1 0.000000 16.065720 8.113644 8.322769
701 0 2 0.000000 16.333071 8.971270 7.920984
702 0 2 0.000000 15.149541 7.954084 8.033003
706 0 1 0.000000 12.268541 1.439758 4.729427
707 0 2 0.000000 12.735556 1.983364 4.085766
708 0 2 0.000000 12.563789 1.495495 5.680939
709 0 1 0.000000 21.009521 5.437096 7.359178
710 0 2 0.000000 21.880907 5.390684 6.918989
711 0 2 0.000000 20.926130 4.770517 8.063476
712 0 1 0.000000 -9.707981 -4.897865 13.944595
714 0 2 0.000000 -8.772894 -4.927886 13.878638
715 0 1 0.000000 -6.657844 5.388564 9.824765
716 0 2 0.000000 -5.784149 5.065496 10.149410
717 0 2 0.000000 -6.524715 5.758595 8.945413
718 0 1 0.000000 17.038517 9.134091 4.897882
719 0 2 0.000000 17.765932 8.559337 5.170011
720 0 2 0.000000 17.470566 10.007261 4.707419
724 0 1 0.000000 -1.118357 -9.410359 13.999507
727 0 1 0.000000 5.978293 3.970720 12.103762
728 0 2 0.000000 6.154254 3.796877 13.062708
729 0 2 0.000000 5.603699 3.161410 11.745612
730 0 1 0.000000 10.342169 -0.978725 2.642810
731 0 2 0.000000 10.558043 -0.057468 2.474303
732 0 2 0.000000 9.473256 -1.019035 2.315802
733 0 1 0.000000 13.335720 8.761519 7.593887
734 0 2 0.000000 13.772690 9.195438 6.861080
735 0 2 0.000000 12.659370 8.088884 7.257864
736 0 1 0.000000 0.857489 2.160251 3.174155
737 0 2 0.000000 1.689089 2.596346 2.917827
738 0 2 0.000000 1.013909 1.226513 3.358570
739 0 1 0.000000 7.389411 -6.546811 10.502870
740 0 2 0.000000 7.260070 -6.059937 11.329746
741 0 2 0.000000 6.846137 -6.005217 9.859220
742 0 1 0.000000 -12.021760 15.470399 6.319267
743 0 2 0.000000 -11.659645 16.357445 6.524497
744 0 2 0.000000 -11.897584 15.415131 5.374473
745 0 1 0.000000 -4.724114 2.061024 4.647164
746 0 2 0.000000 -4.071581 2.135240 3.931063
747 0 2 0.000000 -4.961837 2.973952 4.919432
748 0 1 0.000000 -0.855313 -2.129158 8.562399
749 0 2 0.000000 -1.165181 -1.773745 9.407110
750 0 2 0.000000 0.154809 -2.165960 8.501445
751 0 1 0.000000 -12.744941 8.053122 10.061918
752 0 2 0.000000 -12.267944 7.685603 10.797403
753 0 2 0.000000 -12.595145 7.403096 9.377646
754 0 1 0.000000 15.282508 -9.717854 12.445780
755 0 2 0.000000 15.827601 -10.258658 11.857027
756 0 2 0.000000 15.629219 -9.983554 13.320333
757 0 1 0.000000 18.277430 6.344619 7.875242
758 0 2 0.000000 17.345816 6.637066 7.918279
759 0 2 0.000000 18.147081 5.389425 7.718739
760 0 1 0.000000 4.630348 -2.310214 3.235546
761 0 2 0.000000 3.664892 -2.386494 3.314209
762 0 2 0.000000 4.945163 -3.057926 3.779995
763 0 1 0.000000 -3.959223 6.074138 11.237548
764 0 2 0.000000 -3.375125 6.644480 10.728348
765 0 2 0.000000 -3.721322 5.190085 10.933071
769 0 1 0.000000 15.732514 8.745037 11.065124
770 0 2 0.000000 16.202036 8.285384 10.341008
771 0 2 0.000000 15.101112 9.288435 10.646739
772 0 1 0.000000 8.472656 1.289878 12.517953
773 0 2 0.000000 7.741511 1.036008 13.074306
774 0 2 0.000000 8.077868 1.571186 11.685315
775 0 1 0.000000 5.211983 1.334608 11.477507
776 0 2 0.000000 4.423017 1.830778 11.777206
777 0 2 0.000000 5.446558 1.687208 10.592155
778 0 1 0.000000 9.355015 10.733247 7.030213
779 0 2 0.000000 9.251088 9.864940 6.615811
780 0 2 0.000000 8.507217 10.780555 7.579161
781 0 1 0.000000 -7.627597 -4.384154 10.246746
782 0 2 0.000000 -6.821579 -4.041796 9.772490
783 0 2 0.000000 -8.095522 -3.572900 10.513387
784 0 1 0.000000 3.102080 2.591827 12.767531
785 0 2 0.000000 2.319882 2.779413 13.251085
786 0 2 0.000000 2.831118 2.458410 13.664685
787 0 1 0.000000 23.412983 -3.901540 4.956244
788 0 2 0.000000 22.742041 -4.184960 5.674332
789 0 2 0.000000 23.638130 -2.993635 5.141200
793 0 1 0.000000 20.752508 -0.929516 7.465674
794 0 2 0.000000 21.652203 -0.863844 7.812766
795 0 2 0.000000 20.566208 -0.050336 7.114225
799 0 1 0.000000 7.364682 -2.147908 4.874640
800 0 2 0.000000 7.280161 -1.366746 4.344940
801 0 2 0.000000 8.176966 -2.070180 5.465818
807 0 2 0.000000 -9.569340 6.902295 13.921619
811 0 1 0.000000 -3.451612 6.153437 2.509909
812 0 2 0.000000 -4.407181 6.387056 2.638157
814 0 1 0.000000 -1.482520 -4.157561 11.214547
815 0 2 0.000000 -0.540410 -3.927910 11.298304
816 0 2 0.000000 -1.573471 -4.899470 11.816794
817 0 1 0.000000 17.372490 -2.362851 12.571155
818 0 2 0.000000 17.437065 -1.935811 13.453209
819 0 2 0.000000 18.114437 -3.020159 12.470322
820 0 1 0.000000 4.640728 10.973993 5.785563
821 0 2 0.000000 5.178032 10.260810 6.165398
822 0 2 0.000000 5.331106 11.632130 5.490629
825 0 2 0.000000 12.219828 -7.593027 14.158582
829 0 1 0.000000 8.448002 -2.894114 7.439412
830 0 2 0.000000 7.833173 -3.450821 7.910529
831 0 2 0.000000 9.325830 -3.207755 7.685183
832 0 1 0.000000 15.552629 -0.054599 3.873680
833 0 2 0.000000 14.634048 -0.308681 4.228528
834 0 2 0.000000 15.426515 0.430080 2.985947
838 0 1 0.000000 -0.976991 0.031718 7.023872
839 0 2 0.000000 -1.614993 0.767275 7.264429
840 0 2 0.000000 -0.944851 -0.673985 7.693748
841 0 1 0.000000 10.072525 -8.911804 11.472179
842 0 2 0.000000 9.606584 -9.745073 11.342141
843 0 2 0.000000 10.457130 -8.593374 10.623303
844 0 1 0.000000 5.239113 16.941555 4.834394
845 0 2 0.000000 4.949110 17.331415 5.685649
846 0 2 0.000000 5.220745 17.668562 4.194299
847 0 1 0.000000 4.116164 3.944320 9.452691
848 0 2 0.000000 4.839316 4.356350 8.974474
849 0 2 0.000000 3.528679 4.600093 9.969440