LAMMPS data file via MDAnalysis

        1296  atoms
           0  bonds
           0  angles
           0  dihedrals
           0  impropers

           2  atom types
           0  bond types
           0  angle types
           0  dihedral types
           0  improper types

0.000000 30.957142 xlo xhi
0.000000 21.341127 ylo yhi
0.000000 36.861931 zlo zhi
-9.151336 -20.802219 -31.562393 xy xz yz


Masses

1 1.008000
2 15.999000

Atoms

1297 0 1 0.000000 -10.903943 -19.396221 23.309578
1298 0 2 0.000000 -10.613299 -18.743406 23.991726
1299 0 2 0.000000 -11.585240 -18.985828 22.709999
1300 0 1 0.000000 -9.954559 -12.249630 20.650700
1301 0 2 0.000000 -10.583279 -12.928910 20.887789
1302 0 2 0.000000 -10.360310 -11.863075 19.866571
1303 0 1 0.000000 -4.471509 -14.017082 18.548637
1304 0 2 0.000000 -4.650969 -14.960287 18.516489
1305 0 2 0.000000 -4.437142 -13.792992 19.495893
1306 0 1 0.000000 -11.618920 -15.973983 22.986010
1307 0 2 0.000000 -12.241652 -16.640388 22.797829
1308 0 2 0.000000 -10.755813 -16.219593 22.661200
1309 0 1 0.000000 -13.574798 -11.055265 20.171869
1310 0 2 0.000000 -13.056116 -10.781143 20.905186
1311 0 2 0.000000 -12.937562 -11.027613 19.466261
1312 0 1 0.000000 -6.723471 -15.697024 21.039154
1313 0 2 0.000000 -6.963930 -14.844093 20.659056
1314 0 2 0.000000 -6.084033 -16.058399 20.422775
1315 0 1 0.000000 -8.229242 -10.004831 19.142546
1316 0 2 0.000000 -7.314364 -10.131199 19.447392
1317 0 2 0.000000 -8.312367 -10.425747 18.270763
1318 0 1 0.000000 -9.001216 -16.684185 22.272312
1319 0 2 0.000000 -8.208211 -16.641331 21.724155
1320 0 2 0.000000 -8.921497 -17.384184 22.928555
1321 0 1 0.000000 -14.314676 -14.855191 23.732067
1322 0 2 0.000000 -14.450725 -15.253393 22.894440
1323 0 2 0.000000 -14.116364 -13.926051 23.591215
1324 0 1 0.000000 -7.292358 -13.298786 20.174688
1325 0 2 0.000000 -6.764781 -12.510116 19.978018
1326 0 2 0.000000 -8.216969 -12.958437 20.325735
1327 0 1 0.000000 -5.507712 -17.827883 22.368387
1328 0 2 0.000000 -6.174692 -17.887327 23.052301
1329 0 2 0.000000 -6.072440 -17.983170 21.588598
1330 0 1 0.000000 -12.168123 -13.735994 21.181959
1331 0 2 0.000000 -12.092478 -14.578635 21.610561
1332 0 2 0.000000 -12.730778 -13.255564 21.832623
1333 0 1 0.000000 -3.564170 -19.646568 23.133476
1334 0 2 0.000000 -3.197087 -19.109583 23.844362
1335 0 2 0.000000 -4.311191 -19.114803 22.757975
1336 0 1 0.000000 -2.202699 -12.319141 19.950726
1337 0 2 0.000000 -2.835900 -12.688388 20.601261
1338 0 2 0.000000 -2.629200 -11.623909 19.383200
1339 0 1 0.000000 3.086699 -14.182010 18.667248
1340 0 2 0.000000 2.954830 -15.141060 18.764521
1341 0 2 0.000000 3.157826 -13.950093 19.606297
1342 0 1 0.000000 -3.658970 -15.706002 22.829975
1343 0 2 0.000000 -4.395533 -16.345476 22.814137
1344 0 2 0.000000 -2.964001 -16.188223 22.342264
1345 0 1 0.000000 -5.813750 -10.951032 19.973858
1346 0 2 0.000000 -5.387227 -10.590784 20.737263
1347 0 2 0.000000 -5.050871 -10.841823 19.304579
1348 0 1 0.000000 0.564361 -15.631154 21.110065
1349 0 2 0.000000 0.447895 -14.764349 20.748541
1350 0 2 0.000000 1.210314 -16.097792 20.521576
1351 0 1 0.000000 -0.441616 -9.854858 18.911160
1352 0 2 0.000000 0.415557 -10.330957 19.140560
1353 0 2 0.000000 -0.746008 -10.196882 18.083784
1354 0 1 0.000000 -1.369256 -17.316233 22.056730
1355 0 2 0.000000 -0.723011 -16.696211 21.658316
1356 0 2 0.000000 -0.882233 -17.831896 22.717220
1357 0 1 0.000000 -6.316586 -14.987288 23.742195
1358 0 2 0.000000 -6.366539 -15.414629 22.827072
1359 0 2 0.000000 -6.259380 -13.964067 23.585114
1360 0 1 0.000000 0.312134 -13.160736 19.983318
1361 0 2 0.000000 0.948426 -12.383858 20.038399
1362 0 2 0.000000 -0.578351 -12.838390 19.893200
1363 0 1 0.000000 2.087988 -18.022375 22.236542
1364 0 2 0.000000 1.506638 -18.311928 23.013645
1365 0 2 0.000000 1.599857 -18.343870 21.470039
1366 0 1 0.000000 -4.392134 -13.471325 21.211102
1367 0 2 0.000000 -4.155052 -14.268237 21.659109
1368 0 2 0.000000 -5.058261 -12.985346 21.720098
1369 0 1 0.000000 4.522480 -19.391590 23.064213
1370 0 2 0.000000 4.766335 -18.825432 23.795113
1371 0 2 0.000000 3.708826 -19.004349 22.691490
1372 0 1 0.000000 5.481828 -12.140279 20.303905
1373 0 2 0.000000 4.794661 -12.531849 20.892027
1374 0 2 0.000000 4.973722 -11.748174 19.564360
1375 0 1 0.000000 11.102874 -13.967902 18.929239
1376 0 2 0.000000 10.976134 -14.906147 19.102867
1377 0 2 0.000000 11.219693 -13.652273 19.832626
1378 0 1 0.000000 4.271501 -16.097778 22.548231
1379 0 2 0.000000 3.505579 -16.711622 22.403080
1380 0 2 0.000000 5.011827 -16.700935 22.455008
1381 0 1 0.000000 1.922651 -10.997616 19.727995
1382 0 2 0.000000 2.467979 -10.743524 20.487509
1383 0 2 0.000000 2.653673 -11.081867 19.016359
1384 0 1 0.000000 8.795892 -15.600636 21.053171
1385 0 2 0.000000 8.535687 -14.715859 20.737345
1386 0 2 0.000000 9.310214 -15.942813 20.339165
1387 0 1 0.000000 7.344548 -9.705675 19.511028
1388 0 2 0.000000 8.158919 -10.183125 19.736364
1389 0 2 0.000000 7.029191 -10.133838 18.746473
1390 0 1 0.000000 6.655190 -17.310032 21.981028
1391 0 2 0.000000 7.396237 -16.731363 21.807255
1392 0 2 0.000000 6.844264 -17.946381 22.641338
1393 0 1 0.000000 1.112250 -15.428374 23.728064
1394 0 2 0.000000 0.979434 -15.660044 22.819942
1395 0 2 0.000000 1.230074 -14.481745 23.611479
1396 0 1 0.000000 8.033442 -13.450380 19.936241
1397 0 2 0.000000 8.703015 -12.752382 19.960785
1398 0 2 0.000000 7.159993 -13.005738 20.107430
1399 0 1 0.000000 10.066537 -17.916157 22.346409
1400 0 2 0.000000 9.527436 -18.377871 23.055023
1401 0 2 0.000000 9.614635 -18.311607 21.553860
1402 0 1 0.000000 3.509888 -13.644973 21.580988
1403 0 2 0.000000 3.790154 -14.479046 21.915031
1404 0 2 0.000000 2.826405 -13.227663 22.120323
1405 0 1 0.000000 12.225070 -19.567921 23.556204
1406 0 2 0.000000 12.370574 -18.804220 24.126181
1407 0 2 0.000000 11.723790 -19.172878 22.849335
1408 0 1 0.000000 13.355590 -11.338766 20.316942
1409 0 2 0.000000 12.601764 -11.682274 20.787821
1410 0 2 0.000000 13.002240 -11.164198 19.433805
1411 0 1 0.000000 18.428410 -13.909250 18.588123
1412 0 2 0.000000 18.041660 -14.823290 18.738905
1413 0 2 0.000000 18.428459 -13.576680 19.457710
1414 0 1 0.000000 12.084928 -15.775638 22.730513
1415 0 2 0.000000 11.348248 -16.370106 22.446823
1416 0 2 0.000000 12.894082 -16.412386 22.614626
1417 0 1 0.000000 9.673110 -10.958425 20.095192
1418 0 2 0.000000 10.012881 -10.645796 20.946358
1419 0 2 0.000000 10.357314 -10.751325 19.422829
1420 0 1 0.000000 16.266102 -15.747922 21.231293
1421 0 2 0.000000 15.832957 -14.918915 20.946692
1422 0 2 0.000000 16.824448 -16.053408 20.486895
1423 0 1 0.000000 15.278115 -9.078069 19.030205
1424 0 2 0.000000 15.884694 -9.641558 19.549839
1425 0 2 0.000000 15.029027 -9.673692 18.310280
1426 0 1 0.000000 14.366708 -17.445875 22.038818
1427 0 2 0.000000 14.846129 -16.666662 21.723061
1428 0 2 0.000000 14.854173 -17.779564 22.868099
1429 0 1 0.000000 8.757949 -15.044384 23.618183
1430 0 2 0.000000 9.038301 -15.392006 22.738260
1431 0 2 0.000000 8.581042 -14.104004 23.639812
1432 0 1 0.000000 15.318513 -13.102541 19.914852
1433 0 2 0.000000 15.957805 -12.429257 20.165512
1434 0 2 0.000000 14.454928 -12.703233 19.898310
1435 0 1 0.000000 17.936893 -18.134401 22.199991
1436 0 2 0.000000 17.398605 -18.340328 23.001194
1437 0 2 0.000000 17.366871 -18.251608 21.441263
1438 0 1 0.000000 11.407146 -13.152607 21.467915
1439 0 2 0.000000 11.775828 -13.845815 22.027082
1440 0 2 0.000000 10.601258 -12.786297 21.941868
1441 0 1 0.000000 -13.810654 -12.242686 23.109867
1442 0 2 0.000000 -13.390522 -11.750114 23.827206
1443 0 2 0.000000 -14.560725 -11.672409 22.814756
1444 0 1 0.000000 -12.796233 -4.643197 20.477486
1445 0 2 0.000000 -13.505083 -5.125154 20.918808
1446 0 2 0.000000 -13.242996 -4.397456 19.653851
1447 0 1 0.000000 -8.060804 -7.013149 18.883936
1448 0 2 0.000000 -8.034871 -7.972915 18.905832
1449 0 2 0.000000 -7.843165 -6.753679 19.811533
1450 0 1 0.000000 -14.220663 -8.705208 22.608536
1451 0 2 0.000000 -14.892281 -9.377220 22.622597
1452 0 2 0.000000 -13.329632 -9.082496 22.563179
1453 0 1 0.000000 14.414376 -3.785018 19.688988
1454 0 2 0.000000 14.703654 -3.598623 20.607489
1455 0 2 0.000000 15.281692 -3.790425 19.239527
1456 0 1 0.000000 -10.029311 -8.641500 20.795597
1457 0 2 0.000000 -10.257590 -7.817664 20.382202
1458 0 2 0.000000 -9.398559 -9.081114 20.196262
1459 0 1 0.000000 -11.014575 -2.285148 19.038263
1460 0 2 0.000000 -10.204663 -2.712260 19.480803
1461 0 2 0.000000 -11.572316 -3.048777 18.733559
1462 0 1 0.000000 -11.808896 -10.131950 22.362589
1463 0 2 0.000000 -11.142983 -9.745041 21.760782
1464 0 2 0.000000 -11.352642 -10.716324 22.952026
1465 0 1 0.000000 -17.091194 -7.740228 23.878651
1466 0 2 0.000000 -17.266014 -8.062542 22.989790
1467 0 2 0.000000 -17.209511 -6.770684 23.788443
1468 0 1 0.000000 -10.635225 -6.185005 19.995302
1469 0 2 0.000000 -10.023599 -5.484016 19.723867
1470 0 2 0.000000 -11.432968 -5.726122 20.257765
1471 0 1 0.000000 -8.662956 -11.125250 22.616625
1472 0 2 0.000000 -9.393293 -11.362707 23.232704
1473 0 2 0.000000 -9.035893 -11.410768 21.762005
1474 0 1 0.000000 -15.084614 -6.130354 21.643633
1475 0 2 0.000000 -15.100594 -7.004128 22.050060
1476 0 2 0.000000 -15.874285 -5.732149 21.963057
1477 0 1 0.000000 -6.177379 -12.390070 23.147322
1478 0 2 0.000000 -5.924308 -11.774330 23.881086
1479 0 2 0.000000 -7.067007 -11.975385 22.828442
1480 0 1 0.000000 -5.571585 -5.098627 20.230850
1481 0 2 0.000000 -6.312275 -5.303509 20.847576
1482 0 2 0.000000 -5.832013 -4.369128 19.698032
1483 0 1 0.000000 0.080752 -7.168225 18.629360
1484 0 2 0.000000 -0.016690 -8.163023 18.703728
1485 0 2 0.000000 -0.021430 -6.938203 19.554764
1486 0 1 0.000000 -6.511178 -8.793428 22.715441
1487 0 2 0.000000 -7.239355 -9.453015 22.652046
1488 0 2 0.000000 -5.655271 -9.337810 22.478722
1489 0 1 0.000000 -8.957799 -3.994573 20.037460
1490 0 2 0.000000 -8.620682 -3.984762 20.961918
1491 0 2 0.000000 -8.181398 -4.004082 19.474800
1492 0 1 0.000000 -2.182289 -8.719459 21.032557
1493 0 2 0.000000 -2.313755 -7.837494 20.656504
1494 0 2 0.000000 -1.510880 -9.177837 20.516712
1495 0 1 0.000000 -3.579828 -2.434234 19.419941
1496 0 2 0.000000 -2.804423 -2.771111 19.880686
1497 0 2 0.000000 -3.703607 -3.099391 18.739193
1498 0 1 0.000000 -4.292262 -10.127460 22.100286
1499 0 2 0.000000 -3.505546 -9.753462 21.609035
1500 0 2 0.000000 -3.973963 -10.681007 22.872660
1501 0 1 0.000000 -9.434391 -8.306202 23.563732
1502 0 2 0.000000 -9.408789 -8.675014 22.628323
1503 0 2 0.000000 -9.385934 -7.354336 23.498413
1504 0 1 0.000000 -3.061340 -6.176947 19.695320
1505 0 2 0.000000 -2.376980 -5.455300 19.889482
1506 0 2 0.000000 -3.947920 -5.763936 19.719618
1507 0 1 0.000000 -0.598690 -11.282867 22.467003
1508 0 2 0.000000 -1.159432 -11.262049 23.224390
1509 0 2 0.000000 -1.194983 -11.456428 21.715490
1510 0 1 0.000000 -7.455812 -6.581474 21.580652
1511 0 2 0.000000 -7.275842 -7.528194 21.807066
1512 0 2 0.000000 -8.268974 -6.314484 22.086399
1513 0 1 0.000000 1.408772 -12.912761 23.173222
1514 0 2 0.000000 1.593886 -12.125993 23.772057
1515 0 2 0.000000 0.618789 -12.606592 22.683336
1516 0 1 0.000000 2.325848 -5.073234 20.370529
1517 0 2 0.000000 1.625669 -5.671797 20.661701
1518 0 2 0.000000 1.984062 -4.450783 19.722254
1519 0 1 0.000000 7.875319 -6.975004 18.744537
1520 0 2 0.000000 7.691051 -7.949961 18.797281
1521 0 2 0.000000 7.897059 -6.647173 19.642765
1522 0 1 0.000000 1.012201 -8.968626 22.556984
1523 0 2 0.000000 0.463176 -9.716062 22.477509
1524 0 2 0.000000 1.939118 -9.258009 22.391853
1525 0 1 0.000000 -1.207187 -4.124514 20.057871
1526 0 2 0.000000 -0.745170 -3.885294 20.874439
1527 0 2 0.000000 -0.669811 -3.872419 19.316101
1528 0 1 0.000000 5.495264 -8.554367 21.408091
1529 0 2 0.000000 5.357121 -7.617803 21.096292
1530 0 2 0.000000 6.089320 -8.920088 20.765556
1531 0 1 0.000000 4.383069 -2.642619 19.440800
1532 0 2 0.000000 5.210667 -2.991354 19.862370
1533 0 2 0.000000 4.289596 -3.270835 18.687664
1534 0 1 0.000000 3.346406 -10.173573 22.021708
1535 0 2 0.000000 4.124029 -9.642299 21.847242
1536 0 2 0.000000 3.575348 -10.719129 22.752047
1537 0 1 0.000000 -1.800620 -8.360020 24.000891
1538 0 2 0.000000 -1.557005 -8.627409 23.107811
1539 0 2 0.000000 -1.966647 -7.405531 23.915096
1540 0 1 0.000000 5.041152 -6.122359 20.295174
1541 0 2 0.000000 5.662623 -5.387362 20.172422
1542 0 2 0.000000 4.142788 -5.734862 20.427469
1543 0 1 0.000000 7.078341 -11.073545 22.158840
1544 0 2 0.000000 6.516635 -11.444629 22.831526
1545 0 2 0.000000 6.626092 -11.128441 21.304434
1546 0 1 0.000000 0.331516 -6.656727 21.433821
1547 0 2 0.000000 0.469625 -7.546443 21.831772
1548 0 2 0.000000 -0.271889 -6.231148 22.005663
1549 0 1 0.000000 9.288684 -12.070702 22.875462
1550 0 2 0.000000 9.424005 -11.541145 23.671534
1551 0 2 0.000000 8.526179 -11.747139 22.383507
1552 0 1 0.000000 10.027595 -4.754910 20.393419
1553 0 2 0.000000 9.437867 -5.482678 20.714052
1554 0 2 0.000000 9.530343 -4.282122 19.708065
1555 0 1 0.000000 15.723800 -6.451545 18.778009
1556 0 2 0.000000 15.560252 -7.477227 18.668644
1557 0 2 0.000000 15.409202 -6.386220 19.673895
1558 0 1 0.000000 8.673533 -8.832947 22.726513
1559 0 2 0.000000 8.103194 -9.612650 22.565605
1560 0 2 0.000000 9.599957 -8.971312 22.560282
1561 0 1 0.000000 6.774777 -4.207208 20.290897
1562 0 2 0.000000 6.982966 -3.973424 21.200466
1563 0 2 0.000000 7.417806 -3.775055 19.715479
1564 0 1 0.000000 13.369176 -8.159563 21.027138
1565 0 2 0.000000 13.090730 -7.273230 20.680861
1566 0 2 0.000000 13.962796 -8.459562 20.313076
1567 0 1 0.000000 12.016236 -2.363542 19.352848
1568 0 2 0.000000 12.926524 -2.605888 19.582319
1569 0 2 0.000000 11.738332 -3.090534 18.741802
1570 0 1 0.000000 11.179864 -9.539171 22.473894
1571 0 2 0.000000 11.809419 -8.974081 21.975670
1572 0 2 0.000000 11.735187 -10.157537 22.924511
1573 0 1 0.000000 5.922616 -7.744088 23.899479
1574 0 2 0.000000 6.025729 -7.882507 22.914358
1575 0 2 0.000000 5.892543 -6.776199 23.942493
1576 0 1 0.000000 12.661006 -5.816633 19.970940
1577 0 2 0.000000 13.193166 -5.023632 19.862104
1578 0 2 0.000000 11.801389 -5.419918 20.178511
1579 0 1 0.000000 -16.079891 -10.753166 22.415592
1580 0 2 0.000000 -16.776371 -10.956665 23.135351
1581 0 2 0.000000 -16.525265 -10.597634 21.604368
1582 0 1 0.000000 7.928763 -6.502118 21.559639
1583 0 2 0.000000 7.987258 -7.309709 22.012169
1584 0 2 0.000000 7.546889 -5.903172 22.183647
1585 0 1 0.000000 -17.380354 -4.931075 23.187744
1586 0 2 0.000000 -17.178446 -4.494111 24.057171
1587 0 2 0.000000 -18.123051 -4.533280 22.788170
1588 0 1 0.000000 -16.272751 2.463677 20.127092
1589 0 2 0.000000 -16.878258 1.892123 20.637453
1590 0 2 0.000000 -16.720261 3.128863 19.657831
1591 0 1 0.000000 -20.035980 -13.450217 34.742691
1592 0 2 0.000000 -20.289364 -14.385519 34.820194
1593 0 2 0.000000 -20.107216 -13.207218 35.634350
1594 0 1 0.000000 -17.720867 -1.725689 22.755806
1595 0 2 0.000000 -18.449047 -2.311337 22.466145
1596 0 2 0.000000 -16.868387 -2.101445 22.352699
1597 0 1 0.000000 -19.691044 3.405128 20.121527
1598 0 2 0.000000 -19.148764 3.846694 20.793434
1599 0 2 0.000000 -19.174812 3.536910 19.342459
1600 0 1 0.000000 -13.044539 -1.246243 20.902948
1601 0 2 0.000000 -13.223148 -0.357705 20.607956
1602 0 2 0.000000 -12.274321 -1.403528 20.264839
1603 0 1 0.000000 -14.137440 4.666404 19.028179
1604 0 2 0.000000 -13.336468 4.180846 19.536257
1605 0 2 0.000000 -14.426506 4.089768 18.345713
1606 0 1 0.000000 -15.194706 -3.014498 21.909990
1607 0 2 0.000000 -14.399681 -2.613943 21.532669
1608 0 2 0.000000 -14.780318 -3.655659 22.528627
1609 0 1 0.000000 -20.404715 -0.719514 24.106621
1610 0 2 0.000000 -20.541054 -1.090114 23.238770
1611 0 2 0.000000 -20.387207 0.232644 23.939342
1612 0 1 0.000000 -13.668261 1.056745 19.529215
1613 0 2 0.000000 -13.037586 1.709535 19.849327
1614 0 2 0.000000 -14.585759 1.414989 19.703522
1615 0 1 0.000000 -11.278564 -4.032651 22.429195
1616 0 2 0.000000 -12.120658 -4.194709 22.833735
1617 0 2 0.000000 -11.372477 -4.174651 21.494127
1618 0 1 0.000000 -17.716099 0.940553 21.618437
1619 0 2 0.000000 -17.687233 -0.030368 21.856915
1620 0 2 0.000000 -18.440538 1.122100 22.239761
1621 0 1 0.000000 -9.312075 -5.718185 23.424868
1622 0 2 0.000000 -8.950130 -5.402815 24.250408
1623 0 2 0.000000 -10.088936 -5.203682 23.204142
1624 0 1 0.000000 -8.461047 2.081815 20.120779
1625 0 2 0.000000 -9.143335 1.523696 20.650698
1626 0 2 0.000000 -8.871827 2.517959 19.406269
1627 0 1 0.000000 -3.109588 0.221570 18.837563
1628 0 2 0.000000 -3.222382 -0.724037 18.725962
1629 0 2 0.000000 -3.150247 0.424708 19.824631
1630 0 1 0.000000 -9.555826 -1.801378 22.759747
1631 0 2 0.000000 -10.217234 -2.541924 22.826035
1632 0 2 0.000000 -8.701015 -2.232012 22.671715
1633 0 1 0.000000 -12.063088 3.121247 20.003862
1634 0 2 0.000000 -11.519917 3.268935 20.794025
1635 0 2 0.000000 -11.478247 3.214482 19.232718
1636 0 1 0.000000 -5.146936 -1.285195 21.538275
1637 0 2 0.000000 -5.633871 -0.515889 21.182337
1638 0 2 0.000000 -4.803271 -1.668355 20.734541
1639 0 1 0.000000 -6.584084 4.564435 19.355194
1640 0 2 0.000000 -5.722454 4.137588 19.512077
1641 0 2 0.000000 -6.970402 4.101434 18.616880
1642 0 1 0.000000 -7.398550 -3.371337 22.206734
1643 0 2 0.000000 -6.687138 -2.897039 21.758711
1644 0 2 0.000000 -6.866882 -3.852846 22.833721
1645 0 1 0.000000 -12.551985 -0.941860 23.951950
1646 0 2 0.000000 -12.803628 -1.256193 23.052452
1647 0 2 0.000000 -12.642227 0.022787 23.860453
1648 0 1 0.000000 -6.019984 0.972917 19.982182
1649 0 2 0.000000 -5.301823 1.616860 20.128370
1650 0 2 0.000000 -6.827714 1.468434 20.079556
1651 0 1 0.000000 -3.559946 -4.199792 22.260391
1652 0 2 0.000000 -4.279797 -4.268794 22.998932
1653 0 2 0.000000 -4.043518 -4.522540 21.490892
1654 0 1 0.000000 -10.666555 0.656499 21.308769
1655 0 2 0.000000 -10.507599 -0.062707 21.928881
1656 0 2 0.000000 -11.328558 1.147693 21.759079
1657 0 1 0.000000 -1.530017 -5.718540 23.196770
1658 0 2 0.000000 -1.204915 -4.980494 23.676685
1659 0 2 0.000000 -2.310184 -5.265109 22.817356
1660 0 1 0.000000 -0.625515 2.339595 20.324387
1661 0 2 0.000000 -1.373555 2.032084 20.908733
1662 0 2 0.000000 -1.120361 2.726315 19.576895
1663 0 1 0.000000 4.642862 0.123626 18.768885
1664 0 2 0.000000 4.566964 -0.815303 19.030138
1665 0 2 0.000000 4.604910 0.606036 19.566307
1666 0 1 0.000000 -1.811844 -1.703602 22.711020
1667 0 2 0.000000 -2.388982 -2.480851 22.547863
1668 0 2 0.000000 -0.906850 -2.005103 22.579800
1669 0 1 0.000000 -4.284108 3.256047 20.117386
1670 0 2 0.000000 -3.714367 3.656730 20.812912
1671 0 2 0.000000 -3.631006 3.331292 19.349264
1672 0 1 0.000000 2.494080 -1.283256 21.195585
1673 0 2 0.000000 2.214328 -0.469560 20.746653
1674 0 2 0.000000 3.260338 -1.634999 20.722900
1675 0 1 0.000000 1.433738 4.604562 19.294527
1676 0 2 0.000000 2.282849 4.240434 19.612944
1677 0 2 0.000000 1.014338 3.918876 18.722139
1678 0 1 0.000000 0.455801 -3.035006 21.914167
1679 0 2 0.000000 1.146569 -2.582381 21.411758
1680 0 2 0.000000 0.930057 -3.362394 22.704437
1681 0 1 0.000000 -4.965451 -0.652230 24.263489
1682 0 2 0.000000 -4.760190 -1.141459 23.435081
1683 0 2 0.000000 -5.008373 0.266990 23.972664
1684 0 1 0.000000 1.833985 1.175410 19.733736
1685 0 2 0.000000 2.503435 1.816049 19.967897
1686 0 2 0.000000 0.940381 1.570754 19.867891
1687 0 1 0.000000 3.573689 -3.903740 22.527838
1688 0 2 0.000000 2.981732 -4.179106 23.261614
1689 0 2 0.000000 3.072698 -4.208145 21.767395
1690 0 1 0.000000 -2.621031 0.897817 21.674267
1691 0 2 0.000000 -2.461850 0.020911 22.005905
1692 0 2 0.000000 -3.481706 1.177899 22.121042
1693 0 1 0.000000 6.069074 -5.068459 23.192085
1694 0 2 0.000000 6.219661 -4.452127 23.957775
1695 0 2 0.000000 5.135664 -5.024349 22.962273
1696 0 1 0.000000 7.040910 2.201430 20.109377
1697 0 2 0.000000 6.425002 1.844934 20.745955
1698 0 2 0.000000 6.405961 2.603601 19.457165
1699 0 1 0.000000 12.399459 0.367204 18.843147
1700 0 2 0.000000 12.143003 -0.571959 18.975607
1701 0 2 0.000000 12.561080 0.735353 19.742802
1702 0 1 0.000000 5.471753 -1.796431 22.792641
1703 0 2 0.000000 4.885748 -2.564074 22.701439
1704 0 2 0.000000 6.380927 -2.117636 22.567524
1705 0 1 0.000000 3.573980 3.326520 20.089674
1706 0 2 0.000000 4.185346 3.300794 20.873886
1707 0 2 0.000000 4.161888 3.449660 19.295750
1708 0 1 0.000000 10.252969 -1.346065 21.258833
1709 0 2 0.000000 10.240687 -0.411474 20.909323
1710 0 2 0.000000 10.703847 -1.916098 20.588041
1711 0 1 0.000000 17.957989 -16.431772 19.373285
1712 0 2 0.000000 18.852882 -16.672844 19.686005
1713 0 2 0.000000 17.705051 -17.229195 18.864090
1714 0 1 0.000000 8.145696 -2.921879 22.224251
1715 0 2 0.000000 8.917333 -2.468347 21.826939
1716 0 2 0.000000 8.494172 -3.317234 23.020199
1717 0 1 0.000000 2.710162 -0.916267 23.967037
1718 0 2 0.000000 2.851557 -1.039000 23.007530
1719 0 2 0.000000 2.694861 0.055921 24.040390
1720 0 1 0.000000 9.719399 1.121755 19.897923
1721 0 2 0.000000 10.192714 1.943807 19.972723
1722 0 2 0.000000 8.752503 1.447646 19.860388
1723 0 1 0.000000 11.245944 -3.850884 22.431484
1724 0 2 0.000000 10.693933 -3.984962 23.238665
1725 0 2 0.000000 10.684209 -4.176277 21.752922
1726 0 1 0.000000 5.004964 0.856915 21.679596
1727 0 2 0.000000 5.168227 -0.079453 22.017696
1728 0 2 0.000000 4.339347 1.123984 22.389309
1729 0 1 0.000000 -13.757014 -23.994820 28.825279
1730 0 2 0.000000 -13.368694 -23.220888 29.316423
1731 0 2 0.000000 -14.649579 -23.728008 28.541267
1732 0 1 0.000000 -13.015995 -16.143795 26.055162
1733 0 2 0.000000 -13.809912 -16.713505 26.278959
1734 0 2 0.000000 -13.258744 -15.668320 25.239742
1735 0 1 0.000000 -7.775608 -18.610249 24.337088
1736 0 2 0.000000 -7.898279 -19.560387 24.295639
1737 0 2 0.000000 -7.602215 -18.407156 25.259970
1738 0 1 0.000000 -14.423429 -20.222076 27.855740
1739 0 2 0.000000 -15.045498 -20.961981 28.075918
1740 0 2 0.000000 -13.486641 -20.519630 27.720146
1741 0 1 0.000000 -16.454571 -15.230154 25.417292
1742 0 2 0.000000 -15.978224 -14.938026 26.172041
1743 0 2 0.000000 -15.811720 -15.225410 24.627434
1744 0 1 0.000000 -9.947767 -19.975502 26.363178
1745 0 2 0.000000 -10.026119 -19.131285 25.908863
1746 0 2 0.000000 -9.169827 -20.437489 25.989882
1747 0 1 0.000000 -10.988429 -14.225388 25.119759
1748 0 2 0.000000 -10.084461 -14.434431 25.355127
1749 0 2 0.000000 -11.174257 -14.789886 24.393433
1750 0 1 0.000000 -12.049880 -21.587193 27.459717
1751 0 2 0.000000 -11.280875 -21.106493 27.035656
1752 0 2 0.000000 -11.748241 -22.018997 28.256580
1753 0 1 0.000000 -17.089016 -19.761122 29.303871
1754 0 2 0.000000 -17.128723 -19.990047 28.365829
1755 0 2 0.000000 -17.096729 -18.829798 29.229795
1756 0 1 0.000000 -10.551945 -17.514456 25.320648
1757 0 2 0.000000 -9.932869 -16.780842 25.305027
1758 0 2 0.000000 -11.350574 -17.046743 25.654716
1759 0 1 0.000000 -8.449050 -22.524069 27.782766
1760 0 2 0.000000 -9.061254 -22.828686 28.439528
1761 0 2 0.000000 -8.904291 -22.811693 27.008989
1762 0 1 0.000000 -15.045987 -17.849400 26.606640
1763 0 2 0.000000 -14.665272 -18.697086 26.878139
1764 0 2 0.000000 -15.855017 -17.709288 27.196323
1765 0 1 0.000000 -6.168839 -24.151140 28.334816
1766 0 2 0.000000 -6.077955 -23.559235 29.116734
1767 0 2 0.000000 -7.012025 -23.867828 27.984261
1768 0 1 0.000000 -5.263753 -16.618193 25.597374
1769 0 2 0.000000 -6.077565 -17.122648 25.828609
1770 0 2 0.000000 -5.551661 -16.092522 24.830994
1771 0 1 0.000000 -0.071811 -18.690937 24.015335
1772 0 2 0.000000 -0.232546 -19.685410 24.070301
1773 0 2 0.000000 0.126834 -18.499180 24.929903
1774 0 1 0.000000 -6.691161 -20.465729 27.911489
1775 0 2 0.000000 -7.285922 -21.200335 27.877716
1776 0 2 0.000000 -5.773243 -20.736443 27.957195
1777 0 1 0.000000 -8.516689 -15.606696 25.249411
1778 0 2 0.000000 -8.193020 -15.426351 26.136309
1779 0 2 0.000000 -7.772977 -15.398617 24.617571
1780 0 1 0.000000 -2.738000 -20.298380 26.277914
1781 0 2 0.000000 -2.627300 -19.359808 26.049322
1782 0 2 0.000000 -2.095483 -20.601234 25.648123
1783 0 1 0.000000 -3.115537 -14.185635 24.935093
1784 0 2 0.000000 -2.343392 -14.645012 25.249989
1785 0 2 0.000000 -3.535389 -14.913549 24.448105
1786 0 1 0.000000 -4.193553 -21.843931 27.845503
1787 0 2 0.000000 -3.652369 -21.339998 27.221525
1788 0 2 0.000000 -3.648048 -22.460768 28.376598
1789 0 1 0.000000 -9.376078 -19.436659 28.990801
1790 0 2 0.000000 -9.524663 -19.885918 28.150818
1791 0 2 0.000000 -9.330090 -18.451672 28.879333
1792 0 1 0.000000 -2.801508 -17.909376 25.158045
1793 0 2 0.000000 -2.250836 -17.162296 25.230480
1794 0 2 0.000000 -3.678461 -17.487480 25.388470
1795 0 1 0.000000 -1.000677 -22.672779 27.820366
1796 0 2 0.000000 -1.640469 -22.971756 28.525333
1797 0 2 0.000000 -1.244503 -23.084984 27.013420
1798 0 1 0.000000 -7.283933 -18.110985 26.929482
1799 0 2 0.000000 -7.150553 -18.970985 27.378075
1800 0 2 0.000000 -7.973056 -17.615200 27.342463
1801 0 1 0.000000 1.401048 -24.063641 28.550850
1802 0 2 0.000000 1.682172 -23.410305 29.235588
1803 0 2 0.000000 0.586279 -23.747793 28.157204
1804 0 1 0.000000 2.371885 -16.760363 25.721270
1805 0 2 0.000000 1.740940 -17.438547 26.011627
1806 0 2 0.000000 1.990734 -16.315012 24.921432
1807 0 1 0.000000 7.909486 -18.774235 23.950296
1808 0 2 0.000000 7.724216 -19.670315 24.021763
1809 0 2 0.000000 8.121392 -18.482634 24.828421
1810 0 1 0.000000 1.010766 -20.722557 28.043203
1811 0 2 0.000000 0.493108 -21.576221 28.015209
1812 0 2 0.000000 1.971189 -20.988272 27.955200
1813 0 1 0.000000 -1.042998 -15.793921 25.537338
1814 0 2 0.000000 -0.594417 -15.443226 26.333052
1815 0 2 0.000000 -0.379889 -15.601262 24.855986
1816 0 1 0.000000 5.618268 -20.307972 26.932400
1817 0 2 0.000000 5.231806 -19.581718 26.447311
1818 0 2 0.000000 6.365338 -20.538548 26.353453
1819 0 1 0.000000 4.334548 -14.494094 24.692768
1820 0 2 0.000000 5.082955 -14.895320 25.173559
1821 0 2 0.000000 4.225718 -15.122629 23.922630
1822 0 1 0.000000 3.454529 -21.867157 27.459515
1823 0 2 0.000000 4.226166 -21.382215 27.107296
1824 0 2 0.000000 3.860868 -22.476774 28.079483
1825 0 1 0.000000 -2.218427 -19.849915 28.987835
1826 0 2 0.000000 -2.213619 -20.050831 28.044014
1827 0 2 0.000000 -2.036674 -18.894003 28.990355
1828 0 1 0.000000 4.761708 -18.098234 25.488726
1829 0 2 0.000000 5.492450 -17.498814 25.599779
1830 0 2 0.000000 3.883272 -17.632427 25.521517
1831 0 1 0.000000 7.262563 -22.989943 28.141102
1832 0 2 0.000000 6.652146 -23.013851 28.891050
1833 0 2 0.000000 6.815434 -23.224535 27.327435
1834 0 1 0.000000 0.334724 -18.464569 26.783684
1835 0 2 0.000000 0.588814 -19.291733 27.310966
1836 0 2 0.000000 -0.340034 -18.002789 27.321148
1837 0 1 0.000000 0.200233 -3.217537 28.752491
1838 0 2 0.000000 0.674261 -2.680031 29.368040
1839 0 2 0.000000 -0.635492 -2.751663 28.565754
1840 0 1 0.000000 10.156772 -16.526300 25.692497
1841 0 2 0.000000 9.368451 -16.950064 26.034079
1842 0 2 0.000000 9.874980 -15.819533 25.098505
1843 0 1 0.000000 15.787192 -18.589762 23.859505
1844 0 2 0.000000 15.441428 -19.513966 23.846338
1845 0 2 0.000000 15.769742 -18.266161 24.814423
1846 0 1 0.000000 8.500955 -20.703159 28.263781
1847 0 2 0.000000 7.885787 -21.442101 28.263329
1848 0 2 0.000000 9.396016 -20.883749 28.036074
1849 0 1 0.000000 6.758334 -16.104982 25.297750
1850 0 2 0.000000 6.980716 -15.634770 26.127811
1851 0 2 0.000000 7.327136 -15.831808 24.557777
1852 0 1 0.000000 13.471972 -20.157988 26.460779
1853 0 2 0.000000 13.066924 -19.250114 26.202450
1854 0 2 0.000000 13.872079 -20.401285 25.593248
1855 0 1 0.000000 12.200957 -13.805088 24.799915
1856 0 2 0.000000 12.825826 -14.348190 25.328693
1857 0 2 0.000000 12.043384 -14.496165 24.180136
1858 0 1 0.000000 11.142573 -21.455479 27.758892
1859 0 2 0.000000 11.771510 -21.044701 27.183268
1860 0 2 0.000000 11.641742 -22.205532 28.132963
1861 0 1 0.000000 5.569943 -19.719250 29.480579
1862 0 2 0.000000 5.821345 -20.013147 28.559498
1863 0 2 0.000000 5.904876 -18.785091 29.500984
1864 0 1 0.000000 12.826678 -17.521292 25.251101
1865 0 2 0.000000 13.543124 -16.859516 25.347433
1866 0 2 0.000000 12.002610 -17.021259 25.186306
1867 0 1 0.000000 -16.016512 -22.805630 28.237061
1868 0 2 0.000000 -16.763281 -22.991528 28.875166
1869 0 2 0.000000 -16.398092 -22.740629 27.395657
1870 0 1 0.000000 8.215755 -18.143408 26.896589
1871 0 2 0.000000 8.250436 -18.918804 27.424435
1872 0 2 0.000000 7.498815 -17.694214 27.426350
1873 0 1 0.000000 -17.205183 -17.056515 28.650742
1874 0 2 0.000000 -16.879694 -16.394949 29.265118
1875 0 2 0.000000 -17.869667 -16.565569 28.148149
1876 0 1 0.000000 -15.797833 -9.316345 25.511995
1877 0 2 0.000000 -16.429262 -10.052852 25.774147
1878 0 2 0.000000 -16.242622 -8.728697 24.884525
1879 0 1 0.000000 -10.721062 -11.571790 24.361729
1880 0 2 0.000000 -10.795266 -12.548659 24.362713
1881 0 2 0.000000 -10.450306 -11.442742 25.250195
1882 0 1 0.000000 -17.347775 -13.312006 27.879669
1883 0 2 0.000000 -17.882984 -14.096926 28.055931
1884 0 2 0.000000 -16.435534 -13.714295 27.895140
1885 0 1 0.000000 -19.809380 -8.413916 25.338150
1886 0 2 0.000000 -19.388084 -8.029024 26.117418
1887 0 2 0.000000 -19.107641 -8.459547 24.720974
1888 0 1 0.000000 -12.911747 -12.968256 26.640266
1889 0 2 0.000000 -13.060822 -12.052941 26.313763
1890 0 2 0.000000 -12.115607 -13.307264 26.130405
1891 0 1 0.000000 -13.930680 -7.040251 24.682560
1892 0 2 0.000000 -13.067151 -7.382174 24.929783
1893 0 2 0.000000 -14.231399 -7.727323 24.064875
1894 0 1 0.000000 -14.870982 -14.360400 27.544624
1895 0 2 0.000000 -14.053189 -14.028125 27.115444
1896 0 2 0.000000 -14.602156 -15.021379 28.235336
1897 0 1 0.000000 -20.478354 -12.514462 28.963482
1898 0 2 0.000000 -20.622931 -12.816818 28.053249
1899 0 2 0.000000 -20.346630 -11.614937 28.868862
1900 0 1 0.000000 -13.309030 -10.629932 25.474762
1901 0 2 0.000000 -12.742195 -9.875835 25.709656
1902 0 2 0.000000 -14.185284 -10.184103 25.486267
1903 0 1 0.000000 -11.821301 -15.342014 28.287014
1904 0 2 0.000000 -12.460679 -15.583524 28.983744
1905 0 2 0.000000 -12.304836 -15.435159 27.377348
1906 0 1 0.000000 -17.972431 -10.959360 26.773247