LAMMPS data file via write_data, version 29 Sep 2021, timestep = 400000

864 atoms
2 atom types

-0.0010964980906713606 18.20866949809107 xlo xhi
0.17489370775042623 23.45428329225044 ylo yhi
0.14823965574877995 22.064956344251033 zlo zhi

Masses

1 1.008
2 15.999

Atoms # full

706 0 1 -1.1794 2.6198018264384753 1.7167067395679498 3.4005390047748354 0 0 0
708 0 2 0.5897 1.9900160148258292 2.359139216496215 3.029103868928561 0 0 0
29 0 2 0.5897 4.042568607225137 2.3208335189095513 2.259763429898332 0 0 0
3 0 2 0.5897 0.8756518068651352 4.2473733741909125 2.497853246764685 0 0 0
707 0 2 0.5897 2.769579212958054 1.9109195228599598 4.372905489569681 0 0 0
20 0 2 0.5897 0.6885755338424253 3.8044696992168228 0.3993758993008088 0 0 0
1 0 1 -1.1794 0.7996001306898287 3.435189137207476 1.9874666209727898 0 0 0
668 0 2 0.5897 4.475317214216944 3.1179101242287777 0.22269775404818942 0 0 0
28 0 1 -1.1794 4.795326244744466 2.8287463995087068 1.9775709368194228 0 0 0
30 0 2 0.5897 4.753168224645155 3.7063564442663024 2.3369472400801574 0 0 0
493 0 1 -1.1794 7.239278794478966 1.8758082296892107 3.0000961133642785 0 0 0
494 0 2 0.5897 6.384352563872467 2.0462580358515776 2.563065567480076 0 0 0
495 0 2 0.5897 7.927927604026484 2.4233585757499534 2.4750304203563025 0 0 0
819 0 2 0.5897 7.522015990747347 0.21520978769550203 2.59177140654685 0 0 0
748 0 1 -1.1794 9.359285812736891 3.252070957952615 2.1445254941058813 0 0 0
750 0 2 0.5897 9.478947390634598 3.5425617810324144 1.2002031357199827 0 0 0
106 0 1 -1.1794 11.681615688776755 1.7854158172876209 3.1126933517758726 0 0 0
108 0 2 0.5897 10.930291700942519 2.300236684376595 2.8462235988191273 0 0 0
749 0 2 0.5897 9.614022543521541 4.030117864100282 2.649232323881253 0 0 0
215 0 2 0.5897 13.147368101762245 2.872698053710763 2.3198292156841176 0 0 0
107 0 2 0.5897 11.698302704080422 1.8606220405623781 4.111962947535568 0 0 0
2 0 2 0.5897 18.156787619344627 3.0586228698558404 2.229519282688516 0 0 0
216 0 2 0.5897 14.091980566553485 4.230246328678606 2.227216110173567 0 0 0
214 0 1 -1.1794 13.925964255267498 3.280537975463172 1.9270974037744506 0 0 0
406 0 1 -1.1794 16.522975848673482 2.2019697483718357 2.6367491309595112 0 0 0
407 0 2 0.5897 16.489880796802137 1.2683729747648378 2.340517593658587 0 0 0
408 0 2 0.5897 15.636208518594477 2.5447135292573773 2.7647585088211666 0 0 0
660 0 2 0.5897 16.640536589868233 1.9588800113311486 4.506590685220227 0 0 0
123 0 2 0.5897 2.9007233280193834 8.748234294749986 2.8485095184354106 0 0 0
253 0 1 -1.1794 3.0551223551049183 6.9191957443663545 2.244275543023798 0 0 0
254 0 2 0.5897 2.9723051776506066 7.166463434684669 1.321418981019504 0 0 0
255 0 2 0.5897 2.1059951014602367 6.575857164399888 2.5012996698121843 0 0 0
138 0 2 0.5897 4.489556254622645 6.113772938076704 2.596429890951462 0 0 0
595 0 1 -1.1794 0.961868490344353 5.924694840366058 3.074978658441649 0 0 0
597 0 2 0.5897 0.8956660109859623 5.953289240671638 4.071638626604068 0 0 0
596 0 2 0.5897 0.03933510677106861 6.240299278583312 2.7714726864612356 1 0 0
137 0 2 0.5897 5.174977210859816 5.53742131284685 3.8255236654495204 0 0 0
136 0 1 -1.1794 5.198715996687606 5.463241553215045 2.8283866586141424 0 0 0
65 0 2 0.5897 7.256541545435453 8.373030418487822 2.919533426545544 0 0 0
415 0 1 -1.1794 7.70181056942157 6.637422273765348 2.238905875080069 0 0 0
416 0 2 0.5897 6.939942704711372 6.02771937735577 2.4453754050851133 0 0 0
417 0 2 0.5897 8.493936187867558 6.3314139209610385 2.708988993453719 0 0 0
162 0 2 0.5897 7.666727097174204 7.092059933454924 0.40613539161134204 0 0 0
66 0 2 0.5897 7.4925079844513185 9.195158099331767 4.205418078489686 0 0 0
64 0 1 -1.1794 7.348192394664362 9.252901283479881 3.2413553338119563 0 0 0
190 0 1 -1.1794 12.110796474747607 7.086451390762408 1.7129693767400453 0 0 0
191 0 2 0.5897 11.91418635823212 7.165539884062378 0.760905318500615 0 0 0
192 0 2 0.5897 12.06249589319112 8.021542703136976 2.0367471686152383 0 0 0
298 0 1 -1.1794 10.260052028281521 5.770544228732378 3.3918364102045393 0 0 0
299 0 2 0.5897 10.946900593483749 6.324165969959706 2.9786028313701696 0 0 0
300 0 2 0.5897 10.188466348892183 5.945109576563203 4.384952869150451 0 0 0
110 0 2 0.5897 13.609929763226074 6.4756946197751 2.3757850659823454 0 0 0
109 0 1 -1.1794 14.257225325263951 5.9204326643072855 2.8319276237968443 0 0 0
111 0 2 0.5897 15.141715429050617 6.185580984887589 2.65026218964269 0 0 0
838 0 1 -1.1794 16.770170601798416 6.916551155314468 2.1100658921590956 0 0 0
839 0 2 0.5897 16.793083765149014 7.829727337117871 2.474197075596752 0 0 0
840 0 2 0.5897 16.836794504771273 7.037223414102997 1.159624206245343 0 0 0
842 0 2 0.5897 16.44692014636452 9.298373525835029 4.3218273748066665 0 0 0
841 0 1 -1.1794 16.517527218466796 9.279592354507948 3.2991626750155048 0 0 0
122 0 2 0.5897 2.9991877058312264 9.503027311805766 4.123915351278327 0 0 0
121 0 1 -1.1794 2.8481138587818795 9.639306361544039 3.162154425198994 0 0 0
44 0 2 0.5897 1.1893158209476853 10.343466955868658 2.620303366475944 0 0 0
373 0 1 -1.1794 0.45040983436916976 13.454995295864155 2.9208048725552676 0 0 0
43 0 1 -1.1794 0.41165541770165576 10.795420547410757 2.292170375591168 0 0 0
45 0 2 0.5897 0.5700066912107438 11.673459701703395 2.7200222214770577 0 0 0
374 0 2 0.5897 0.5306894060306305 13.61375587615059 3.8642450749283386 0 0 0
219 0 2 0.5897 4.248651970084869 10.429907030084623 2.5797985435326147 0 0 0
396 0 2 0.5897 0.8376716992849587 11.017733335987815 0.5365478073732874 0 0 0
173 0 2 0.5897 4.422035281615118 13.897193844791978 2.7201526776154448 0 0 0
557 0 2 0.5897 1.9891790143425727 14.112501358932704 2.251238641513627 0 0 0
172 0 1 -1.1794 5.227834459201998 13.401958318608202 2.9696707042321604 0 0 0
217 0 1 -1.1794 5.028329672011534 10.740332377939666 2.1652786230225454 0 0 0
174 0 2 0.5897 5.058564644648446 12.450961426885572 2.7124931174519062 0 0 0
218 0 2 0.5897 5.772960862471918 10.11880124817263 2.3659533998406523 0 0 0
773 0 2 0.5897 8.501539157635815 10.554292089867435 2.6807652997326246 0 0 0
92 0 2 0.5897 12.161608860037923 9.84563764252516 3.9988789202367445 0 0 0
91 0 1 -1.1794 12.16063426603676 9.770291869564927 3.051650732947367 0 0 0
772 0 1 -1.1794 9.436489187777832 10.670910267406533 2.525039930988673 0 0 0
774 0 2 0.5897 9.5951415299917 10.933347546434291 1.5950191245055727 0 0 0
93 0 2 0.5897 11.334120374053784 10.29301850982995 2.812928254365337 0 0 0
154 0 1 -1.1794 9.623819277411416 13.526695572177639 3.223132639993314 0 0 0
156 0 2 0.5897 9.59936498474639 12.594776325934044 2.93269739381293 0 0 0
155 0 2 0.5897 10.368834783828799 13.878477798178066 2.7656555650323646 0 0 0
560 0 2 0.5897 12.87184800518669 14.035044624380218 2.3314419690758603 0 0 0
860 0 2 0.5897 13.727897013223417 10.267728890594864 2.556129534823036 0 0 0
57 0 2 0.5897 14.410422567864886 12.358509967093994 3.071315770681906 0 0 0
56 0 2 0.5897 14.156184746619639 13.464168815908938 4.195006454963128 0 0 0
843 0 2 0.5897 17.253115178910594 9.841379626153573 2.9944102779774426 0 0 0
859 0 1 -1.1794 14.519149828462332 10.656174461302601 2.207941749184337 0 0 0
861 0 2 0.5897 15.242746486208897 10.085259049437663 2.5079870053746114 0 0 0
55 0 1 -1.1794 14.167794451431497 13.291339906991583 3.256511589673145 0 0 0
152 0 2 0.5897 14.459734161490763 11.324748583157904 0.5121986216192892 0 0 0
375 0 2 0.5897 17.900040102882617 13.94411097662826 2.5727939188529847 0 0 0
556 0 1 -1.1794 2.8456357177251714 14.526640603603703 2.189231701399846 0 0 0
292 0 1 -1.1794 3.1242499727282804 17.01595230363479 3.204900860673585 0 0 0
293 0 2 0.5897 2.9164446537925417 16.13047048367792 2.8829112673262056 0 0 0
558 0 2 0.5897 3.025900966829545 14.71706719172885 1.223541519894512 0 0 0
344 0 2 0.5897 1.8659711363196916 18.005501121273184 2.6235242469341533 0 0 0
294 0 2 0.5897 3.156757932470902 16.943615007671283 4.176428185086534 0 0 0
345 0 2 0.5897 0.8790895555021738 18.297198315106037 1.5343983360549327 0 0 0
343 0 1 -1.1794 0.9781412739356372 18.365767157701434 2.5105525292163877 0 0 0
227 0 2 0.5897 4.520004616535004 18.010867111498733 2.3605940994672228 0 0 0
479 0 2 0.5897 8.175026764198446 14.362941943030737 2.332120939723876 0 0 0
480 0 2 0.5897 6.543209907577217 14.278393395704262 2.168216192725577 0 0 0
448 0 1 -1.1794 7.508401275152356 17.367066728730308 2.9048247630041484 0 0 0
449 0 2 0.5897 7.496105478384207 16.403592242723768 2.6070289381444325 0 0 0
450 0 2 0.5897 6.719973143060044 17.75548286996262 2.5427032401975405 0 0 0
478 0 1 -1.1794 7.386157558423978 14.760352994058415 1.9167077006413724 0 0 0
317 0 2 0.5897 7.56118029856201 15.287855367710659 0.2165583202654 0 0 0
226 0 1 -1.1794 5.1473257465637134 18.536246640290727 1.8405316491473893 0 0 0
321 0 2 0.5897 9.163581344426554 18.01467478168837 2.313068755785131 0 0 0
320 0 2 0.5897 10.752249883671235 17.919526250258855 2.1545147001613447 0 0 0
559 0 1 -1.1794 12.063289817542477 14.486844126090357 1.9304400915837923 0 0 0
561 0 2 0.5897 12.2845775325446 14.635562803150103 0.9962787665074915 0 0 0
832 0 1 -1.1794 12.540769798776436 17.15378095804609 2.8428096134156493 0 0 0
833 0 2 0.5897 13.357114323399912 17.53125411108281 2.426920716233092 0 0 0
834 0 2 0.5897 12.318637697245002 16.255650044233832 2.538818463634466 0 0 0
319 0 1 -1.1794 9.980540298525074 18.51092635132313 2.0377626172014436 0 0 0
179 0 2 0.5897 15.381858080109044 14.508962868708904 2.6244627470859436 0 0 0
178 0 1 -1.1794 16.263732465605976 14.878878255337527 2.5264359725118695 0 0 0
180 0 2 0.5897 16.287962777220365 15.791024933351782 2.8316870400298217 0 0 0
745 0 1 -1.1794 16.756380336238934 17.477393075964045 3.234366638380157 0 0 0
746 0 2 0.5897 17.67118521776857 17.641606090451276 2.956088069599299 0 0 0
747 0 2 0.5897 16.09132728122674 17.846237762000882 2.618273776608281 0 0 0
614 0 2 0.5897 16.866869363043772 15.311556478395842 0.7579940737963412 0 0 0
305 0 2 0.5897 14.39386643885756 18.743530496293737 1.0611838499462438 0 0 0
304 0 1 -1.1794 14.579145928752192 18.488963157755585 1.95594425947137 0 0 0
188 0 2 0.5897 2.983846381086764 23.41882362887938 2.5732529478607677 0 -1 0
187 0 1 -1.1794 3.2187379624684733 22.609349209513944 2.050635146487603 0 0 0
189 0 2 0.5897 3.0634930945259047 22.894794684265108 1.1490750046727904 0 0 0
694 0 1 -1.1794 0.7230910400395943 21.25581912308987 2.881357007916687 0 0 0
695 0 2 0.5897 0.8119627763310932 20.31161270971142 2.7420923213041863 0 0 0
696 0 2 0.5897 1.6460260826604616 21.55758218533932 2.751878989911169 0 0 0
266 0 2 0.5897 4.855508888103059 21.741768186702657 2.3195774985916553 0 0 0
228 0 2 0.5897 5.272090024353078 19.362880309260355 2.3163369257036184 0 0 0
265 0 1 -1.1794 5.585420850195764 21.168422329643185 2.737491398427961 0 0 0
267 0 2 0.5897 6.378411479216336 21.68461620316433 2.5529717720742138 0 0 0
817 0 1 -1.1794 7.636848054126563 22.648861861021388 2.1309366959171054 0 0 0
818 0 2 0.5897 8.45995218513999 22.175271796459477 2.4027512439637153 0 0 0
498 0 2 0.5897 7.258038552666897 22.795382561645106 0.4743184391977803 0 0 0
249 0 2 0.5897 5.09820280603656 21.326843705837682 4.500519668821768 0 0 0
63 0 2 0.5897 11.993270316709461 23.398558212959394 2.7658473883136168 0 -1 0
389 0 2 0.5897 9.434633697579207 19.108777076637033 0.24497916073504994 0 0 0
61 0 1 -1.1794 12.032565951736888 22.44758426717825 2.559176282757955 0 0 0
62 0 2 0.5897 12.871389554035215 22.11388180467045 2.784280589636167 0 0 0
397 0 1 -1.1794 9.807508969398473 21.083203541038586 2.8826770752387088 0 0 0
398 0 2 0.5897 9.930979568867619 20.170136327153692 2.56187382378693 0 0 0
399 0 2 0.5897 10.638081344119641 21.594263567860928 2.7707384324759388 0 0 0
425 0 2 0.5897 12.28508220773841 22.824319814316198 0.5877731717087693 0 0 0
306 0 2 0.5897 14.433149923249347 19.350827317111445 2.4023104692892794 0 0 0
729 0 2 0.5897 17.607054264706743 22.314443213908355 2.404667720836276 0 0 0
118 0 1 -1.1794 14.462265427342892 21.22229795798107 2.8846164814566904 0 0 0
120 0 2 0.5897 15.294367326927013 21.734386185813044 2.917058112007889 0 0 0
727 0 1 -1.1794 16.779284435850407 22.741461312072673 2.122575925399002 0 0 0
728 0 2 0.5897 16.7964058012522 22.443703037243203 1.1879755306271331 0 0 0
119 0 2 0.5897 14.333490907121933 21.05569371856241 3.854656335212275 0 0 0
487 0 1 -1.1794 3.133637812475543 1.9538722334175642 5.920108364788204 0 0 0
488 0 2 0.5897 2.2970685209603596 2.3489834153147284 6.339567120675329 0 0 0
489 0 2 0.5897 3.0326802827331796 1.0293128145619854 6.224470497115483 0 0 0
785 0 2 0.5897 0.43235758354130316 3.1952503099289307 7.592018233628522 0 0 0
784 0 1 -1.1794 0.4750012712102973 3.1513355161028893 6.624495523110855 0 0 0
83 0 2 0.5897 4.579990626151418 2.63308735965281 6.452055177441418 0 0 0
846 0 2 0.5897 7.360048228398719 1.7611297987252883 4.914805249614527 0 0 0
82 0 1 -1.1794 5.373381421206689 2.769462128448251 6.9662786317840695 0 0 0
84 0 2 0.5897 6.1008553756818955 2.3878340276168237 6.479068959870151 0 0 0
844 0 1 -1.1794 7.589957074071779 1.6750970480862835 5.860608239274821 0 0 0
845 0 2 0.5897 7.437921445980419 0.7365990009609027 6.109129001471834 0 0 0
275 0 2 0.5897 5.378470115226822 3.0217992414620203 8.53761499939293 0 0 0
419 0 2 0.5897 8.857997655240963 2.5659759456419824 6.303551144165043 0 0 0
686 0 2 0.5897 5.545643281633345 4.708907769063148 6.253103759290908 0 0 0
177 0 2 0.5897 9.831599584914818 3.012182230031411 8.389062150278328 0 0 0
420 0 2 0.5897 9.697758279573387 3.8771853378001366 6.230242202024456 0 0 0
418 0 1 -1.1794 9.710465224162194 2.9765548364146257 6.532147219410276 0 0 0
802 0 1 -1.1794 12.055707514152688 1.777492819770288 5.836081948359937 0 0 0
803 0 2 0.5897 11.308475748601506 2.287227848629204 6.15398456439945 0 0 0
804 0 2 0.5897 12.882260434035912 2.216678484616768 6.18824596704046 0 0 0
786 0 2 0.5897 17.979490530810487 2.5488747252815265 6.32189170003405 0 0 0
436 0 1 -1.1794 14.561670795724353 3.014462467627065 6.392688924394575 0 0 0
437 0 2 0.5897 14.604457753310886 3.019752861276743 7.382472924331993 0 0 0
438 0 2 0.5897 15.344435892197843 2.524667959836619 6.108210398961355 0 0 0
658 0 1 -1.1794 16.649239814732972 1.8583667787423372 5.5163416350111145 0 0 0
659 0 2 0.5897 16.80437425997311 0.9057096191922904 5.598915301486887 0 0 0
732 0 2 0.5897 14.480059505104842 4.513727956288305 5.93785437086599 0 0 0
183 0 2 0.5897 0.7111776845028986 4.862897341529954 6.1429413856293476 0 0 0
10 0 1 -1.1794 3.0410311625255786 6.88816184933103 6.804321947991698 0 0 0
11 0 2 0.5897 2.1956803247312147 6.5374773719964825 6.447840318204635 0 0 0
12 0 2 0.5897 3.134632451106686 7.839529778496557 6.558506956787926 0 0 0
650 0 2 0.5897 2.965201735029073 6.943561657434457 8.54365163785127 0 0 0
181 0 1 -1.1794 0.7651504805000934 5.749129604630255 5.7532394181765625 0 0 0
687 0 2 0.5897 4.573643891980508 5.9635788571197015 6.032424649593704 0 0 0
685 0 1 -1.1794 5.531395922414356 5.622749381213024 5.882330561343352 0 0 0
145 0 1 -1.1794 7.249183803667055 6.77073731764726 7.350764482442503 0 0 0
146 0 2 0.5897 6.553189560835868 6.304397752992837 6.933022181070264 0 0 0
147 0 2 0.5897 7.319674055678959 6.568901091446474 8.28394003748679 0 0 0
714 0 2 0.5897 7.302261799660714 8.399144447675907 6.601529069686334 0 0 0
165 0 2 0.5897 8.930648092843555 6.108390955662271 6.521159735259471 0 0 0
712 0 1 -1.1794 7.459864474522268 9.161646171675963 5.991577209407853 0 0 0
163 0 1 -1.1794 9.77262202541963 5.788891568446279 6.1671349948631855 0 0 0
164 0 2 0.5897 10.534028506771596 6.134877326294484 6.683180074586619 0 0 0
230 0 2 0.5897 12.150062393954308 8.604008464340424 6.008118437352655 0 0 0
391 0 1 -1.1794 12.332649427874347 6.973023952779908 7.14925369207496 0 0 0
392 0 2 0.5897 12.148632608746633 6.5781956249654625 7.986441495731855 0 0 0
393 0 2 0.5897 12.852547269271469 6.318444807248699 6.713325291334059 0 0 0
229 0 1 -1.1794 12.057964650738203 9.456854865789177 5.613213598627551 0 0 0
182 0 2 0.5897 18.195693614914376 6.268570245615151 6.046789559892836 0 0 0
731 0 2 0.5897 14.196035009826229 5.514000688262541 4.72779982721499 0 0 0
730 0 1 -1.1794 14.417447434378404 5.50564047558882 5.6698903523828745 0 0 0
525 0 2 0.5897 16.40568663329308 8.414845602241112 6.292916760998693 0 0 0
541 0 1 -1.1794 16.55090893665369 6.691656290510277 6.665872939989519 0 0 0
542 0 2 0.5897 15.664689190221871 6.353639545456147 6.3284789612521415 0 0 0
543 0 2 0.5897 16.498945640289847 6.535881454632142 7.6563193254088615 0 0 0
523 0 1 -1.1794 16.28114803898102 9.41463164679925 5.939162820887375 0 0 0
793 0 1 -1.1794 3.05013676119563 9.524341152058843 5.984964600240082 0 0 0
795 0 2 0.5897 3.8403718919066563 10.07902173986495 6.1970954957926265 0 0 0
551 0 2 0.5897 0.595842013940922 11.211802198786508 7.401389461249669 0 0 0
794 0 2 0.5897 2.187925875165733 9.977944038873117 6.221739918895399 0 0 0
550 0 1 -1.1794 0.7810247638779774 10.96243949418113 6.4819723362752635 0 0 0
552 0 2 0.5897 0.7464022970840835 11.782352003612527 5.970987816319721 0 0 0
655 0 1 -1.1794 0.7223284023169739 13.739681365482499 5.5027105428983205 0 0 0
200 0 2 0.5897 5.38680444041089 13.571237365935426 4.811041811758719 0 0 0
713 0 2 0.5897 8.180257487719707 9.667505924422858 6.435291471184823 0 0 0
577 0 1 -1.1794 5.3000332268893295 10.770696174880898 6.386264808593362 0 0 0
578 0 2 0.5897 6.103154623627778 10.254277269787059 6.254094349296664 0 0 0
579 0 2 0.5897 5.443936943542156 11.645512998737484 6.01671273490596 0 0 0
199 0 1 -1.1794 5.461196627592961 13.535262919794018 5.793311966914536 0 0 0
582 0 2 0.5897 5.314915886537533 10.859326818460696 8.312658728939876 0 0 0
201 0 2 0.5897 6.234940728530578 14.141440816120667 5.954955345676443 0 0 0
806 0 2 0.5897 9.769987898619567 13.402324596888594 4.969372447815161 0 0 0
741 0 2 0.5897 9.855889412156488 10.769816626513737 7.710330650094191 0 0 0
231 0 2 0.5897 12.78115105498443 9.957663351996194 6.067037325891132 0 0 0
805 0 1 -1.1794 9.897267796158607 13.441354595788233 5.948268547101788 0 0 0
807 0 2 0.5897 9.729589682516723 12.513298459682707 6.21641847300658 0 0 0
739 0 1 -1.1794 9.886799784794157 10.760428349676243 6.739598716492396 0 0 0
740 0 2 0.5897 10.661913825531693 10.302106753068118 6.514309280325811 0 0 0
724 0 1 -1.1794 14.250773889070919 13.622831281024789 5.9594692090157695 0 0 0
524 0 2 0.5897 17.158747836405045 9.815155325905197 5.95863489711166 0 0 0
636 0 2 0.5897 14.178227875692523 11.846500465209548 6.121367672840345 0 0 0
634 0 1 -1.1794 14.14868221997305 10.918953191957778 6.362091050768541 0 0 0
635 0 2 0.5897 14.961269857262035 10.461484890794047 6.167670164734994 0 0 0
857 0 2 0.5897 14.204043324687488 11.354154376056947 8.156960373661617 0 0 0
725 0 2 0.5897 15.081078129945231 14.0467756467093 6.314128566275475 0 0 0
656 0 2 0.5897 1.451835174948492 14.257872563425693 5.771784715390993 0 0 0
18 0 2 0.5897 4.160279329564456 14.209029214537484 6.746689511289681 0 0 0
17 0 2 0.5897 3.0608763257215723 14.623496928612138 7.891752217021731 0 0 0
16 0 1 -1.1794 3.2998319007493513 14.68255199487235 6.941299102040646 0 0 0
238 0 1 -1.1794 3.196926867959299 17.229489387453995 5.842989376055513 0 0 0
239 0 2 0.5897 3.2940043141261217 16.36381788611842 6.30758613761866 0 0 0
240 0 2 0.5897 3.968560263707319 17.823977474410412 5.965501384501276 0 0 0
341 0 2 0.5897 1.7546211070272553 18.02708991185135 6.365667077114037 0 0 0
342 0 2 0.5897 1.0206443082093888 18.577208955630837 7.70974844555233 0 0 0
340 0 1 -1.1794 1.0162834945077461 18.582101679810044 6.7567351048445525 0 0 0
519 0 2 0.5897 8.480004140105732 14.751111176725226 6.538284494312739 0 0 0
308 0 2 0.5897 7.93707909596691 17.580319326573964 4.7475980151265755 0 0 0
517 0 1 -1.1794 7.57749941688393 15.106050557342625 6.4777151320448425 0 0 0
307 0 1 -1.1794 8.007542135460465 17.571517235962403 5.711739510281319 0 0 0
518 0 2 0.5897 7.721682594816817 16.043366457900973 6.249223302531147 0 0 0
309 0 2 0.5897 8.690193854290811 18.090960273173792 6.099257546266833 0 0 0
386 0 2 0.5897 6.520124173691323 18.728771665406597 6.179695679173319 0 0 0
378 0 2 0.5897 6.907677125704766 15.410749635931074 8.241666181461444 0 0 0
102 0 2 0.5897 5.532576552223128 18.73320695999911 8.218454359403296 0 0 0
645 0 2 0.5897 12.180123386984484 17.024373832455495 4.666011904653501 0 0 0
642 0 2 0.5897 11.433619782276159 14.234716288839016 6.527472897936772 0 0 0
640 0 1 -1.1794 12.118167657227488 14.84374270115094 6.919525067544931 0 0 0
641 0 2 0.5897 12.067681617258454 14.87133476960577 7.895166230034358 0 0 0
643 0 1 -1.1794 12.194298068565386 17.157746631648962 5.612450208003309 0 0 0
644 0 2 0.5897 12.165336112712236 16.293773847659153 6.078230438637863 0 0 0
303 0 2 0.5897 10.789650163324401 18.160869786991334 6.184843705419767 0 0 0
348 0 2 0.5897 13.371321189638806 18.02549468742012 6.542516530578028 0 0 0
734 0 2 0.5897 10.33780201315572 18.58967691072391 8.359376468714451 0 0 0
726 0 2 0.5897 13.502229857929514 14.191085974134952 6.4347463116861086 0 0 0
301 0 1 -1.1794 10.14413657562044 18.654849375186444 6.698022657227099 0 0 0
657 0 2 0.5897 18.162058816296824 14.208318332721731 5.85718047922795 0 0 0
564 0 2 0.5897 16.791883621437652 17.362579860835694 5.006117643684196 0 0 0
563 0 2 0.5897 17.58400509890801 17.69519083928499 6.2792511874451185 0 0 0
205 0 1 -1.1794 16.815528380182258 14.797037872271924 6.621343497557116 0 0 0
207 0 2 0.5897 16.773139781234633 14.888196419369677 7.594092603126821 0 0 0
206 0 2 0.5897 16.71964688098971 15.65143575826161 6.2583692464231175 0 0 0
562 0 1 -1.1794 16.71284057698967 17.305158566104843 5.955745863278873 0 0 0
347 0 2 0.5897 15.027844764184444 18.03059821581749 6.503294609171506 0 0 0
346 0 1 -1.1794 14.220871293012308 18.474976291646612 6.8827258675355445 0 0 0
371 0 2 0.5897 14.766551577083657 18.54834020701552 8.643673473111948 0 0 0
413 0 2 0.5897 0.45391029117645865 21.05021677717715 4.727453168932556 0 0 0
414 0 2 0.5897 0.8195590430850466 20.005561985634543 5.937900450796674 0 0 0
700 0 1 -1.1794 2.71054291748531 22.575482457780467 6.5343035702321 0 0 0
701 0 2 0.5897 2.89267775248521 22.38695520212309 7.496889100296235 0 0 0
702 0 2 0.5897 1.918535984647057 21.986088957163048 6.3275343540970805 0 0 0
412 0 1 -1.1794 0.5787225110445806 20.923671940488234 5.711931468042379 0 0 0
248 0 2 0.5897 4.378912078838219 22.035238905626734 5.651293119112198 0 0 0
385 0 1 -1.1794 5.613824101684307 18.905671329619558 6.523615210018349 0 0 0
247 0 1 -1.1794 5.047796696140719 21.3452363385068 5.481257723755409 0 0 0
31 0 1 -1.1794 7.515705430085831 22.421028481901175 6.529047684038237 0 0 0
32 0 2 0.5897 8.319266983026969 21.835437337176607 6.203707020739808 0 0 0
33 0 2 0.5897 6.697904066906491 22.149307444071276 6.111469145819715 0 0 0
86 0 2 0.5897 7.598587284605213 22.464690155442817 8.29239134560633 0 0 0
387 0 2 0.5897 5.382578973599062 19.782305017139272 6.153187356507161 0 0 0
171 0 2 0.5897 12.358862296247914 23.36288086781783 6.3631595503518765 0 -1 0
591 0 2 0.5897 9.689857275353848 21.388122170370245 4.754539328180455 0 0 0
169 0 1 -1.1794 12.248656617905342 22.36704820229432 6.583917835152801 0 0 0
302 0 2 0.5897 10.29731347374009 19.604873506894137 6.6456889496446285 0 0 0
589 0 1 -1.1794 9.881267260062947 21.24091501333016 5.6997903037840345 0 0 0
590 0 2 0.5897 10.626607339598475 21.87093697120835 5.864436155540556 0 0 0
330 0 2 0.5897 12.029552075108777 22.34824672687806 8.20046861775856 0 0 0
170 0 2 0.5897 13.069823133063938 22.042261283984566 6.170057922918782 0 0 0
534 0 2 0.5897 14.333841764032549 20.277178805606916 6.129223129758004 0 0 0
532 0 1 -1.1794 14.453123427328276 21.139261677490026 5.72467858974287 0 0 0
352 0 1 -1.1794 16.665863958394056 22.648736510358717 6.3049133731600735 0 0 0
353 0 2 0.5897 17.315418196258964 21.944830452054887 6.332468851551514 0 0 0
354 0 2 0.5897 16.680180869680694 22.87719006670141 7.272478551134744 0 0 0
533 0 2 0.5897 15.303374870092874 21.54153338749311 6.058806826893341 0 0 0
34 0 1 -1.1794 0.7834432155137608 3.054015985151798 9.335396274261585 0 0 0
36 0 2 0.5897 1.6188172735148048 2.60522002984564 9.570357325515708 0 0 0
167 0 2 0.5897 2.689382067794071 1.9823864577740926 11.67058542983264 0 0 0
673 0 1 -1.1794 3.1915941465451714 1.8056663024455533 10.095861125119216 0 0 0
674 0 2 0.5897 3.936917257782913 2.3467125637346737 9.767119580868604 0 0 0
675 0 2 0.5897 3.252097571917713 0.8344514567352604 9.891341478422596 0 0 0
35 0 2 0.5897 0.7954268323856014 3.963303099947433 9.677668645520908 0 0 0
166 0 1 -1.1794 2.4517463488424824 1.7300771016584042 12.648588095158152 0 0 0
168 0 2 0.5897 1.6234947256304013 2.0267664446876035 12.967029060963913 0 0 0
365 0 2 0.5897 0.23418500243500856 4.253521976062518 13.189879170842648 0 0 0
274 0 1 -1.1794 5.332759328598869 3.3915018469244123 9.430139890857841 0 0 0
276 0 2 0.5897 6.142022345813416 3.068440480052314 9.798858480215547 0 0 0
355 0 1 -1.1794 7.533919932161719 1.8158544542619888 10.284456484595161 0 0 0
356 0 2 0.5897 7.456417528545774 0.8987045589739341 10.046542650409886 0 0 0
357 0 2 0.5897 7.571686649884463 1.855274925956926 11.2781449214764 0 0 0
592 0 1 -1.1794 7.347590724235346 1.9472320535513605 13.139631045767043 0 0 0
176 0 2 0.5897 9.161076706404065 2.4694986663502894 9.693818989094162 0 0 0
175 0 1 -1.1794 9.831958488220334 3.1210485967500015 9.373434008673415 0 0 0
514 0 1 -1.1794 12.059217014153695 1.8130088682986543 10.178242231441498 0 0 0
515 0 2 0.5897 12.013188115121078 1.8182277782930023 11.144789809201837 0 0 0
516 0 2 0.5897 11.305690793730019 2.3039789498856313 9.806850019875608 0 0 0
757 0 1 -1.1794 11.634184833662514 1.7881656264012669 12.972088300834347 0 0 0
705 0 2 0.5897 9.620347622870941 4.499891622438772 10.413712008623536 0 0 0
758 0 2 0.5897 11.767982722102216 0.8481360878097643 13.116620454998799 0 0 0
849 0 2 0.5897 13.828653208669746 2.7121199939943423 9.333835145750163 0 0 0
847 0 1 -1.1794 14.632232953319335 3.0322141674568193 9.033405593228354 0 0 0
652 0 1 -1.1794 16.632396423028226 2.1225922786690843 10.354467417263534 0 0 0
653 0 2 0.5897 16.42055230637988 2.0524749109444924 11.316598540025483 0 0 0
654 0 2 0.5897 17.492250278892264 2.4768719337629754 10.266431137515 0 0 0
848 0 2 0.5897 15.330630214082046 2.632845975950113 9.489183588197875 0 0 0
545 0 2 0.5897 14.473410124671531 4.696099382020181 9.824053983730252 0 0 0
131 0 2 0.5897 16.572489600857356 0.3939636762607084 9.53729689870928 0 0 0
439 0 1 -1.1794 16.08394060469457 1.6479846033220644 13.199240052621288 0 0 0
649 0 1 -1.1794 2.982555981561873 7.177351045677223 9.484163439173438 0 0 0
112 0 1 -1.1794 0.6987519050416098 5.51791910093246 10.23901086635891 0 0 0
113 0 2 0.5897 0.7270834041206127 5.184886316369666 11.149790050218858 0 0 0
114 0 2 0.5897 1.548795232365691 5.943408674202635 10.186048368957392 0 0 0
257 0 2 0.5897 2.9465285800660292 8.781306852906063 10.01410129532656 0 0 0
651 0 2 0.5897 3.8122414215568523 6.725279604100648 9.746766826532337 0 0 0
364 0 1 -1.1794 0.3533832236857076 5.201792462910333 13.01389974392657 0 0 0
678 0 2 0.5897 5.1403689350297554 5.0286741871348735 10.011931491709657 0 0 0
761 0 2 0.5897 5.063680169905143 5.673263296347242 12.026620306196914 0 0 0
526 0 1 -1.1794 7.557371573804121 6.776767672431454 9.956441156489822 0 0 0
527 0 2 0.5897 7.58391394797211 7.741697106925814 10.051522643569747 0 0 0
528 0 2 0.5897 8.354922113472744 6.327358335697688 10.28240060066717 0 0 0
676 0 1 -1.1794 5.195950186460041 5.953861542317654 10.274959216740601 0 0 0
677 0 2 0.5897 6.088307765622186 6.267095391624532 10.187365113272685 0 0 0
760 0 1 -1.1794 4.948210973609998 5.597343720672007 13.001403235977136 0 0 0
475 0 1 -1.1794 7.181877637077873 9.207515676375982 12.935934327812204 0 0 0
704 0 2 0.5897 9.76148078047083 5.160196055742005 11.82808054456642 0 0 0
313 0 1 -1.1794 11.998200692292762 6.819351931387367 10.070541269110398 0 0 0
314 0 2 0.5897 11.35067493236464 6.099529417752507 10.240426931338385 0 0 0
315 0 2 0.5897 12.88050154241455 6.428848440269879 10.154893998942228 0 0 0
703 0 1 -1.1794 9.860291642130857 5.283629116691607 10.878229282163478 0 0 0
444 0 2 0.5897 11.911454402321734 8.6735038476569 10.196048663714388 0 0 0
815 0 2 0.5897 13.22468610444735 6.518788084072269 13.195786933167994 0 0 0
816 0 2 0.5897 13.95966735216255 5.904083731511373 12.112128408062794 0 0 0
544 0 1 -1.1794 14.412468491223528 5.450361746844382 10.38217195116784 0 0 0
546 0 2 0.5897 15.095302838757638 6.01794231687176 9.962996064412968 0 0 0
622 0 1 -1.1794 16.626588712616233 7.086477327926792 9.517600379959475 0 0 0
623 0 2 0.5897 17.46909977377663 6.6761753943543845 9.845348778174491 0 0 0
624 0 2 0.5897 16.635566988951894 8.05097812289682 9.611878510818896 0 0 0
814 0 1 -1.1794 13.887256327210732 5.874854221328656 13.047843786180719 0 0 0
195 0 2 0.5897 16.429452718667672 9.319691128568182 11.94362583666285 0 0 0
193 0 1 -1.1794 16.509100972400045 9.430142981932654 12.92544048752684 0 0 0
194 0 2 0.5897 16.584975814169148 8.478355325018924 13.249024475273796 0 0 0
797 0 2 0.5897 2.7833664618445635 9.950481738073954 12.168753981662293 0 0 0
256 0 1 -1.1794 2.871945037508454 9.728620620281362 10.185594884379569 0 0 0
796 0 1 -1.1794 2.666083739584655 9.675694135413298 13.112169479393044 0 0 0
258 0 2 0.5897 3.6814950589075814 10.120043012124164 9.835950640947985 0 0 0
14 0 2 0.5897 0.5197771244167991 11.722210258784326 9.722006549441618 0 0 0
15 0 2 0.5897 1.3912573510078154 10.521336663917399 9.488116428350411 0 0 0
13 0 1 -1.1794 0.4929702816274824 10.853066460706016 9.282113968082438 0 0 0
766 0 1 -1.1794 0.7442305078417303 13.507764964287 10.427253453682125 0 0 0
637 0 1 -1.1794 0.7879082732284147 13.391244161045513 13.200586104946481 0 0 0
767 0 2 0.5897 0.5211207510354535 13.479189587667081 11.375154041198698 0 0 0
768 0 2 0.5897 0.042198515870718524 14.07482673131195 9.962285580686238 1 0 0
821 0 2 0.5897 7.431674147476549 9.58318109315637 11.374863581194223 0 0 0
820 0 1 -1.1794 7.465577403121256 9.727418617636223 10.35809872848724 0 0 0