LAMMPS data file via write_data, version 29 Sep 2021, timestep = 400000

1008 atoms
2 atom types

0.19235645230335763 18.207198547694937 xlo xhi
-0.0867019928244428 22.657090992825673 ylo yhi
-0.0025909968918913506 19.50830699689285 zlo zhi
-0.07789784404066075 -7.0089964936462374 0.3550462881050791 xy xz yz

Masses

1 1.008
2 15.999

Atoms # full

1 0 1 0 6.596800626256052 0.9688493472527175 4.477385285005409 0 0 0
2 0 2 0 6.804058091003007 1.510477911976812 5.272956980438057 0 0 0
3 0 2 0 5.650456621459818 0.81983012657751 4.565954989709954 0 0 0
4 0 1 0 3.874054276902516 0.8455660393413003 4.798836964884276 0 0 0
5 0 2 0 3.1501512827760303 0.31995380058747636 4.458439873330643 0 0 0
6 0 2 0 3.7358860621119128 1.6950621341836347 4.342380806738835 0 0 0
7 0 1 0 -1.005630983070413 6.3349525764471055 5.046793035692019 0 0 0
8 0 2 0 -0.7321106844187224 6.096673753744499 5.937036019982634 0 0 0
9 0 2 0 -0.8273349478732498 5.554633583872583 4.4973105852462085 0 0 0
10 0 1 0 2.178368444799695 6.513684518848087 4.827716329152453 0 0 0
11 0 2 0 2.36638596161161 5.732631092555147 5.357700167482556 0 0 0
12 0 2 0 1.4391329935808865 6.873550749458021 5.29473520501957 0 0 0
13 0 1 0 4.778451786414502 4.761838313667685 9.80118354418194 0 0 0
14 0 2 0 3.795855963347074 4.580906363057447 9.908581721332574 0 0 0
15 0 2 0 4.8863243116170505 5.6171680977978795 10.276049035888578 0 0 0
16 0 1 0 5.764005401904891 4.771521253475107 0.23368226387938973 0 0 0
17 0 2 0 -0.31770109366920085 5.082526567664711 19.391215756129526 0 0 -1
18 0 2 0 5.38971801567298 3.8792721014135005 0.3060039161962577 0 0 0
19 0 1 0 1.1464967182782133 2.6695192804558716 0.21416240136906928 0 0 0
20 0 2 0 -5.751065702756435 2.4140944122962957 19.008852840414413 0 0 -1
21 0 2 0 1.121637787191515 2.0317544105425323 0.9478147069554552 0 0 0
22 0 1 0 0.10809847992615751 2.8485148211463667 9.299040455723357 0 0 0
23 0 2 0 0.33504433308403003 2.051141203155119 9.853260144209608 0 0 0
24 0 2 0 0.8189491085740745 3.5103698701463735 9.412037564895883 0 0 0
25 0 1 0 4.556186307517286 6.483363499349432 7.393983749175548 0 0 0
26 0 2 0 4.846888511008504 6.000215055762035 6.597885722657041 0 0 0
27 0 2 0 4.7789173004501 5.888068643696147 8.118087892033529 0 0 0
28 0 1 0 5.8682496827141755 6.746428898363418 2.32060595763835 0 0 0
29 0 2 0 5.151082997283398 7.35842998772785 2.135883741497364 0 0 0
30 0 2 0 5.862354404858621 6.008295126439781 1.6734238591463224 0 0 0
31 0 1 0 1.311205674244892 1.0814896635275526 2.3151652566416736 0 0 0
32 0 2 0 1.0779963244064124 1.3881842344026187 3.18782806254523 0 0 0
33 0 2 0 0.5284934282004612 0.5569829105043389 2.0378730352081784 0 0 0
34 0 1 0 -0.33320308880581173 1.251722767328701 7.000692054155144 0 0 0
35 0 2 0 -0.3512240217202742 1.92578763625044 7.723980191879032 0 0 0
36 0 2 0 -1.0986717966273212 0.6981354221980356 7.095611102548394 0 0 0
37 0 1 0 6.407037591497383 2.61068690889063 2.213408683035818 0 0 0
38 0 2 0 6.502059129528287 2.0054649702771052 1.4976039761199467 0 0 0
39 0 2 0 6.609629443687695 2.0777515415783063 2.9339287458356913 0 0 0
40 0 1 0 4.108124216134547 2.279462894095228 7.155945503422373 0 0 0
41 0 2 0 4.178892870582462 1.6331867185477855 6.451772144197607 0 0 0
42 0 2 0 3.9134093598515465 1.8030040710516848 7.959301791267535 0 0 0
43 0 1 0 -0.37846509587663313 5.221033544638089 7.454239942309241 0 0 0
44 0 2 0 -0.3262644141994566 5.4903782450211835 8.422607493053611 0 0 0
45 0 2 0 0.4371267904257583 4.742029898463295 7.2586893022313275 0 0 0
46 0 1 0 2.004988365144996 5.044017758492165 2.583718883025306 0 0 0
47 0 2 0 1.9595531925307452 5.600909791430619 1.7331320436882025 0 0 0
48 0 2 0 2.0805848946271084 5.681860289251254 3.3207309079453964 0 0 0
49 0 1 0 6.541444284858651 3.5625131997700676 6.568769608017438 0 0 0
50 0 2 0 5.72246753962871 3.12884168844847 6.873354156471322 0 0 0
51 0 2 0 6.287555124629998 4.3104411956291955 5.969448810486057 0 0 0
52 0 1 0 4.030694188351347 3.2299190538290237 3.5021909434226317 0 0 0
53 0 2 0 4.829798236612197 3.2163155137928676 2.9774351397275614 0 0 0
54 0 2 0 3.4012086244322353 3.837789962771536 3.0602490003474627 0 0 0
55 0 1 0 -0.5712140302927469 4.158968517578383 3.2804763877042946 0 0 0
57 0 2 0 0.31183753315335117 4.525780222540192 2.9523964334091524 0 0 0
58 0 1 0 2.236879348477988 4.394119890462848 6.514747377440233 0 0 0
59 0 2 0 2.1355151442344495 3.56475406168203 5.922693743440398 0 0 0
60 0 2 0 2.9819472260550324 4.057805358134526 7.0515467998595955 0 0 0
61 0 1 0 8.538941866826974 7.041290560059458 1.4101917728564086 0 0 0
62 0 2 0 7.9719132191457085 7.557610292710962 0.8572150357736104 0 0 0
63 0 2 0 7.83478424678483 6.669533766888396 2.0200728860128283 0 0 0
64 0 1 0 1.9747303453099234 7.228375778136761 8.144750869448146 0 0 0
65 0 2 0 2.3688192283057723 7.92758432096298 8.650367870522315 0 0 0
66 0 2 0 2.6846770338596335 6.742173687416007 7.67588441355476 0 0 0
70 0 1 0 4.026253332567413 0.1850080038988736 1.694867826944359 0 0 0
71 0 2 0 3.4257123484735272 0.49359330350844716 2.3419374545257985 0 0 0
72 0 2 0 4.692054485068669 22.48801362420152 2.1273643875116064 0 -1 0
73 0 1 0 5.269875845613318 5.610733877990242 4.823265116148385 0 0 0
74 0 2 0 4.69780253162969 4.859497634660267 4.556352579086359 0 0 0
75 0 2 0 5.484679993054786 6.095224751788849 4.002995933666154 0 0 0
76 0 1 0 0.9113173916010728 2.4997224114732335 4.955876958919375 0 0 0
77 0 2 0 0.4422897305578113 1.8410469330061265 5.441679790712214 0 0 0
78 0 2 0 0.19109178622030698 3.025627362897659 4.574469250726145 0 0 0
79 0 1 0 7.34845022878592 1.2918907024571697 0.009386100886033534 0 0 0
80 0 2 0 -0.25817606745192645 1.0724753638939197 18.941626318088254 0 0 -1
81 0 2 0 7.836668611529623 0.649197728863791 0.4798289709623527 0 0 0
82 0 1 0 2.516530746094225 6.114736551170671 0.21155574011187048 0 0 0
83 0 2 0 -5.222424986116705 7.009608549920454 19.339168829671245 0 0 -1
84 0 2 0 -4.1212923663671805 5.998151196312409 18.940113281052696 0 0 -1
88 0 1 0 12.656110669606575 1.3883676312265045 5.233210258928422 0 0 0
89 0 2 0 12.204796770013434 0.4979208390076788 5.400402019793353 0 0 0
90 0 2 0 12.737887929837925 1.6943098869003084 6.134255657654105 0 0 0
91 0 1 0 8.498209932420064 6.591659579005884 4.989202331881501 0 0 0
92 0 2 0 7.828984155195225 7.294225182735719 4.6941910256306825 0 0 0
93 0 2 0 8.34433169478036 5.854406651956117 4.368166623270559 0 0 0
94 0 1 0 11.095187660374018 6.251683288992564 4.87141590213454 0 0 0
95 0 2 0 10.225676613497738 6.72007940052303 4.972783384400446 0 0 0
96 0 2 0 11.752368782807041 6.955249140076261 5.019785078939478 0 0 0
100 0 1 0 14.561533366765975 4.825273587103414 0.08871929071915138 0 0 0
102 0 2 0 7.6315266324151825 5.714267969108557 18.76532559689229 0 0 -1
103 0 1 0 10.137434526837435 2.746314128431708 0.1521954741998182 0 0 0
104 0 2 0 2.563315953463471 3.877254904731458 19.427567217601904 0 0 -1
105 0 2 0 11.024768428803208 3.0341290880401472 0.410291427543566 0 0 0
106 0 1 0 9.224267838349276 2.8925390183872137 9.699972234989328 0 0 0
107 0 2 0 9.104876673557158 2.40218406968515 8.832403771637386 0 0 0
108 0 2 0 9.397704709094727 2.1365962191084895 10.322242369803623 0 0 0
111 0 2 0 12.466462034759175 6.455481980450369 7.183120219430003 0 0 0
114 0 2 0 14.814748690313909 5.800298144488107 1.593574286810941 0 0 0
115 0 1 0 10.324802698725934 1.0723908231464137 2.6373397188887395 0 0 0
116 0 2 0 11.258227319523133 0.9030548155147625 2.498981373517831 0 0 0
117 0 2 0 10.125074300281835 1.6614287841993558 1.922221967219782 0 0 0
118 0 1 0 8.934281940138526 1.2071718680860581 7.386689186403322 0 0 0
119 0 2 0 9.083734398816155 1.4133230544901936 6.501207885449799 0 0 0
120 0 2 0 9.716703784601787 0.6536855165970014 7.729018210048722 0 0 0
123 0 2 0 14.633827239194547 2.593092050739778 2.359444924394754 0 0 0
125 0 2 0 12.484657601325587 3.3763229655444054 7.372752430886035 0 0 0
127 0 1 0 8.80690666877916 5.06013048932766 7.343701111230221 0 0 0
128 0 2 0 8.537170697221912 5.544401914334584 6.546159635897614 0 0 0
129 0 2 0 8.136143902585847 4.375369242561679 7.264577966438884 0 0 0
130 0 1 0 11.088094966638518 5.1825875868759335 2.4181762386346732 0 0 0
131 0 2 0 10.158956452393408 4.893233237943154 2.439796808531635 0 0 0
132 0 2 0 11.241458540888615 5.588147084102728 3.295172314746239 0 0 0
135 0 2 0 -1.7454732597247444 4.1551197365085715 6.972739169542618 1 0 0
136 0 1 0 13.104712899466701 3.0920327616191905 3.203081595521867 0 0 0
137 0 2 0 12.313472138019312 3.577875686307439 2.958648234978733 0 0 0
138 0 2 0 12.765321900098883 2.4546517141504927 3.8569945849261162 0 0 0
139 0 1 0 8.361617688696931 4.202799025548164 3.3312708829658075 0 0 0
140 0 2 0 7.71536287318032 3.7851428265730527 2.744713673562269 0 0 0
141 0 2 0 8.583958076154316 3.584724412904939 4.041975469499037 0 0 0
142 0 1 0 11.146401970646059 4.155938991533024 6.231431057790035 0 0 0
143 0 2 0 11.429255059511927 4.881393473914473 5.726003643582465 0 0 0
144 0 2 0 10.487904620986368 4.438763017109672 6.906990645467264 0 0 0
148 0 1 0 10.972766001845685 7.120766170727017 8.253218016554351 0 0 0
149 0 2 0 10.493626165812758 6.495336159027976 8.793826374241483 0 0 0
150 0 2 0 10.288453952042953 7.750541534663123 7.861388648359015 0 0 0
151 0 1 0 6.313850953060514 0.31864282259533727 8.142453526371721 0 0 0
152 0 2 0 7.197316995423781 0.49826759896527106 7.720554402517 0 0 0
153 0 2 0 6.036105810601013 1.158253932187461 8.548584011136194 0 0 0
154 0 1 0 12.92184193215154 0.6267600538055768 1.5722937668593835 0 0 0
155 0 2 0 13.072333464866752 1.3551559287122024 0.9504784455429471 0 0 0
156 0 2 0 12.43600342199275 22.627644449420774 1.0521093504053192 0 -1 0
158 0 2 0 13.749721551002375 4.501206828769298 4.102398386369952 0 0 0
160 0 1 0 9.63638597374166 2.387768186964244 4.99131406714888 0 0 0
161 0 2 0 10.327875285250592 2.962687833866368 5.300749195662549 0 0 0
162 0 2 0 9.856887217126735 1.9813954906699056 4.133893152771291 0 0 0
165 0 2 0 8.157422180309982 1.1555823657575512 18.91828285432546 0 0 -1
166 0 1 0 4.72134845040925 6.694211228004718 19.325300561517054 0 0 -1
167 0 2 0 11.340329506887832 5.708160367231084 0.40729279541963376 0 0 0
168 0 2 0 3.969450168356307 7.25736838345041 19.031298985069355 0 0 -1
169 0 1 0 6.923341491123382 8.53559075692873 4.559052646694261 0 0 0
170 0 2 0 5.952372557068603 8.543584513889588 4.786050326066495 0 0 0
171 0 2 0 7.298321318529062 9.338808883071312 5.002215872742089 0 0 0
172 0 1 0 4.039533014669247 8.731646240657513 4.916314340555107 0 0 0
173 0 2 0 3.716144283721862 7.894598408848692 4.550133558956967 0 0 0
174 0 2 0 3.7368301149039924 9.351263932390403 4.227081509950127 0 0 0
175 0 1 0 -0.6707934714717432 14.045359868687312 4.848145755653415 0 0 0
176 0 2 0 -1.1597898346269209 14.85923035269286 4.7419060291534025 0 0 0
177 0 2 0 0.24478321653508806 14.399069132330862 4.903907980759498 0 0 0
178 0 1 0 2.1933788757179578 14.242555377159995 4.818873396980859 0 0 0
179 0 2 0 2.211662043622953 13.403904975437818 5.3766009895512825 0 0 0
180 0 2 0 2.138009939919194 13.944204915626612 3.9322417445220634 0 0 0
181 0 1 0 4.887612518646083 12.70108379362998 9.454389997431985 0 0 0
182 0 2 0 5.362330935129554 13.306013880750461 10.0366143399038 0 0 0
183 0 2 0 5.430289876840115 11.913335578009054 9.546283262709217 0 0 0
184 0 1 0 -1.8458627733160693 12.681472657695311 19.50020547058775 0 0 -1
185 0 2 0 -2.0252808802082116 13.45493832446538 18.947720068197725 0 0 -1
186 0 2 0 -0.900003304306396 12.666232699899528 19.393737612362365 0 0 -1
187 0 1 0 0.9918270595107466 10.215509850717792 0.2321413233759843 0 0 0
188 0 2 0 0.9605056013174944 9.983354184175989 1.180592185260826 0 0 0
189 0 2 0 1.9533672867982677 10.40876316319404 0.008264453610279325 0 0 0
190 0 1 0 0.2552253019608486 10.457948594532859 9.555267507161995 0 0 0
191 0 2 0 0.06935832194854052 9.98398954493586 8.747404352650165 0 0 0
192 0 2 0 0.853376736178447 11.215150335921566 9.419936938243607 0 0 0
193 0 1 0 4.495322070480212 14.101100163333468 7.064593032964106 0 0 0
194 0 2 0 4.650145105312659 13.506634194101272 6.301173862030116 0 0 0
195 0 2 0 4.7577857962121985 13.578913103780028 7.84908711218806 0 0 0
196 0 1 0 5.716072913643819 13.911524467038603 2.1444834880653074 0 0 0
197 0 2 0 5.4078104627801835 13.180858171718048 1.5098473461935955 0 0 0
198 0 2 0 5.677146871178488 13.442782513942493 2.998016583128458 0 0 0
199 0 1 0 1.1985298674561302 8.742107784231736 2.7331600710248485 0 0 0
200 0 2 0 0.6429988752273361 8.036364059797862 2.3503923565752185 0 0 0
201 0 2 0 2.0829513111050995 8.48849470196819 2.484310709794409 0 0 0
202 0 1 0 -0.42687739175024486 8.95887766326802 7.314442540682875 0 0 0
203 0 2 0 -1.267540412548708 8.477904491692671 7.56470559211938 0 0 0
204 0 2 0 0.36157771513308035 8.396072892071038 7.513725276309411 0 0 0
205 0 1 0 6.103310129446072 10.037968449996761 2.1006290391656153 0 0 0
206 0 2 0 6.330310155290007 9.307054235126984 2.676707438831074 0 0 0
207 0 2 0 6.737223148006158 10.763456871428257 2.3302307992736067 0 0 0
208 0 1 0 4.25523526398767 10.242230968401314 7.3545913785108645 0 0 0
209 0 2 0 3.5753422503791277 10.960106773944762 7.254910798900402 0 0 0
210 0 2 0 3.987230191144274 9.70793794489505 6.60464749273015 0 0 0
211 0 1 0 -0.49385446451593085 12.603811363155703 7.433223064392382 0 0 0
212 0 2 0 -0.7622880722813963 13.024021249246788 8.226319895852201 0 0 0
213 0 2 0 -0.6976185538641555 13.18842283174224 6.639411752457323 0 0 0
214 0 1 0 1.7656028053939337 12.482839871014052 2.392927534964727 0 0 0
215 0 2 0 1.8238030492498023 12.70281979575316 1.4524753266050707 0 0 0
216 0 2 0 0.8914448456134302 12.21440965719141 2.584068950022991 0 0 0
217 0 1 0 6.65310946049755 10.793823233315784 6.123388502291521 0 0 0
218 0 2 0 5.836131794887035 10.735585242699507 6.675132516604153 0 0 0
219 0 2 0 7.345118817322866 11.328708017988559 6.518299181497102 0 0 0
220 0 1 0 3.734408227106888 10.873475479574754 3.2808190067255576 0 0 0
221 0 2 0 4.487802398404073 10.654735763673377 2.6443688218299095 0 0 0
222 0 2 0 3.0487456210344472 11.450609387738856 2.888424056870536 0 0 0
223 0 1 0 -0.7516318725038507 11.715651931365656 3.1765405159043807 0 0 0
224 0 2 0 -0.3093380941384538 11.148752053312878 3.9033228874981867 0 0 0
225 0 2 0 -0.728245920906496 12.59678470077002 3.6189206682881827 0 0 0
226 0 1 0 2.0480629932583096 11.85848578291041 6.314323206728508 0 0 0
227 0 2 0 1.1525295195344363 12.110078927613117 6.685125907786378 0 0 0
228 0 2 0 1.8042999870238772 11.1018749020232 5.7384221371538615 0 0 0
229 0 1 0 8.2473163730646 14.499829911201628 1.464665880130047 0 0 0
230 0 2 0 7.577235903685242 14.267122659663551 2.1164809109175313 0 0 0
231 0 2 0 8.93869486995807 15.078524987829308 1.9149116133605097 0 0 0
232 0 1 0 2.110192480558444 14.805141380674788 8.207933738107961 0 0 0
233 0 2 0 2.9128852768119193 14.585269646428667 7.708900615764813 0 0 0
234 0 2 0 1.611002874801712 15.378250133299048 7.626464270742692 0 0 0
235 0 1 0 -2.7629855758355792 8.062156643164837 8.161110730055437 0 0 0
237 0 2 0 15.007845568823603 8.734883920556904 8.78735436401133 -1 0 0
238 0 1 0 3.7677114635030984 8.23780261296854 1.5698168248558884 0 0 0
239 0 2 0 3.7384888425810576 8.970655374020549 0.8798856642581513 0 0 0
240 0 2 0 3.363792228748396 7.530831673728602 1.0230792026053646 0 0 0
241 0 1 0 5.206932379541825 12.678235058072937 4.665802874276374 0 0 0
242 0 2 0 5.877562335082236 12.016841026064137 4.947979944279888 0 0 0
243 0 2 0 4.51119124864379 12.106539021421387 4.311736027181265 0 0 0
244 0 1 0 0.5259672983942583 9.98712206371834 5.072361012808287 0 0 0
245 0 2 0 0.6841705661997319 9.250359693342748 4.4642916881251145 0 0 0
246 0 2 0 0.110660523195667 9.537084916326075 5.850393661016562 0 0 0
247 0 1 0 0.01854339287672513 9.121837803494081 19.32301878778121 0 0 -1
248 0 2 0 6.804534103959759 9.344391653403777 0.5850781588780064 0 0 0
249 0 2 0 -0.8737582947050475 8.81348685666605 18.993200630459683 0 0 -1
250 0 1 0 -4.6003782334339824 13.852247520920402 19.424854040837047 0 0 -1
251 0 2 0 -5.15410612564374 14.457185147591897 18.917846746701734 0 0 -1
252 0 2 0 3.0965037730608307 14.11217196966213 0.2814327235949168 0 0 0
256 0 1 0 12.706089992701413 8.669308432671682 4.744015783817141 0 0 0
258 0 2 0 12.556782848488481 9.018524876192068 5.647218108255574 0 0 0
259 0 1 0 8.352786060254692 13.841796158908581 4.960177369836673 0 0 0
260 0 2 0 9.337615396041576 14.077861950521022 4.833518204427348 0 0 0
261 0 2 0 8.136347404098432 13.157258565590654 4.331877062829288 0 0 0
262 0 1 0 11.020624389230225 13.716369776318913 4.4996003739078265 0 0 0
263 0 2 0 10.905914575001908 13.565248791952474 3.494997588878074 0 0 0
264 0 2 0 11.58466364640723 14.501281176260763 4.531655797720063 0 0 0
268 0 1 0 14.302179732917839 12.364979426307627 0.3604110474875668 0 0 0
269 0 2 0 14.353489799153248 12.883462434877636 1.1816105559421064 0 0 0
270 0 2 0 13.66155515000034 11.63428874513073 0.5120269656177027 0 0 0
271 0 1 0 9.63793648425341 10.20954739041591 0.06052865126243963 0 0 0
272 0 2 0 3.5249301369739197 10.81169546022715 19.226969429187186 0 0 -1
273 0 2 0 9.864301245223366 10.023054944574476 1.0282747063145996 0 0 0
274 0 1 0 9.393621986050798 10.284611604177925 9.747057553136568 0 0 0
275 0 2 0 10.1360554387044 10.923134472435322 9.627778514444712 0 0 0
276 0 2 0 9.271146941707391 9.82911959358673 8.86280960113138 0 0 0
279 0 2 0 12.558602756943868 14.314403477296967 7.565555265457601 0 0 0
283 0 1 0 10.159136972271652 8.787832973123558 2.723622383111409 0 0 0
284 0 2 0 9.60611372477511 8.064574642774332 2.4715951684034825 0 0 0
285 0 2 0 11.049376725783441 8.449716922686731 2.4750678487001165 0 0 0
286 0 1 0 9.164573061575156 8.972861975075828 7.239611165327118 0 0 0
287 0 2 0 8.206158657139486 8.919087944881825 7.19044437545876 0 0 0
288 0 2 0 9.388538194688799 9.433761721510876 6.429718397607444 0 0 0
291 0 2 0 14.360090895419761 10.18963444691343 2.331032917915799 0 0 0
292 0 1 0 12.997911082109619 10.09551228116704 7.1847038976237165 0 0 0
295 0 1 0 8.522587560229985 12.466523577409413 7.44675636784405 0 0 0
296 0 2 0 8.45245997659985 13.184715717995728 6.791018409640668 0 0 0
297 0 2 0 9.488129276184939 12.177532328406262 7.3701182329635495 0 0 0
298 0 1 0 10.658330773699145 12.102896645920447 2.4730451292248485 0 0 0
299 0 2 0 10.930066078941696 12.568996376368885 1.6687023322041674 0 0 0
300 0 2 0 11.405594456006297 11.545611567139881 2.7878949815936016 0 0 0
303 0 2 0 -1.6376404434069487 10.792744112563218 6.9070785593512865 1 0 0
304 0 1 0 12.888900813385504 10.819318407531954 3.2406254950629823 0 0 0
305 0 2 0 12.57991415766549 9.958138578064279 3.626917229220765 0 0 0
306 0 2 0 13.088472878402078 11.447354267501908 3.9355406038839527 0 0 0
307 0 1 0 7.99272476044388 11.780835195073536 3.213488320690811 0 0 0
308 0 2 0 8.87749211903128 11.851537011643446 2.735938912712972 0 0 0
309 0 2 0 8.252484519313313 11.129069996849045 3.9362536643339117 0 0 0
310 0 1 0 10.996329123124507 11.900495483374915 6.480667645171716 0 0 0
311 0 2 0 11.79747333342549 11.425551757237058 6.758013486462557 0 0 0
312 0 2 0 11.24290959574867 12.552879931343318 5.84014229380591 0 0 0
314 0 2 0 -0.08328565018755663 14.886697868652499 1.9448323093862043 1 0 0
316 0 1 0 11.378045076102406 15.088018807414976 8.651062030152584 0 0 0
317 0 2 0 11.399510254972448 14.261909969214077 9.109286225332443 0 0 0
318 0 2 0 11.544971606485849 15.705985147389024 9.372327473045713 0 0 0
319 0 1 0 6.35564644329526 8.578913043438948 8.343971572736544 0 0 0
320 0 2 0 6.750016463153559 7.848994575098173 8.90409421607935 0 0 0
321 0 2 0 5.6606718559121 8.188000423097654 7.780686679116531 0 0 0
322 0 1 0 12.743025613383066 8.12368679477432 1.612780749508876 0 0 0
323 0 2 0 12.336918469116085 7.343976699062287 1.265660908672132 0 0 0
324 0 2 0 13.5292934874115 7.7614261202310955 2.0228402100172294 0 0 0
328 0 1 0 9.617380103754273 10.359751636321935 4.911636437210612 0 0 0
329 0 2 0 10.024146179973329 9.956751516117945 4.11730670017019 0 0 0
330 0 2 0 10.335126392637978 10.846395073142101 5.405656989359513 0 0 0
334 0 1 0 4.073102146719906 13.837798614487715 19.497932196385257 0 0 -1
335 0 2 0 4.589478409009052 13.52369940751603 18.721098245227076 0 0 -1
336 0 2 0 3.4209378659262057 14.384356478435532 19.090608496689214 0 0 -1
337 0 1 0 6.619165630548793 16.164066106657213 4.738116111904378 0 0 0
338 0 2 0 7.016495417022727 15.296460139946536 4.889356723292376 0 0 0
339 0 2 0 6.4912775422725595 16.31909908936924 3.812147673149897 0 0 0
340 0 1 0 3.803727478380986 16.28567141255384 5.016309937956565 0 0 0
341 0 2 0 3.2334273423597564 15.47967472600892 5.067141130133239 0 0 0
342 0 2 0 4.67259250382655 15.928071442656405 4.897723269367986 0 0 0
343 0 1 0 -0.7670953496843494 21.771462554950368 4.764555943750844 0 0 0
344 0 2 0 -0.723916048484498 21.33554884713075 5.641389315189698 0 0 0
346 0 1 0 1.999680266012037 21.666842249119618 4.139702687328476 0 0 0
347 0 2 0 2.323132313912026 20.999388704751503 4.715179837441169 0 0 0
348 0 2 0 1.0734260425461941 21.831056796235696 4.350734307963034 0 0 0
349 0 1 0 4.652857302807133 19.84002786923995 10.053903457892435 0 0 0
350 0 2 0 4.6768829321709795 20.7171852634343 10.543860150084988 0 0 0
351 0 2 0 4.50028041951377 20.13430510271326 9.123469321969601 0 0 0
352 0 1 0 5.590531261424359 19.874378846714027 0.4427299440397285 0 0 0
353 0 2 0 4.798577838685128 19.349093973442397 0.17650816555150267 0 0 0
354 0 2 0 5.465148597822976 20.163924013895375 1.353622617176597 0 0 0
355 0 1 0 -6.173703409139819 17.981486180944433 19.359745570708554 0 0 -1
356 0 2 0 0.9995401259762426 17.316467885497048 0.7312258106680035 0 0 0
357 0 2 0 -6.096852710316666 17.2172406682731 18.796677329875102 0 0 -1
358 0 1 0 0.45715075469411515 18.330503424543238 9.124276952651813 0 0 0
359 0 2 0 0.7428351465461636 17.50453207812429 9.611594675638637 0 0 0
360 0 2 0 0.955957629135145 19.099671409217162 9.570228792284984 0 0 0
361 0 1 0 3.95174881051566 21.574085333780427 7.421493505091289 0 0 0
362 0 2 0 4.601886480654628 22.127086744396852 7.816636358401919 0 0 0
363 0 2 0 3.0794702312544495 21.959726213479623 7.642702144995133 0 0 0
364 0 1 0 5.767600166779066 21.098216080305303 2.707489294893976 0 0 0
365 0 2 0 6.659771184183386 21.391429379929484 2.6482130000790955 0 0 0
366 0 2 0 5.448083652722248 20.83818303374645 3.5882336986383083 0 0 0
367 0 1 0 1.2333852060842956 15.960129375327393 2.416463379590989 0 0 0
368 0 2 0 2.221213778234751 15.747812905339961 2.350754988218867 0 0 0
369 0 2 0 1.04063794553847 16.479468511199716 3.2373135877526154 0 0 0
370 0 1 0 0.10149718670350705 16.51389760701548 7.22655560884381 0 0 0
371 0 2 0 0.20564491533643903 17.331142073009907 7.801774828652314 0 0 0
372 0 2 0 0.1529420278217688 16.81705084647492 6.327848854766267 0 0 0
373 0 1 0 5.996486187276707 17.371982266432497 2.359909393894137 0 0 0
374 0 2 0 6.104688441127757 17.36489292395244 1.3770880992870165 0 0 0
375 0 2 0 5.034569452051862 17.622326048748896 2.4992816046090174 0 0 0
376 0 1 0 3.8863768869670494 17.622526303293785 7.404066930710226 0 0 0
377 0 2 0 3.604254597657345 16.970597425832256 6.710772686112592 0 0 0
378 0 2 0 4.814476618901571 17.85877100016241 7.111831783540295 0 0 0
379 0 1 0 -0.7036954382769021 20.213087541493294 7.036699561032534 0 0 0
380 0 2 0 -1.4730563969174038 19.704773222381995 6.785254585985027 0 0 0
381 0 2 0 -0.7878671651880151 20.487250141502635 7.93502267620176 0 0 0
382 0 1 0 1.6969830757754083 19.79015310370415 2.05877450205681 0 0 0
383 0 2 0 2.1874794764030163 19.041638028314523 2.4169122410612816 0 0 0
384 0 2 0 2.035727833999383 20.37819950668664 2.756504313544867 0 0 0
385 0 1 0 6.274544905541571 18.25317479944446 6.498942404874658 0 0 0
386 0 2 0 6.915704128807823 18.734323283926507 7.074680467799518 0 0 0
387 0 2 0 6.634057338037402 17.4404487984401 6.0902222989735995 0 0 0
388 0 1 0 3.4906909933963974 18.423489667207612 3.418801048199934 0 0 0
389 0 2 0 3.6310185878856975 17.59823534773128 3.8822958798452936 0 0 0
390 0 2 0 3.90599761018839 19.04889117950266 4.059370844996666 0 0 0
392 0 2 0 -0.1171808653907167 19.67766162688187 2.428729454311373 0 0 0
393 0 2 0 16.77053598509751 20.07259975586173 3.415584922829378 -1 0 0
394 0 1 0 1.7838891573109867 19.270580391582463 6.405607197529085 0 0 0
395 0 2 0 0.8937297712666812 19.465854434583537 6.8143794254934855 0 0 0
396 0 2 0 2.310604701211615 18.699364273403557 6.95834672070662 0 0 0
397 0 1 0 8.135190150204728 22.032055984943593 1.951939941296075 0 0 0
398 0 2 0 8.367591735270908 21.227893050174924 1.4180185510704453 0 0 0
399 0 2 0 8.958288613890703 22.449129043991693 2.35576599196845 0 0 0
400 0 1 0 1.664252050277169 22.483264112426127 8.508038444533447 0 0 0
401 0 2 0 2.160662800418949 0.47917280764053927 8.982105836965307 0 1 0
402 0 2 0 1.0835227264830238 0.07512224223416766 7.875714358454056 0 1 0
403 0 1 0 -2.42589923825667 15.791150743376988 8.002415308232582 0 0 0
404 0 2 0 -1.5501707470418726 15.845172090235609 7.56544603704839 0 0 0
405 0 2 0 -2.51585349064345 16.540643012813888 8.604032952992707 0 0 0
406 0 1 0 3.7006833424210828 15.599093281045226 1.4677409672037283 0 0 0
407 0 2 0 4.460082363810329 15.15495152333026 1.9043998497089862 0 0 0
408 0 2 0 4.114055626702436 16.156344437314736 0.792158495224311 0 0 0
409 0 1 0 4.864331615750066 20.238675839175286 5.05906995360733 0 0 0
410 0 2 0 5.547194383075874 19.65358831664484 5.376978689469856 0 0 0
411 0 2 0 4.538737491620024 20.72125742441429 5.848293154922545 0 0 0
412 0 1 0 0.5583106047256328 17.62341221386989 4.613937505868827 0 0 0
413 0 2 0 1.2190227580376611 18.170500134597315 5.153611726738759 0 0 0
414 0 2 0 0.05209669075037593 18.27746678322094 4.127717863905007 0 0 0
415 0 1 0 -0.14483740224359654 16.566973616891534 19.36887380258593 0 0 -1
416 0 2 0 7.533825368493607 15.736601245036734 0.3388596290257298 0 0 0
417 0 2 0 0.36764226187522464 17.094410805462026 18.69989900340603 0 0 -1
418 0 1 0 2.6573316514630854 21.39415678126789 0.17436601098640606 0 0 0
419 0 2 0 2.319291712732678 20.63862988412527 0.6866058105126691 0 0 0
420 0 2 0 3.1527876675987603 22.06212403249861 0.7055407965640098 0 0 0
424 0 1 0 12.67181397642211 15.868985135461905 4.957831903770756 0 0 0
426 0 2 0 12.479379283390575 16.565815976516028 4.229817948867072 0 0 0
427 0 1 0 8.230831912079669 21.496747482709175 5.151539658675746 0 0 0
428 0 2 0 7.563433015594337 22.241120475533062 4.93919805812561 0 0 0
429 0 2 0 7.78648021133339 20.77135617048695 4.695051984975543 0 0 0
430 0 1 0 11.09909159926282 21.828796664717085 4.9556396009771255 0 0 0
431 0 2 0 11.244021396911492 21.549515656291526 4.051531790314345 0 0 0
432 0 2 0 10.153984963392178 21.901425360709535 5.008057730485 0 0 0
436 0 1 0 14.338737176299631 19.99104102999145 0.18948349517703167 0 0 0
438 0 2 0 13.69515999751822 19.2986574644336 0.06145915329053217 0 0 0
439 0 1 0 9.789282395015407 17.754771382061577 0.15590289370777569 0 0 0
440 0 2 0 10.76176971163545 17.946782503597635 0.37124365120595654 0 0 0
441 0 2 0 9.64928087054806 17.198509979977665 0.914616450963122 0 0 0
442 0 1 0 9.47148541987064 18.033408204097206 9.548108245518609 0 0 0
443 0 2 0 8.657313810329756 18.479310889387477 9.815977293784064 0 0 0
444 0 2 0 9.194709893339812 17.575484432517868 8.698132645735273 0 0 0
447 0 2 0 12.360165722513033 21.841940828417652 7.450374549355731 0 0 0
448 0 1 0 14.649781616031245 21.657046441225624 2.5158990318416024 0 0 0
449 0 2 0 14.290341611427115 21.020765894221956 1.9071470553641376 0 0 0
450 0 2 0 14.213666733304246 22.47996940694311 2.3303570109660656 0 0 0
451 0 1 0 10.021527111525542 16.340149485452955 2.4015728480993346 0 0 0
452 0 2 0 10.978748541169427 16.133813038040348 2.4480222246660497 0 0 0
453 0 2 0 9.808337131073516 16.567754016695726 3.317697597866528 0 0 0
454 0 1 0 9.216846556752294 16.50412906782435 7.397373875458307 0 0 0
455 0 2 0 8.378740736270213 16.059396691956156 7.487403854717831 0 0 0
456 0 2 0 9.877315580529332 15.808894035650605 7.496847112348641 0 0 0
461 0 2 0 12.252007218907156 18.34200236950097 6.900808493938157 0 0 0
462 0 2 0 12.830060134079474 17.014095425426827 6.358688146929848 0 0 0
463 0 1 0 8.506718809213844 19.963198925213955 7.494169647930578 0 0 0
464 0 2 0 8.300818936583584 20.55489031394281 6.731608396113392 0 0 0
465 0 2 0 8.308592481790635 20.575316638371362 8.240588386262223 0 0 0
466 0 1 0 10.705983744600008 20.138445996926595 2.728259749057779 0 0 0
467 0 2 0 11.272641406130084 19.396094482261667 2.768683871189253 0 0 0
468 0 2 0 9.835585600858616 19.850956090433087 3.0471165685098747 0 0 0
472 0 1 0 12.524827124791631 18.20210479755305 3.3935109435822235 0 0 0
473 0 2 0 13.421822643459768 17.97820965197928 3.0684509057657516 0 0 0
474 0 2 0 12.792118658946729 18.821093647965775 4.024097639785756 0 0 0
475 0 1 0 8.20150074598841 19.034529575078267 3.6264544777305754 0 0 0
476 0 2 0 8.545460860189891 18.216222538382702 4.09472151059942 0 0 0
477 0 2 0 7.574585728938941 18.651120344458707 2.911481973162894 0 0 0
478 0 1 0 10.910303812916524 19.549875573302515 6.411915837110814 0 0 0
479 0 2 0 10.26561498376184 19.68189747681338 7.165242987600302 0 0 0
480 0 2 0 11.080753493123998 20.469503815556326 6.15166017786606 0 0 0
484 0 1 0 10.828527655949465 22.58627360987053 8.447092031322745 0 0 0
485 0 2 0 11.381710725976347 0.42631051813209886 9.064553965172685 0 1 0
486 0 2 0 10.84233203947239 21.652143080405732 8.749536918676734 0 0 0
487 0 1 0 6.835406524324325 15.785655690999668 8.269708706018974 0 0 0
488 0 2 0 6.866250987035291 15.022408765403233 8.89773211943609 0 0 0
489 0 2 0 6.008022167301907 15.631017763106188 7.704695997246528 0 0 0
490 0 1 0 12.329706247218002 15.204767699363378 1.975013276875739 0 0 0
491 0 2 0 13.212622108154322 14.842199581323339 2.1793385831577052 0 0 0
492 0 2 0 12.12068022104805 14.72549198601399 1.1100673645431187 0 0 0
496 0 1 0 9.824860950422282 17.387354669475272 4.854101897808674 0 0 0