LAMMPS (29 Sep 2021 - Update 2)
  using 1 OpenMP thread(s) per MPI task
echo both

include		in.partitions
variable        pid world 0
include		in.temp
variable        temperature equal 255
variable        tempDamp equal 0.100 # this is 0.1 ps
include		in.pressure
variable        pressure equal 5066.25
variable        pressureDamp equal 1.0 #this is 1ps
include		in.seed
variable        seed world 745823

units           metal
atom_style	full
include		in.box
read_data       iceV.data
Reading data file ...
  triclinic box = (0.0000000 0.0000000 0.0000000) to (18.399555 22.570389 19.505716) with tilt (0.0000000 -6.7926110 0.0000000)
  1 by 1 by 1 MPI processor grid
  reading atoms ...
  1008 atoms
Finding 1-2 1-3 1-4 neighbors ...
  special bond factors lj:    0        0        0       
  special bond factors coul:  0        0        0       
     0 = max # of 1-2 neighbors
     0 = max # of 1-3 neighbors
     0 = max # of 1-4 neighbors
     1 = max # of special neighbors
  special bonds CPU = 0.003 seconds
  read_data CPU = 0.025 seconds
include 	in.setup
variable	out_freq equal 500
variable	out_freq2 equal 500

timestep        0.0005

neigh_modify    delay 7 every 1

include         in.deepmd
# This is deepMD model

# create groups ###
#group ox type 2
#group hy type 1

mass 2 15.999
mass 1 1.008

pair_style      deepmd ../graph.pb
pair_coeff      * *

bond_style      none
angle_style     none
dihedral_style  none
improper_style  none
neigh_modify exclude none


neighbor        2.0 bin
neigh_modify    every 10 delay 0 check no

thermo          ${out_freq}
thermo          500
thermo_style 	custom step temp pe etotal epair emol press lx ly lz xy xz yz vol pxx pyy pzz pxy pxz pyz

restart 	${out_freq} restart.lmp.${pid} restart2.lmp.${pid}
restart 	500 restart.lmp.${pid} restart2.lmp.${pid}
restart 	500 restart.lmp.0 restart2.lmp.${pid}
restart 	500 restart.lmp.0 restart2.lmp.0


include         in.dump
dump            myDump all atom ${out_freq2} dump.water.${pid}
dump            myDump all atom 500 dump.water.${pid}
dump            myDump all atom 500 dump.water.0
dump            myDump2 all dcd ${out_freq2} dump.dcd
dump            myDump2 all dcd 500 dump.dcd
dump_modify     myDump append yes
dump_modify     myDump2 append yes


timer           timeout 03:55:00 every 1000
New timer settings: style=normal  mode=nosync  timeout=03:55:00

fix             2 all nph tri ${pressure} ${pressure} ${pressureDamp}
fix             2 all nph tri 5066.25 ${pressure} ${pressureDamp}
fix             2 all nph tri 5066.25 5066.25 ${pressureDamp}
fix             2 all nph tri 5066.25 5066.25 1
fix             3 all temp/csvr ${temperature} ${temperature} ${tempDamp} ${seed}
fix             3 all temp/csvr 255 ${temperature} ${tempDamp} ${seed}
fix             3 all temp/csvr 255 255 ${tempDamp} ${seed}
fix             3 all temp/csvr 255 255 0.1 ${seed}
fix             3 all temp/csvr 255 255 0.1 745823
velocity 	all create ${temperature} ${seed} dist gaussian
velocity 	all create 255 ${seed} dist gaussian
velocity 	all create 255 745823 dist gaussian

run             400000

CITE-CITE-CITE-CITE-CITE-CITE-CITE-CITE-CITE-CITE-CITE-CITE-CITE

Your simulation uses code contributions which should be cited:

- USER-DEEPMD package:

@article{Wang_ComputPhysCommun_2018_v228_p178,
  author = {Wang, Han and Zhang, Linfeng and Han, Jiequn and E, Weinan},
  doi = {10.1016/j.cpc.2018.03.016},
  url = {https://doi.org/10.1016/j.cpc.2018.03.016},
  year = 2018,
  month = {jul},
  publisher = {Elsevier {BV}},
  volume = 228,
  journal = {Comput. Phys. Commun.},
  title = {{DeePMD-kit: A deep learning package for many-body potential energy representation and molecular dynamics}},
  pages = {178--184}
}

CITE-CITE-CITE-CITE-CITE-CITE-CITE-CITE-CITE-CITE-CITE-CITE-CITE

Neighbor list info ...
  update every 10 steps, delay 0 steps, check no
  max neighbors/atom: 2000, page size: 100000
  master list distance cutoff = 8
  ghost atom cutoff = 8
  binsize = 4, bins = 7 6 5
  1 neighbor lists, perpetual/occasional/extra = 1 0 0
  (1) pair deepmd, perpetual
      attributes: full, newton on
      pair build: full/bin
      stencil: full/bin/3d
      bin: standard
Per MPI rank memory allocation (min/avg/max) = 7.699 | 7.699 | 7.699 Mbytes
Step Temp PotEng TotEng E_pair E_mol Press Lx Ly Lz Xy Xz Yz Volume Pxx Pyy Pzz Pxy Pxz Pyz 
       0          255   -178.42725   -145.23519   -178.42725            0    35988.795    18.399555    22.570389    19.505716            0    -6.792611            0    8100.4335    35524.775     36761.37    35680.241   -447.37001     1250.356    367.17926 
     500    252.09499   -165.71298   -132.89904   -165.71298            0    10477.023    18.076192    22.292531    19.317522 -0.029427642   -6.7735945 -0.0084530157    7784.2674    9494.9759    10820.197    11115.898   -2459.2094    46.628451   -318.23573 
    1000    255.40596   -164.95282   -131.70792   -164.95282            0    5909.2651    18.086702    22.669856    19.543884 -0.027291529   -6.8988126   0.01486263    8013.4407    6654.4699    6663.6633     4409.662    2162.7054    29.571247   -1365.7927 
    1500     249.8727   -165.21962   -132.69495   -165.21962            0    17256.102    18.072487    22.744939    19.416813 -0.017539344   -6.9636057 -0.0016039463    7981.4287    20530.383    14629.072     16608.85    -1657.767    3263.3843    1805.8104 
    2000    249.64176   -162.99995   -130.50534   -162.99995            0   -2305.2446    18.074908    22.696137    19.310586 -0.0039655858   -6.9905596 -0.044771935     7921.793   -107.81717    68.944216   -6876.8609   -412.97096    489.85871    1532.4944 
    2500    258.30709   -163.44114   -129.81861   -163.44114            0    3004.5921    18.200474     22.87414      19.3637 -0.016734741   -7.0399565 -0.068416983    8061.4993    3458.8659    1271.9405      4282.97   -568.02483    -820.2742    106.74136 
    3000    266.73458   -163.94322   -129.22373   -163.94322            0    11478.058    18.042386    22.660479    19.235579 -0.018116048   -6.9792118 -0.011611557    7864.4495    11234.959    10192.941    13006.276   -473.53268    57.375403   -628.32135 
    3500    253.78889    -164.5415   -131.50707    -164.5415            0   -2363.8145    18.126426    22.759009    19.424506 -0.007217043   -7.0003568   0.13086007    8013.3755   -462.85668   -1370.2987   -5258.2879   -80.813166   -58.653901   -780.28678 
    4000    247.96809   -164.12323   -131.84647   -164.12323            0    3997.8137    18.103522    22.752157    19.433624 -0.011048088   -6.9268724   0.16579774    8004.5968    4191.6186       3980.5    3821.3224    1420.5087   -501.28039     3285.979 
    4500     255.6177   -164.90554   -131.63308   -164.90554            0    6400.1915    18.037812    22.595245    19.309007  -0.03392781   -6.8301044  0.044357644    7869.7483    3916.8815    9332.9409    5950.7522    531.82426   -142.30891   -692.48923 
    5000    244.55757   -163.16055   -131.32772   -163.16055            0    1262.1675     18.23052    22.721808    19.397719   -0.1263459   -6.8475002  -0.17735025    8035.1246    1050.6278    965.87707    1769.9976    213.25027   -2251.4518   -1209.4414 
    5500    248.82375   -164.65792   -132.26979   -164.65792            0    7295.7883    18.131108    22.585412    19.290061  -0.10708503   -6.8399756  -0.17220147    7899.2521    7116.4254    6639.0688    8131.8707   -865.25612    1392.1591   -274.96167 
    6000    247.53033   -163.26598   -131.04621   -163.26598            0    5760.6582    18.096575    22.507947    19.484865  0.041358198   -6.9281278  0.091367833    7936.5119     4162.088    8785.7503    4334.1364   -4048.7023   -1593.2143   -459.82432 
    6500    247.57342   -164.16549   -131.94011   -164.16549            0    3373.5624    18.033453    22.663125    19.563891  0.053875057    -6.999329   0.39409303    7995.6527    4825.2452     3093.078     2202.364   -568.81057    1789.6231   -4254.4001 
    7000    254.79512   -162.85508   -129.68968   -162.85508            0    8057.4023    18.102501    22.627174    19.402992 -0.098376128   -7.0702972   0.36888244    7947.6295     9665.925    8624.9677    5881.3144    2977.0226    2249.8872   -577.91933 
    7500     260.4143    -164.1282   -130.23138    -164.1282            0    4665.8336    18.258722    22.705209    19.230421  -0.34873757   -7.0852955 -0.037012461    7972.3193    2632.5314    6818.0868    4546.8827   -2663.4541     1143.457    2913.2925 
    8000    256.14075   -164.56502   -131.22447   -164.56502            0    5022.3411      18.1947    22.730653    19.234412  -0.36778377   -6.9258229  -0.32206296    7954.9184    2935.2191     373.8709    11757.933    1188.6169    2065.9596     1237.384 
    8500    241.25149   -163.76044   -132.35795   -163.76044            0    4410.1733    18.010189     22.67797     19.44956 -0.061161052   -6.7407011    -0.210972     7943.872    3517.9454      5987.07    3725.5045   -1508.8487     1272.028    1541.8417 
    9000    256.37981   -162.95591   -129.58424   -162.95591            0    3573.1901    17.959234    22.737476    19.548739   0.29006339   -6.6523118  0.059794319    7982.6813    3305.2872    3147.3976    4266.8856    233.79727   -2243.3557   -2106.7422 
    9500    258.20582   -163.50801   -129.89866   -163.50801            0    5567.5092    18.050108    22.634065    19.463299   0.38392726   -6.7579522   0.18742536    7951.6785    11365.735    2658.6426    2678.1498   -4134.5187    -13.01326   -1788.6358 
   10000    255.77459    -162.8017   -129.50881    -162.8017            0    4304.7992    18.332013     22.58454    19.342252   0.11995316   -6.9327987  0.094460182    8008.0805    1789.0548    7736.7097    3388.6332   -1178.4647    1171.9852   -2931.0227 
   10500    272.53571   -163.55505   -128.08044   -163.55505            0    2308.3777    18.316162    22.547274    19.261589  -0.21234947   -6.9786743 -0.081476688    7954.6418    4057.9251    1292.8616    1574.3464   -1321.1255    -2256.825     1836.402 
   11000    262.89797   -164.63002   -130.40992   -164.63002            0    6679.9643    18.164216    22.610355    19.482299  -0.36905781   -6.9915186  -0.11232833    8001.3675    6448.9684    6209.8154     7381.109    1889.1243    3933.8209   -1440.1306 
   11500    258.25828   -164.64616   -131.02998   -164.64616            0    5098.8496    18.028147    22.661974    19.588253  -0.25466243   -6.8978972  -0.03947035    8002.8472    3061.8854    7035.5177    5199.1457   -230.15397    852.21129     1096.371 
   12000    263.14733   -163.50893   -129.25637   -163.50893            0    6092.5382    18.045133     22.60975    19.370479   0.02747769   -6.8310013   0.13978171    7903.0771    7781.1169    4657.0155    5839.4822    319.84751   -555.51132   -1823.6932 
   12500     253.5141   -162.25843   -129.25978   -162.25843            0    4790.2209    18.270563    22.783934    19.352704   0.24492574   -6.8927538   0.19417783    8056.0524    2904.9094    4990.0205    6475.7328    1926.1194    -262.1904    1105.5062 
   13000    263.29768   -162.84715   -128.57501   -162.84715            0    7001.0532    18.178221    22.736082    19.259543   0.18639507   -6.8485647 -0.015796191    7959.9984    7799.9345    5412.4256    7790.7996   -738.84612   -424.17373   -828.82781 
   13500    255.06793   -164.44621    -131.2453   -164.44621            0    4146.1028    18.054159    22.719546    19.365135 -0.027325225   -6.8239284  -0.16349078    7943.2353    3765.3695    4400.6955    4272.2434   -517.79701   -528.04775    2513.8939 
   14000    247.04019   -164.12317   -131.96719   -164.12317            0    5151.9601    18.026954    22.832109    19.507388  -0.28516839   -6.8545017  -0.12202111    8029.1117    6496.8849    7494.9664     1464.029    754.88328    267.63522     1398.593 
   14500    245.76883   -164.96196   -132.97147   -164.96196            0    3277.6768    18.078254     22.64629    19.305499    -0.270039   -6.8482689  0.088268144    7903.7753    3015.4156    2877.2733    3940.3414    3196.4149    92.980563   -916.55407 
   15000    255.98746   -163.78145   -130.46085   -163.78145            0    1343.8056    18.275103    22.593238     19.31633  -0.12179309   -6.9334798   0.35673187    7975.5917   -1918.0826    2196.7321    3752.7671    1990.8219    2785.5199    369.59096 
   15500    256.79335   -163.98808   -130.56258   -163.98808            0    3281.7908    18.204016    22.523964    19.418734  0.016795349   -6.9720176   0.36762687    7962.1974    7625.4685    1697.2106    522.69317    482.17895    104.46729   -5555.5816 
   16000    255.31268    -163.2588   -130.02603    -163.2588            0    6219.4039    18.037039    22.422802    19.604074   0.10912761   -6.9892596 0.0035451679    7928.6906    6414.8088    6868.3215    5375.0815    6.7091529   -564.79699    1229.9871 
   16500     253.0415   -163.19801   -130.26087   -163.19801            0    3056.3499    18.052684    22.591038    19.562642   0.12983335   -7.0585038  -0.34483868    7978.2104     2472.256     2702.618    3994.1759    56.289038    1404.8552   -2649.6832 
   17000    253.80926   -162.94253   -129.90546   -162.94253            0    4457.6312    18.192272    22.704765      19.3054  0.045413567   -7.1086459  -0.34103137    7974.1198    3099.5477    4162.4963    6110.8498    1034.9111    -475.2116    925.37237 
   17500    267.88937   -165.42767   -130.55786   -165.42767            0    9025.5274    18.247304    22.724318    19.181821 -0.039030418   -7.1048348  0.029577179    7953.8871    9985.9239     7170.978    9919.6803    1676.4554   -1638.0682   -1101.0907 
   18000    250.59376   -164.92734   -132.30882   -164.92734            0    3592.4063    18.205802    22.699103    19.303213  -0.13678582   -7.0391814   0.37465922    7977.1564     3742.126    2030.9153    5004.1776   -2890.7541    88.654978    -2227.155 
   18500     255.3983   -165.09926   -131.85535   -165.09926            0    3571.2052    18.047817    22.590137    19.497412  -0.25310887   -6.9174841   0.38178478    7949.1466    2583.0763    3955.9668    4174.5725    886.81642    1800.3885   -1564.8862 
   19000    247.23046   -163.65909   -131.47834   -163.65909            0    5356.0714    18.024945    22.565067    19.554684  -0.27798733   -6.8294548   0.14058754    7953.5565    5347.5609     4819.478    5901.1752    463.29418     2867.929    -4.236167 
   19500    254.55098   -164.01634   -130.88272   -164.01634            0    5884.7551    18.189073    22.549817     19.45731   -0.1113671   -6.8329735    -0.129192    7980.6158    4985.7027     5724.322    6944.2406    1614.5663   -1085.0404   -2648.3476 
   20000     246.7722   -164.53801   -132.41692   -164.53801            0    8160.2444    18.242256    22.526627    19.307511   0.19886115   -6.8033665  -0.25603379    7934.1608    6103.4489    7783.7156    10593.569   -1153.9464   -1751.6402   -774.69154 
   20500    254.68862   -165.20922   -132.05768   -165.20922            0    6442.7408    18.171103    22.663682    19.342995   0.48189373    -6.805615  -0.17061811    7965.9118    6213.1494    5421.5143    7693.5587   -2103.3168    1738.6759    3640.7885 
   21000    254.27597   -164.69554   -131.59772   -164.69554            0    7322.3157    18.026202    22.811539    19.389726   0.42236803   -6.8265543  0.062706774    7973.1602    8539.2732    5042.0312    8385.6426   -4382.6511   -10.046695   -3046.2511 
   21500    247.65477   -165.56181   -133.32583   -165.56181            0    7793.3439    18.013787    22.851328    19.269704 -0.094208668   -6.9446354   0.14628886    7932.1608     6571.671     8863.752    7944.6087     2071.882      2571.86   -356.50064 
   22000     251.5445   -163.89502   -131.15274   -163.89502            0    8896.1912    18.137379    22.807223    19.253753  -0.53228058   -7.1145463   0.10905584    7964.5698    3651.6876     10867.45    12169.436    2220.3793    1087.1591   -1598.1852 
   22500    260.35813   -164.51999   -130.63048   -164.51999            0    3606.6572    18.144793    22.747409    19.308042  -0.52287295   -7.0988705   0.13519213    7969.3369    5366.9647    2799.4814    2653.5254    1563.8048    891.00765    659.49431 
   23000    242.23342    -163.9513     -132.421    -163.9513            0    1757.6811    18.064272     22.78171    19.374685  -0.14293203   -6.9313502   0.19386806    7973.3611    3146.6423    2700.6281   -574.22706   -1712.2236   -779.33646   -1339.6895 
   23500     249.8443   -163.42542   -130.90445   -163.42542            0    5660.1112    18.061421    22.661103    19.360591   0.26147741   -6.7994773   0.12760224    7924.1296     8867.993    3559.1268     4553.214   -2684.3715   -447.82939   -249.40637 
   24000    263.69453   -163.48303   -129.15924   -163.48303            0    3169.8323    18.238358     22.68101    19.385124   0.42531467   -6.7944929 -0.058474105    8018.9352    -546.9324    4785.3578    5271.0715   -514.14518    1332.9215    1890.2845 
   24500    262.36964   -163.58207   -129.43074   -163.58207            0    3165.1054     18.19088    22.603518    19.339047   0.29207991   -6.7938055  -0.25308153    7951.7882    4424.1484    2774.6114    2296.5563   -1142.9989   -3490.0982    1610.5495 
   25000    264.72761   -164.34694   -129.88868   -164.34694            0     5902.526    18.087641    22.575574    19.487169  0.085878059   -6.8351153  -0.25696223    7957.3688    9333.9551    5423.8227    2949.8002   -1151.3575   -675.94132    4625.7095 
   25500    255.56028   -162.66158   -129.39658   -162.66158            0    987.70617    18.022121    22.695071    19.639298  -0.15184331   -6.8965541  0.021437665    8032.7343    321.36618    1923.4991    718.25327    800.97482    -1363.898   -3744.3697 
   26000    255.92307   -162.23232    -128.9201   -162.23232            0    5532.7417    17.979401    22.670848    19.424714  -0.31601382   -6.9349393   0.35542546    7917.6738    6336.0797    5565.4607    4696.6847   -2173.1736    1832.9434    805.92912 
   26500    250.67648   -164.40096   -131.77167   -164.40096            0    4803.2673    18.180631    22.775091     19.27124  -0.25027531   -7.1026411   0.45882589    7979.5565    4301.9468    3472.6874    6635.1678    734.44845    507.76665   -3533.0895 
   27000    257.03421   -162.18862   -128.73177   -162.18862            0    4678.1469    18.233351    22.818199    19.277912  -0.10856944   -7.1213514    0.2404331    8020.6185    3957.3518    4509.7633    5567.3257    2073.4986    343.69211    566.38963 
   27500     253.9192   -163.33031   -130.27893   -163.33031            0     6558.204    18.074515    22.619232    19.336604  0.030569508   -6.9941283  -0.15307646    7905.4159    5160.4398    8239.5906    6274.5816   -4142.8756   -1281.3131   -467.35062 
   28000    246.92029   -163.45522   -131.31485   -163.45522            0    5048.2539    18.070339    22.727018    19.533849  0.084350191    -6.885776  -0.36719209    8022.2569    7816.3283    2139.3123    5189.1211   -2693.0116   -980.40135    2785.4451 
   28500    258.67544   -163.83096   -130.16048   -163.83096            0    1918.4739    18.094321    22.586748    19.471855   0.18768534   -6.8405594  -0.22089169    7957.9885     3694.563   -304.19523    2365.0541    391.94829   -657.43626    493.47083 
   29000    255.10499   -164.05471   -130.84898   -164.05471            0    3895.0703    18.241421     22.48121    19.420464   0.20715747   -6.8838396  0.035414846    7964.1227    6868.7677    4853.0512   -36.607936    2038.0737   -1493.4959    242.09839 
   29500    260.58035   -162.60483    -128.6864   -162.60483            0    3645.7552    18.209348    22.585031    19.463551  0.091263896   -6.8994113   0.18367637    8004.5544    1767.9549    4465.7344    4703.5765   -519.61536    186.53623   -1649.8358 
   30000     268.7812   -162.22355   -127.23765   -162.22355            0    4942.9859    18.108023    22.657082    19.388636  -0.16794444   -6.9606569   0.21799381    7954.6717    7741.6942    3866.3383    3220.9251    972.95307   -675.29145   -2669.3034 
   30500    254.43548   -162.62797   -129.50938   -162.62797            0    3996.6487    18.134832    22.978693    19.318692  -0.49819799   -7.0291771   0.15821057    8050.3836    6083.3918    2783.3364     3123.218    3052.8916    2845.3279   -730.52625 
   31000    265.15539    -162.9174   -128.40346    -162.9174            0    7018.2387    17.997884    22.921595    19.153551  -0.58516981   -7.0014981  0.082082178    7901.6098    7418.3274    8807.9535    4828.4351    4111.4837    4.1285757   -1389.0837 
   31500    262.67563   -163.81561   -129.62445   -163.81561            0    2871.2873    18.113792    22.945378    19.291856  -0.22263959   -6.9731077 0.0048366945    8018.2318    445.54137    4329.0977    3839.2228   -1699.6615    473.34752   -1016.9763 
   32000    255.25963   -163.87815   -130.65229   -163.87815            0    3686.8623    18.195345    22.650658    19.359081   0.37460821   -6.8379527   -0.0383551    7978.5845    6310.7504     3542.803    1207.0335   -587.19593   -2800.8435    514.77329 
   32500    255.50817   -162.77985   -129.52164   -162.77985            0    8252.2718    18.151581    22.433158    19.399952   0.61116204   -6.7246793 -0.078115867    7899.6076    10906.375    8582.2153    5268.2254   -2913.8999   -932.61385   -789.17786 
   33000    253.69324   -162.98187    -129.9599   -162.98187            0    3202.0918    18.236833    22.616728    19.544868   0.29498237   -6.7319544  -0.11829979    8061.4271    6181.6069    3221.0946    203.57405    945.90559    1169.2994    1087.1503 
   33500    252.67927   -163.59155   -130.70156   -163.59155            0    5674.6181    18.055547    22.577191    19.462382  -0.10429257   -6.6934866 -0.062478049    7933.7142    836.31538    7753.8331    8433.7057   -64.092365    2118.3301    1555.1339 
   34000    249.96735   -165.03905   -132.50206   -165.03905            0    6877.8153    18.028246    22.680034    19.373755  -0.28625498   -6.7385705  0.082975816    7921.5648     10362.16    6122.1613    4149.1245   -462.61167    473.03794   -1464.0029 
   34500    240.02889   -164.72909   -133.48574   -164.72909            0    3232.3355    18.130714    22.856321    19.312116   -0.2495717   -6.8971315   0.23120248    8002.9685    9113.4975    343.36866    240.14023    5123.7167    771.03314    4051.7836 
   35000    249.60473   -166.01556   -133.52577   -166.01556            0    4213.4558    18.087112    22.760003    19.165389 -0.064214739   -7.0228315   0.27900504    7889.6764    4875.9626    3185.2108    4579.1939     1199.297    297.33183   -2049.3799 
   35500    255.63161   -165.52653   -132.25225   -165.52653            0    6712.7126    18.137185    22.744953    19.310529   0.15168949   -7.1541185  0.080340588    7966.1616    5470.0603    5366.2456     9301.832   -49.188234    -4382.718    47.917105 
   36000    254.14126   -164.69704   -131.61676   -164.69704            0    4418.8822     18.12595    22.727268    19.444261   0.18994594   -7.2076904  -0.21717731    8010.1278    4560.8797     3293.487    5402.2801    261.31352   -519.19873   -174.85498 
   36500    256.48352   -164.14995   -130.76478   -164.14995            0    6441.6814    18.068516    22.524076    19.398019   0.15894168   -7.1235082  -0.34622104    7894.5404    7073.9915    6121.9117    6129.1409    159.10137    621.92973    364.27529 
   37000     257.1376   -164.85006   -131.37975   -164.85006            0    4787.5261    18.223301    22.481074     19.51513   0.16976836   -6.9683059  -0.12790189    7994.9462    1260.2115    6903.0636    6199.3033    451.46867    2904.4421   -1083.0111 
   37500    256.46722   -164.48118   -131.09814   -164.48118            0    3372.5573    18.272942    22.475327     19.42679  0.023410232   -6.6997671   0.21580556    7978.3949    2309.0867    4176.8513    3631.7338   -1231.6073   -883.65726    -998.5661 
   38000    263.91883   -163.66225   -129.30926   -163.66225            0    9119.4407    18.217259    22.484723    19.363989  -0.15071116   -6.5266928   0.37186177    7931.6844    13314.848    7742.7381    6300.7357    -120.1549   -1664.8321    -2718.829 
   38500    256.86559   -163.29865   -129.86375   -163.29865            0    8372.5223    18.095142    22.789556    19.392263  -0.35874826   -6.5571646   0.23915076    7996.9865    5592.3722    9745.5515    9779.6432    617.76132     2074.895   -2051.5171 
   39000    256.58958   -164.94127   -131.54229   -164.94127            0    5369.0351    17.932224    22.866042    19.384534  -0.38521166   -6.6868751 -0.089135223     7948.415    9425.2289    4542.5496    2139.3269    3707.1646   -1029.3146    2142.3004 
   39500    257.73899   -163.66728   -130.11869   -163.66728            0    3795.7784    17.977154    22.906299    19.331889 -0.085218416    -6.929603  -0.16753352    7960.6797    790.83027    8152.7907    2443.7142    1297.1775    1264.2932    3124.5659 
   40000    253.82254   -163.84408   -130.80528   -163.84408            0    3493.4692    18.108137    22.930262    19.219028   0.22271731   -7.1052989 -0.029655533    7980.2079    6344.7815    2699.1071    1436.5189    1504.6091    3013.5546    -2027.891 
   40500    252.20276   -164.64064   -131.81267   -164.64064            0    4615.6647    18.150051    22.796406    19.244837   0.32055944   -7.1635561  0.083178609    7962.6655    5970.7641    4124.1907    3752.0392    2001.9884     2027.623   -1732.6214 
   41000    253.50986   -164.87982   -131.88172   -164.87982            0    6056.6933    18.062895    22.624234     19.47374   0.14387962   -7.0919355    0.1001581    7958.1221    5947.1332    4893.9318     7329.015   -551.39752    111.18192   -2549.8305 
   41500    255.72932   -163.90703   -130.62003   -163.90703            0    3355.9366    18.106906    22.440823    19.577895  -0.14762668   -6.9463666  0.050850948    7955.1617    4113.9151     3266.021    2687.8738    862.36946   -762.44379    4598.5017 
   42000    253.28012   -163.98771   -131.01951   -163.98771            0    7168.1739    18.174446    22.372858    19.476463  -0.30118687   -6.8158294  0.024777934    7919.4083    8858.4842    5354.7801    7291.2573    208.19082   -844.45243    41.629148 
   42500    258.84564   -164.25541   -130.56278   -164.25541            0    1541.6593    18.327286    22.606585    19.361762   -0.3457012   -6.7346152  0.074737915    8021.9137   -533.93692    4970.6092    188.30569    690.95048    718.39487    74.191559 
   43000    250.77342   -161.98024   -129.33833   -161.98024            0    6407.9805    18.134731    22.724799    19.145319 -0.092784246   -6.6166241   0.20045483    7889.9412    4921.1217    5553.6189    8749.2008    456.92533   -1551.4824    1086.5845 
   43500    253.97756   -163.68756   -130.62858   -163.68756            0     5389.578    17.954973    23.148826    19.281376   0.32360334   -6.6380961   0.20427365    8014.0444    3756.8096    4066.2289    8345.6956    1982.2748   -480.55923   -1335.0298 
   44000    256.30024   -163.83032     -130.469   -163.83032            0    6067.9091    17.771665    23.086054    19.349521   0.42236207   -6.6986888  0.026983689    7938.6754    9345.1457    5523.1524    3335.4293   -770.89338    1243.1139    467.30006 
   44500    250.68387   -163.74281   -131.11255   -163.74281            0    6567.7983    17.929363    22.903187    19.334929   0.21418037   -6.8512566  -0.22787647    7939.6869    7368.6436    5589.7835     6744.968   -1052.9705    332.92365    1283.5352 
   45000    244.80412   -164.68753   -132.82261   -164.68753            0    2088.1703    18.254967    22.750202    19.330471 -0.094071666    -7.020007  -0.31044635    8028.0259    3699.5466    301.50177    2263.4624   -469.39954    1141.7688    1233.2188 
   45500    250.17744   -164.72905   -132.16472   -164.72905            0    7618.2066    18.172601    22.505161    19.311411  -0.12676635    -7.026376 -0.094790068    7897.9291    8062.5352     6864.202    7927.8826   -677.35511   -632.00457    2211.2562 
   46000    250.22041   -163.99454   -131.42461   -163.99454            0    3194.6901    18.184849    22.567612    19.485706 -0.027127044   -7.0178651   0.14730316    7996.7118    1128.6716    6747.4024    1707.9962    2827.2608    208.12251    1545.3553 
   46500    259.48019   -165.00935   -131.23412   -165.00935            0    2151.2993    18.087721    22.745393    19.390272  0.018891552   -6.9791236   0.24964052    7977.3972    2962.6773    1629.2976     1861.923   -1185.7251     1334.195    1042.5175 
   47000    259.54197   -164.55934   -130.77607   -164.55934            0    5111.8923    18.043737    22.917175     19.29302 -0.028555004   -6.9421237    0.1452974    7977.8854    3978.7386    5399.0171     5957.921    804.33014    67.964265    3327.4696 
   47500    263.89314   -163.80677   -129.45713   -163.80677            0    4387.6078    17.996862    23.028199    19.270658  -0.05549577   -6.9186424  -0.14292052    7986.4412    3480.8352    3226.4036    6455.5846    67.806057    653.55897    942.42898 
   48000    259.61408   -163.79635   -130.00369   -163.79635            0    5263.8381    18.007747    22.931802     19.36592 0.0062554278   -6.9061236  -0.33026375    7997.1581    5793.1334    5580.9448    4417.4361   -976.06523   -1242.2001    711.89413 
   48500    255.83221   -163.67778   -130.37739   -163.67778            0    425.53622    18.082004    22.626845    19.532046   0.12000817   -6.9125769  -0.24275044    7991.3157   -1857.4421    2544.2806    589.77011    -846.9032   -2563.5195   -683.10023 
   49000    257.14637      -162.45   -128.97855      -162.45            0    4357.1813    18.222019    22.280401    19.635877   0.26719589   -6.9328364  0.061374068    7972.0459      4816.08    3707.4891    4547.9747    -3147.307   -399.84139   -2541.1349 
   49500    271.23306   -161.31347   -126.00843   -161.31347            0    5242.2876    18.413579    22.281966    19.642253  0.098527492   -6.9415775   0.24533706    8059.0347    6442.0276    5065.1206    4219.7146    711.26292   -41.568404     903.4958 
   50000    269.24415   -163.43836    -128.3922   -163.43836            0    5657.0692    18.274373    22.363873    19.447516  -0.30700703   -6.7838864   0.13987264     7947.923    5580.1003    7970.1127    3420.9944   -530.17519    1973.7103    -1938.619 
   50500    260.17502   -164.65323   -130.78756   -164.65323            0    5978.1772    18.090635    22.675039    19.415328   -0.5167957   -6.6771203 -0.039131144    7964.2812    3250.0143    6360.9133     8323.604     404.6297    1076.4207    1689.1349 
   51000    252.42847   -162.66936   -129.81202   -162.66936            0    1441.8895     18.01435    22.908132    19.426941   -0.3026577    -6.668974  0.024210251    8017.0149    2187.9454    2483.7857   -346.06263    -89.23969   -281.97761   -1776.8358 
   51500    251.72974    -163.2911    -130.5247    -163.2911            0    4080.3253    17.958648    22.923253    19.293116  0.047929748   -6.7272636   0.17936581    7942.4092    6739.6385    4144.2883    1357.0493    1555.9396    766.21178    467.82172 
   52000    255.82323   -165.55622     -132.257   -165.55622            0     4562.832     18.09311    22.964056    19.225179   0.21535752   -6.8695437   0.21269885    7987.8924    3987.8389    4090.4868    5610.1702    1052.2155     817.2998   -4116.5982 
   52500    260.53421   -163.51031   -129.59788   -163.51031            0    3651.6924    18.185749    22.767572    19.267442  0.061004893   -7.0274261  0.022801111    7977.5946     5198.773    2570.1818    3186.1223    329.91626    -36.91175   -2594.8781 
   53000    254.98194   -164.37503   -131.18532   -164.37503            0    3611.7056    18.121058    22.584546    19.491652 -0.077779459   -7.0811247  -0.17956336     7977.073    4798.2282    4340.9658    1695.9228    2853.9217    201.09268    1193.7344 
   53500     262.2048   -164.57485   -130.44497   -164.57485            0    8044.2081    18.054454    22.552506     19.55609  -0.14299465   -7.0176742  -0.16494188    7962.7152    11634.068    7883.7845    4614.7719    409.23086   -1042.7951    4894.2634 
   54000    254.81554   -162.93578   -129.76772   -162.93578            0    6484.3656    18.234253     22.62378    19.377525  -0.12446369   -6.8802478   0.12728126    7993.7664    6584.2993    9258.9737    3609.8238    -557.2046    897.15764    -1161.592 
   54500     243.9717   -164.15102   -132.39445   -164.15102            0     6177.526    18.189469    22.741066    19.164977 -0.040920786   -6.6861834    0.3324181    7927.5527    7155.6553    6090.6778    5286.2448    2816.3792    -2472.582     268.3075 
   55000    249.46159   -163.76774   -131.29658   -163.76774            0    2428.2676    18.098121    22.871695    19.301636  0.013961366     -6.58508    0.2505932    7989.6169    2524.0156    850.37315     3910.414    453.27864    129.10663     1218.817 
   55500    249.21037   -164.81449   -132.37603   -164.81449            0    2785.1409    17.887707    22.792221    19.453302 -0.0027429209   -6.5657539  -0.03130819    7931.1221     1561.282    3626.1133    3168.0274   -755.81257   -850.01134   -198.67417 
   56000    253.92131   -162.06582   -129.01416   -162.06582            0    6964.5042    17.943878    22.772136    19.552987  0.024377749    -6.747079  -0.22254343    7989.7501    8097.1885    7246.0504    5550.2739   -2941.5217    1742.9945    3587.8873 
   56500      254.237   -163.03699   -129.94424   -163.03699            0    6061.4461    18.194553    22.717222    19.374688   0.11498068   -7.0300104   -0.1596164    8008.1341     7213.208    4960.0593    6011.0711   -1087.6468    10.167956   -837.41393 
   57000     255.8127   -163.62788   -130.33003   -163.62788            0    8460.8189    18.261624    22.566843    19.168439   0.14864971   -7.2086656  0.068157268    7899.4516    8221.2271    9906.9103    7254.3194   -775.84728   -862.99888   -3502.0188 
   57500    254.96186   -164.25262   -131.06552   -164.25262            0    5196.4791    18.206596    22.749123     19.33265 0.0016466854   -7.2491029    0.1870777    8007.2763    6585.2016    4590.5785    4413.6573    391.46137   -682.00505   -2545.6587 
   58000     250.5063   -163.41453   -130.80738   -163.41453            0    3707.4583    18.009415    22.740617    19.483879  -0.18484698   -7.0687682  0.094899289     7979.529    5307.6907    6241.5821   -426.89794    2129.2024   -239.68109    4066.2772 
   58500     256.7791   -164.02812   -130.60448   -164.02812            0    8084.4287    17.982597    22.725059    19.402899  -0.22191392   -6.9401821  0.031335201    7929.1033    10345.865    8085.3125    5822.1091    2533.8023    2974.3741    1412.3545 
   59000    265.01091    -164.0163   -129.52116    -164.0163            0    2448.0057    18.271338    22.753019    19.335042  -0.14253076   -6.9133355  0.090766575    8038.1201    2434.3011    3803.2187    1106.4973    1254.4394    1135.2171     369.0587 
   59500    260.55636   -163.52441    -129.6091   -163.52441            0    2502.0177    18.232121    22.580769    19.264439 0.0029219542   -6.7713687   0.18118762    7931.0792    5244.8647    553.52644    1707.6618    1192.0307    808.87419    2247.8657 
   60000    247.59087   -163.91243   -131.68478   -163.91243            0    6868.5235    18.174795    22.658726    19.462171   0.12609545   -6.6939376   0.15932601    8014.8664     9884.694    5774.1887    4946.6877   -2227.1311   -543.10847   -231.77636 
   60500    252.30562   -164.40068   -131.55933   -164.40068            0    2231.8854    17.940997    22.657158    19.647406   0.19731218    -6.635953  0.025184482    7986.5136    611.49535    2209.2487     3874.912   -105.68001   -3364.1261   -2236.2566 
   61000    244.63654   -162.45395   -130.61084   -162.45395            0     4579.192    17.884186     22.67872    19.532367  0.030176398    -6.702577  -0.21581295    7922.1416    6459.4744    2571.1102    4706.9916    1878.4926   -189.03936     331.4075 
   61500    250.45496   -163.07803   -130.47757   -163.07803            0    6133.6957    18.205363     22.91361    19.216099  -0.11368652   -6.9663272  -0.28840654    8016.0067    5921.2466    7149.0438    5330.7967    -380.1734   -23.919237    1991.5326 
   62000    261.12949   -163.68507   -129.69516   -163.68507            0     4162.931    18.330863    22.853238    19.060121 -0.074213628   -7.1012263 -0.061992933     7984.658   -1237.0794    6881.9955    6843.8768    512.21545    1835.9974   -81.827497 
   62500    257.05347   -164.33163   -130.87228   -164.33163            0    5615.9147    18.074022    22.757438     19.27069  0.018722664   -7.0269478   0.22395217    7926.3903    9837.0408    1266.9459    5743.7573   -2381.4789   -451.86352   -1000.5129 
   63000    264.12973    -162.2308   -127.85036    -162.2308            0     5880.832    18.036175     22.75665    19.559622 -0.0022372777   -6.9888491   0.30496333    8028.1085    8430.5975    6254.5235    2957.3751   -374.88772    3853.9936   -1158.5816 
   63500    258.25579   -163.86361   -130.24775   -163.86361            0    3645.5063    17.998452    22.692334    19.497976   -0.1183415   -6.8942331   0.12022963    7963.4979    7422.0514     2833.046    681.42167    1583.8437   -328.60975    1097.3456 
   64000    256.82067   -163.41457   -129.98552   -163.41457            0    3814.1458     18.15168     22.73352     19.39925  -0.17482687   -6.8283755 -0.045589008     8005.131    6946.3197    2543.1954    1952.9222   -699.31162   -1576.5621   -576.99926 
   64500    257.47114   -164.06323    -130.5495   -164.06323            0    6786.5033    18.216183    22.783189    19.261115  -0.12684694   -6.7444871  -0.13995608    7993.8005     5512.989    7323.4064    7523.1145    2385.8755   -932.34413    203.01039 
   65000    241.97018   -164.00435   -132.50831   -164.00435            0    6961.3602    18.027435    22.822588     19.19853  0.013654101   -6.6481965 -0.043935755    7898.9033     8427.454    6351.7951    6104.8315    1079.4946   -2549.8438    624.87058 
   65500    240.52664   -163.26782   -131.95968   -163.26782            0    3694.9117    18.013277     22.94204    19.379954   0.15319009   -6.7413324     0.146616    8008.9853    6141.0136    2246.2109    2697.5105   -648.03538    1881.3736   -2162.9766 
   66000    271.20691   -163.93303   -128.63139   -163.93303            0     5739.577    17.909798    22.912624    19.425024    0.1690119   -6.9193583   0.20988722    7971.2619    6038.6877    6044.5697    5135.4737   -2557.9016   -815.21288   -3766.4515 
   66500    266.79531   -163.63725   -128.90985   -163.63725            0    6244.7708    18.067647    22.719434    19.396311  0.029223761   -7.2187926 -0.063712934     7961.928    8770.9231     4653.228    5310.1613   -2985.3956   -241.25907   -755.77443 
   67000     252.5541   -164.48623   -131.61253   -164.48623            0    5630.8191    18.302862    22.555514     19.40137  -0.12512457   -7.4243883  -0.22130867    8009.4764    6991.5204     5791.232    4109.7048   -71.880216    14.311814    2076.0978 
   67500    263.34463   -165.13667   -130.85842   -165.13667            0    2594.3524    18.320645    22.423891    19.346912 -0.074009028   -7.3345468 -0.060538944    7948.1011   -56.931321    3316.9687    4523.0199   -283.61526    1148.8095   -1469.4747 
   68000    251.95175   -164.59774   -131.80244   -164.59774            0    7119.7924    18.237553    22.501645    19.408591  0.070953545   -7.0370538   0.19336024    7964.7996    6907.1737    9284.7876     5167.416   -3199.8919    4333.6502   -1138.8925 
   68500    254.74566   -163.30324   -130.14428   -163.30324            0    2762.6599    17.950894    22.797507      19.4523  0.076195739   -6.6399049    0.2619057    7960.5744    4097.6035    5036.3055   -845.92913   -4241.7929    1774.1395   -2069.2899 
   69000    250.52857   -164.81117   -132.20113   -164.81117            0     6992.347    17.938608     22.96696    19.392608  -0.11902963   -6.4687839  0.054576235    7989.6631    7889.0207    6524.3773     6563.643    3830.3736    2124.5461    2905.2826 
   69500    250.88307   -164.52139    -131.8652   -164.52139            0    7315.8265    17.962296    22.880699    19.233746  -0.24789412   -6.5050322  -0.13475191    7904.8755    5358.2965    6284.7848    10304.398    2916.4271    -791.8362    2354.9941 
   70000    248.12146   -163.78088   -131.48416   -163.78088            0    1810.2824    18.110396    22.859308    19.297798  -0.15275813   -6.7113808   -0.1231041    7989.1169    2283.4332    3046.3023    101.11156   -1811.0387   -1242.3477    445.44232 
   70500    256.14482   -165.52858    -132.1875   -165.52858            0     3253.467     18.16904    22.646902    19.292645  0.033871075   -6.9676915  0.087006219    7938.3925    878.90371    2533.6788    6347.8184    1054.4051   -1035.7738   -1255.4236 
   71000    257.62842    -165.0301    -131.4959    -165.0301            0    4172.2644    18.254862    22.427267    19.396127   0.14234412   -7.2477116   0.17876353    7940.9038    2047.6802    7165.7558    3303.3572   -556.11096    150.02215    269.47722 
   71500    249.53525   -163.61716   -131.13642   -163.61716            0    1831.0886    18.224132    22.496475    19.480178  0.078170367   -7.3403512  0.081517681    7986.4586    937.64241    2610.6059    1945.0176   -2143.6664    159.44106   -2850.1101 
   72000    257.01077   -161.35718   -127.90338   -161.35718            0    4113.8655    18.109613    22.653367    19.440525  -0.12907353   -7.2205002  -0.11494281    7975.3531    6139.2809     4648.053    1554.2626    2482.2552    2534.5688    4043.5473 
   72500    249.41731   -163.29509   -130.82969   -163.29509            0    6355.7311    18.017558    22.867301    19.350989  -0.23520294   -6.9693041  -0.21459529    7972.8579     5475.582    7291.4961    6300.1153      4142.88    1735.4345   -173.72482 
   73000    258.85644   -165.95224    -132.2582   -165.95224            0    2468.8161    18.091141     23.05168    19.213114 -0.093080957   -6.6816261 -0.032306331    8012.4679    3060.4601    2594.9518    1751.0364    355.46633    -1691.721   -3581.3736 
   73500    259.18124   -163.73432     -129.998   -163.73432            0    6194.6747    18.047815    22.858264     19.06317  0.085497581   -6.4716837   0.19933946    7864.3531    6034.1647     5775.541    6774.3186    93.959485    1411.5557     2866.737 
   74000    252.48523   -164.25984    -131.3951   -164.25984            0    847.36935    18.161896     22.86955    19.352956   0.16144319   -6.4786979   0.23094302    8038.3353    2168.2206   -1102.0207    1475.9081   -432.26274   -2096.4524   -2536.1122 
   74500     248.6201   -163.36519   -131.00356   -163.36519            0    3352.9133    18.045048     22.62548    19.461741   0.15290231   -6.5767618  0.065938301    7945.7983    5906.9955    3128.7942    1022.9502    3562.6684   -339.78191   -2832.0927 
   75000    266.59078   -164.49964   -129.79886   -164.49964            0    6352.4656    18.092218    22.507408    19.466027  0.063890361   -6.8310377 -0.098256518    7926.7403    7873.7969    6466.4668    4717.1331    2800.1537   -1214.7391    609.10272 
   75500    252.75823   -164.97954   -132.07927   -164.97954            0    6057.1417    18.238595    22.606333    19.468249 -0.023860962   -7.0714068 -0.060692568    8026.9097    3673.6197    6728.4391    7769.3662   -106.99142    1230.0178    1403.6435 
   76000    262.59417   -164.54862   -130.36806   -164.54862            0    4846.0752    18.154356    22.577872    19.295411 -0.059192782    -7.116171  0.083746966    7908.9328    5690.9266    4026.4894    4820.8098    2643.3379   -1963.2417   -651.08881 
   76500    235.73763    -165.4799   -134.79512    -165.4799            0     951.2394    18.159598    22.670797    19.419315  -0.09295916   -7.0949582   0.16942337     7994.787   -4282.0213    4332.1127    2803.6268    -1792.128   -465.44007    1912.2866 
   77000    249.78982   -166.27745   -133.76357   -166.27745            0    6032.8389    18.026988    22.591018    19.382608  -0.17565031    -7.024721   0.11958748    7893.5285    2551.3337    8038.8748    7508.3083    1274.4844    1657.0004     1663.786 
   77500    254.55632   -164.81598   -131.68166   -164.81598            0    3137.6352    18.198409    22.644985    19.413764  -0.19161795   -7.0049987  0.018903145    8000.4648    5223.9742    2794.2872    1394.6443   -410.64141   -3861.0868   -606.18903 
   78000    267.69953   -163.32246   -128.47736   -163.32246            0    3241.8414    18.325448    22.558499    19.304406  -0.12258427   -6.9598305  0.014073123    7980.3371    1505.9517    2088.7713    6130.8012    1603.9262    2066.7093   -821.87314 
   78500    251.53695   -165.29531   -132.55402   -165.29531            0    6507.8722    18.183752    22.564228    19.328094   0.11668006   -6.7571401   0.09509641    7930.3617     6543.128    5081.4211    7899.0676   -226.51239   -243.23785    1896.9494 
   79000    243.00205    -163.3655   -131.73515    -163.3655            0    5450.0599    18.007858    22.690992    19.631493   0.25261029   -6.5925287   0.11470125    8021.7454     5702.036    2793.9805    7854.1632    3242.6785   -2380.0868   -50.750193 
   79500    260.55267   -163.91967   -130.00484   -163.91967            0    7379.0276    17.831046    22.637633    19.599298   0.16253138   -6.4826099 -0.014848378    7911.3089    7473.1373    9206.0119    5457.9336   -2295.9251   -436.86722   -1099.3242 
   80000    257.98259   -163.34412   -129.76382   -163.34412            0    6556.4584    18.151554    22.755453    19.257715 -0.098669468   -6.6567414  -0.26844655     7954.338    10883.555    3399.1878    5386.6323   -1190.7443    1953.5287    1798.7744 
   80500    266.02466    -164.8584    -130.2313    -164.8584            0    4127.6396    18.442487    22.760576       19.145  -0.35296761   -6.8950961  -0.31636553    8036.3361    2771.2703    5426.0145    4185.6341    1479.6283     241.0002    3237.6334 
   81000    257.79892    -163.9203   -130.36391    -163.9203            0    8667.9543    18.194515    22.522255    19.244631  -0.26289431   -6.9303227 -0.070628894    7886.0935    9444.1845    8525.8017    8033.8766   -992.12665   -2563.4988    2390.7546 
   81500    253.01651   -164.66794   -131.73405   -164.66794            0    4002.8796    18.091471    22.633554    19.539638 -0.087628984   -6.9915211   0.17715268    8000.9796    4548.9506    4018.5183    3441.1699    2046.9848    827.05193    1212.9401 
   82000    251.59762   -164.45071   -131.70151   -164.45071            0    4721.1648    18.046016    22.645114     19.51147 -0.035719678   -6.9773717   0.27411255    7973.4419    4315.5833     5595.596    4252.3151    1511.6089   -507.24383   -3609.6151 
   82500    260.72818   -162.75098   -128.81331   -162.75098            0    5933.5259    18.091677    22.735591    19.331219 -0.012833842   -6.8891561   0.16079622     7951.413    1666.6362    5925.1058    10208.836    2513.7689    1055.5407   -1734.4882 
   83000    259.22549   -164.12966   -130.38758   -164.12966            0    4717.0715    18.204604    22.870103    19.278226 -0.098510775   -6.8321341 -0.089634772    8026.3193    4667.3997    4666.7982    4817.0167   -824.36169    655.62043    1879.0475 
   83500    257.46237   -163.94115   -130.42857   -163.94115            0    3173.4501    18.034879     22.90708    19.248572  -0.18485515   -6.6777518  -0.27164677    7952.0935    1522.2016    1190.6254    6807.5234     401.3904   -1490.9755   -778.92451 
   84000    265.66068   -163.15055   -128.57083   -163.15055            0    4347.4968    17.934779    22.752126    19.494234  -0.03490023   -6.7010634  -0.20457917    7954.7072    3750.4769    3091.4689    6200.5447    612.02937   -1010.0022    756.99446 
   84500    258.48467   -163.82268   -130.17703   -163.82268            0    2298.1633    18.173299    22.644122    19.606932     0.181834   -6.8622912  0.081748676    8068.6133    2452.6569    4081.2231    360.61003   -2047.2298   -1472.5695   -1714.2078 
   85000    255.70291   -164.34458   -131.06102   -164.34458            0    7776.7657    18.221768    22.362728    19.327248   0.13873222   -6.8970091    0.2263357    7875.6304    5784.2854    9311.5844    8234.4273    -3461.051    2623.3795    -3621.582 
   85500    246.74328   -161.55812   -129.44079   -161.55812            0    5332.2111     18.35033     22.51887    19.343517 -0.079637012   -6.9505158   0.11010963    7993.2966    5580.1421    3759.1291    6657.3619   -3629.3554   -2509.4503   -1445.0062 
   86000    253.99244    -163.2452   -130.18428    -163.2452            0    4323.4467    18.223184    22.646384    19.457489  -0.15367703   -6.9352204 -0.038048845    8029.8959    4937.6019    5853.6154     2179.123   -401.56426   -150.90785    -3715.728 
   86500    257.76798   -165.47069   -131.91833   -165.47069            0    8309.2408    17.948172    22.647682    19.391059  -0.14385667   -6.8863825 -0.044252091    7882.1647    6945.8557    8523.7937     9458.073   -1374.5528    2875.1485   -803.89063 
   87000    249.07364   -165.02583   -132.60517   -165.02583            0    3721.3926    18.068246    22.844957    19.417405 -0.024894729     -6.95292  0.084015701    8014.8893     1040.385    2810.8895    7312.9035    1366.8588    166.25586    378.42304 
   87500    252.23172   -164.11767   -131.28593   -164.11767            0    2276.3074    18.078956    22.685085    19.268703   0.11774927   -7.0005567   0.14870391    7902.5314   -41.550729    2977.4998    3892.9732   -5254.8222    744.47909    245.60684 
   88000     262.6289   -164.74396   -130.55888   -164.74396            0    3561.9689    18.214155    22.652338    19.336807  0.083093223   -7.0808181  0.021130118    7978.2352    3563.6396    5526.3611    1595.9061   -2272.5934    154.21225   -22.277785 
   88500    248.61412     -163.484   -131.12315     -163.484            0    5333.0414    18.176596    22.622493    19.464604 -0.0033684451   -6.9978055  -0.15745573    8003.8437    6169.6163     2059.034    7770.4738   -2149.6043    741.42005   -2264.3466 
   89000    244.01809   -165.35864   -133.59603   -165.35864            0    5136.5415    18.052597    22.371748    19.552208  -0.10680121   -6.7443077  -0.18290601     7896.514    3406.5056    6363.0628    5640.0559   -776.16245   -1638.1391   -1109.6132 
   89500    244.42532   -165.65981    -133.8442   -165.65981            0    5543.1905    18.123214    22.412039    19.720652  -0.18583669   -6.5323209 0.0092614204    8010.0982    4228.9279    5337.6023    7063.0413    739.67363   -700.02283    1301.8462 
   90000    245.69832     -164.483   -132.50168     -164.483            0    4725.7476    18.144588    22.442525    19.493414  -0.20675685   -6.3548871   0.26635135    7937.9205     6217.816     6361.146    1598.2809    2132.3232   -1216.9266   -430.33254 
   90500    259.56029   -164.60924   -130.82358   -164.60924            0     6825.106    18.162483    22.675759      19.2354  -0.23113809   -6.3046531   0.32460447    7922.0629    6463.6483    7219.3357    6792.3341   -1318.4442   -860.75753   -1548.8793 
   91000    254.19941   -163.92534   -130.83748   -163.92534            0    2358.3431    18.164506    23.013732    19.247319   -0.2191223   -6.5480569   0.16642982    8046.0157    5721.3817   -135.62713    1489.2749      392.186   -2036.5399    1350.5937 
   91500    235.07634   -164.80409   -134.20539   -164.80409            0    7734.8563    17.946267    22.895623    19.159073   -0.1284529   -6.7854924 -0.035498762    7872.2897    13223.282    4407.1033    5574.1839   -1666.9534   -1206.7322   -1851.8477 
   92000    256.97434   -165.32577   -131.87671   -165.32577            0     7798.535    17.962798    22.896143    19.346448 0.0031103457   -7.0362744  -0.04300527    7956.7835    7802.7818     7993.861    7598.9623    1282.1013    2698.7504    2106.4509 
   92500    251.46608   -164.83563   -132.10355   -164.83563            0    3071.5866    18.106967    22.803223     19.45049   0.11346333    -7.201594  0.032828891    8031.0529    4821.6417    4327.5101    65.607892   -168.45484    1306.1858    475.74789 
   93000    258.72345    -164.5097   -130.83297    -164.5097            0    8616.9133    18.144973    22.529083    19.235582  0.057391567   -7.1770595  0.046217115     7863.306    11845.637    7348.0985    6657.0043   -868.63798     1516.519    804.65486 
   93500    244.59778   -164.56659   -132.72852   -164.56659            0    6245.1725    18.310037       22.601    19.357054  -0.10052642    -7.164608  0.033805117    8010.4358    7308.3473    4981.7161    6445.4542    3104.9137   -39.170058   -587.41427 
   94000    249.65547   -164.87161   -132.37521   -164.87161            0    3744.9115    18.087468    22.549949    19.370248  -0.21941824   -6.9643442  0.010729499     7900.572    5797.5609    2674.0895     2763.084    2630.5087    226.43591    2147.0942 
   94500     260.3338   -165.92763   -132.04129   -165.92763            0    4344.6629    18.000392    22.706582    19.459879  -0.23779629   -6.7861386  0.059810532    7953.7851    5520.7113     4314.411    3198.8664    2053.8119   -1850.8624    2168.7937 
   95000    250.24699   -166.19466   -133.62127   -166.19466            0    3317.1773    17.951958    22.868245     19.49438 -0.062915153   -6.6241351   0.10951549     8003.023    4589.4512     3994.017    1368.0637   -1078.2232   -101.07344   -487.09662 
   95500    253.05009   -163.98913   -131.05087   -163.98913            0    7272.2707    17.999945     22.74591    19.206664   0.20856801   -6.5294034  0.056484129    7863.6905    11446.543     7091.435    3278.8346    89.016131   -2184.2307   -2488.0139 
   96000    268.62114   -164.79775   -129.83269   -164.79775            0    1121.4294    18.298212    22.916769    19.263694   0.21224201   -6.6484165 -0.059587043    8077.9584   -1633.0413    1739.9531    3257.3763    307.53055    1852.7133   -871.73532 
   96500    266.57575   -164.24004   -129.54122   -164.24004            0    4038.0391     18.11237    22.684209    19.232286  0.079337592   -6.6695303  -0.10770708    7901.8694    3094.0823    5361.9672    3658.0676    1014.6545   -989.55305   -1824.4173 
   97000    251.59884   -164.10368   -131.35433   -164.10368            0    4367.6398     18.01367    22.668887    19.469496 -0.045338835   -6.8633115 -0.0080876272    7950.3656    5531.6623    5785.9183    1785.3388   -272.67403   -30.566334    2272.3158 
   97500    258.50727   -164.63258   -130.98399   -164.63258            0    6998.0105    18.075115    22.684371    19.551832  -0.13335375    -7.101401   0.14022934    8016.6934    7673.7743     6771.654    6548.6034   -93.724673    1591.1953   -288.87051 
   98000    243.94624   -164.41787   -132.66462   -164.41787            0    4529.4092    18.097514    22.603245    19.320991 -0.091600207   -7.1738299   0.22674501    7903.4938    5644.9514    5621.7287    2321.5474   -58.828544   -1051.7777   -2146.3253 
   98500     251.8601   -164.83908   -132.05572   -164.83908            0     5248.664    18.231686    22.630895    19.295193 -0.078692589    -7.192037   0.13662334    7961.1843    2865.8941    3961.7806    8918.3172   -1110.1416    588.74403    368.81318 
   99000    248.86231   -164.00048   -131.60732   -164.00048            0    5838.7919    18.247242     22.68031    19.329007 -0.084957515   -7.0065803 -0.055087518    7999.3697    3242.9478    8066.8145    6206.6135    942.14671    2354.1598     325.5747 
   99500    266.25434   -163.77543   -129.11845   -163.77543            0     2636.578    18.059893    22.602978    19.389715 -0.064217527   -6.6718038   -0.1739977    7915.0245    1368.6562    3048.2327     3492.845    929.88398    164.14332   -671.75297 
  100000    257.33262   -164.92468   -131.42899   -164.92468            0    2608.2147    18.052884    22.629327    19.597609  0.049066805   -6.4501637  -0.10267421    8006.1058    4599.1659    2273.0623    952.41587   -1505.7282    1073.2996   -1670.8212 
  100500    256.12109   -163.70849   -130.37049   -163.70849            0    3090.6694    18.068622    22.606407    19.492234   0.14093002   -6.3163373   0.15855933     7961.927    1546.5205    4041.5712    3683.9166   -1152.4162    5.2379267   -1399.6757 
  101000     250.2283   -164.34119   -131.77024   -164.34119            0    3589.4004    18.155788    22.582187    19.292303   0.10748116   -6.4001614   0.27928198     7909.794    4526.9029    2982.6728    3258.6256   -788.80145   -586.18202   -775.81502 
  101500    251.66692    -164.2154   -131.45718    -164.2154            0    4713.1954    18.327625    22.817298    19.272488 -0.098591717   -6.7510946   0.17312156    8059.5017    1703.6823    7756.4463    4679.4577    860.32766   -1570.8107   -512.28632 
  102000    247.35592   -163.14171   -130.94464   -163.14171            0    10542.939    18.083763    22.746664     19.17637  -0.26330595   -7.0171208 -0.050616268    7888.1093    13446.859    9579.7312     8602.228    -997.3157    484.92262    1086.1155 
  102500    247.70463    -164.5349   -132.29244    -164.5349            0    2491.1942    17.969357     22.87862    19.380898  -0.13745118   -7.1839315  -0.11094659    7967.7602    3751.0227    2512.4274    1210.1324   -973.97303    837.20292   -143.10787 
  103000    250.23724   -163.11982    -130.5477   -163.11982            0    4159.1162    18.000706    22.836959    19.419612  0.090367471   -7.1928037 -0.031065093    7983.0408    4324.7837    2270.9203    5881.6446   -305.09793    6.5116654   -91.868239 
  103500    250.60396   -165.03745   -132.41759   -165.03745            0    3624.7593    18.098634    22.652857    19.347126   0.20948519   -7.0404754  0.028403293    7932.0467    2070.4531     5707.751    3096.0738   -1314.4846     2250.665    1310.4569 
  104000    257.89725   -164.41131   -130.84212   -164.41131            0    8505.8473    18.208925    22.577101    19.376549  0.090641905   -6.8439755  0.099146665    7965.7912    6506.7235    8087.1382     10923.68   -2794.5527   -573.09793   -1421.4834 
  104500    244.57293   -164.15278   -132.31795   -164.15278            0    3590.7835    18.197519    22.469397    19.469113  -0.15045461   -6.7149539   0.10808479    7960.6727    4124.5404    5431.8769    1215.9332    -1214.411    975.00555   -570.13404 
  105000    260.88846   -163.54008   -129.58154   -163.54008            0    4484.0936     18.08543    22.480981    19.575277  -0.32221511   -6.6341468  0.033641215    7958.8812     6178.286    1543.3793    5730.6154    1715.9178    1042.3974   -483.66319 
  105500    258.84808   -163.36118   -129.66823   -163.36118            0     4376.164    18.133328    22.636276    19.486705  -0.23149304   -6.7266796 -0.017790008     7998.728    1495.5983    7644.3527    3988.5411   -2166.5884    156.06923    1351.7127 
  106000    247.83653   -163.11256   -130.85293   -163.11256            0    5859.1134    18.133251    22.855456    19.153576  0.041484384   -6.9596418 -0.024346498    7938.0797     6703.961    4075.6155    6797.7636   -1993.7274    711.24859    1069.4621 
  106500    256.99657   -164.49848   -131.04653   -164.49848            0    4957.5752    18.123615    23.052396    19.092018   0.26134095   -7.2266486 -0.0039840091    7976.5067    4991.9144    5656.7493    4224.0618    99.157033   -577.46605    1312.3153 
  107000    256.84819   -164.98207   -131.54944   -164.98207            0    5118.0441    17.931608    23.034866     19.31478   0.27193549   -7.2731973 -0.028220078    7978.0123    1566.5301    5791.0813    7996.5209    -521.7477    2318.1839    1716.3263 
  107500    261.87198   -164.86254   -130.77598   -164.86254            0    6334.0061    17.867747    22.837503    19.480316 -0.001040225   -7.1447022  -0.06519187    7949.0353    10326.784    7191.3153    1483.9187    1561.7132    956.57557       542.95 
  108000    262.18277   -164.85136   -130.72435   -164.85136            0    4185.9259    18.196128    22.513925     19.45921  -0.25087296   -7.0356429 0.0045987298    7971.7815    2580.6929    6357.4529    3619.6318    142.46136    3167.8732    1957.7604 
  108500    264.38505   -163.83851   -129.42484   -163.83851            0    5535.7842    18.408284    22.460649    19.330804  -0.27026202   -6.8785795   0.13910991    7992.5533    4719.5203    4475.7353     7412.097    679.40043   -4074.5071    700.50282 
  109000    251.18721   -163.53242   -130.83664   -163.53242            0    6440.1121    18.286094    22.484476    19.384449  -0.19079745   -6.6816979   0.19116964     7969.979    8448.8632    3258.8039    7612.6691    426.04153   -1215.5105   -2893.0752 
  109500    246.55963   -163.00941   -130.91599   -163.00941            0    4677.5912    18.046581    22.581005    19.524118 -0.059090091   -6.6077297   0.13226944    7956.2721    2720.0338    5102.2732    6210.4664    1386.7766     1212.665   -1539.8897 
  110000    249.94059   -163.52164   -130.98813   -163.52164            0    3447.1987     17.89149    22.776235    19.485351  0.046287481   -6.6740947 0.0007350955    7940.2956    5691.9074    3070.0518    1579.6368   -2369.3233    763.60589    793.08862 
  110500    248.36627   -164.78194   -132.45335   -164.78194            0    2250.1991    18.055034    22.845773    19.340526  0.038251834   -6.9002338  -0.11094431    7977.6037    2862.5529    1377.5856    2510.4587      3994.21   -1466.9112    2106.5962 
  111000    257.91467   -164.28107   -130.70961   -164.28107            0    3498.8507    18.229588    22.755097    19.174079   0.03071887    -7.163889 -0.096625686    7953.7155     909.9657    2291.8787    7294.7077   -3330.8971   -2068.8618    52.565508 
  111500    249.94297   -163.89375   -131.35993   -163.89375            0     2536.763     18.22323    22.648271    19.297423   0.01601205   -7.3571958  0.045411788    7964.5224    1037.5821    4003.0611    2569.6458    221.83807    1026.5965    419.79746 
  112000    249.72826   -163.58486   -131.07899   -163.58486            0    5425.5875    17.995695    22.581135    19.518148  0.035846926   -7.3632158   0.14289547    7931.4573    7588.4077    4113.1613    4575.1934    698.56735    2233.6278   -1158.0524 
  112500    244.38677    -164.5072    -132.6966    -164.5072            0    1358.8343    17.963156    22.577134    19.640264  0.015123172   -7.1825696   0.17211502     7965.238    2933.1823    1709.4887   -566.16792   -908.20096    584.92265   -821.20803 
  113000    259.58306   -165.77669   -131.98807   -165.77669            0    6551.4838    18.096598    22.583873    19.362679  -0.11683985   -6.8301397  0.013342981     7913.358    3228.3805    6770.7952    9655.2758    2616.9139    1053.8091   -3687.4859 
  113500    253.32459   -163.84952   -130.87554   -163.84952            0    2967.1414     18.27978    22.727897    19.221065  -0.13602594   -6.5956035 -0.094131837    7985.6021    1610.4735     3568.012    3722.9386    2158.2257   -987.43126    4490.4568 
  114000    253.98776   -164.21374   -131.15343   -164.21374            0    6574.1843    18.122218    22.798067    19.240972 -0.056108172   -6.4537448  -0.03954964    7949.4372    3810.9999    3948.6381    11962.915   -478.44187    136.41728    611.70756 
  114500    254.50833   -162.70301   -129.57494   -162.70301            0    6356.4093    17.950383    22.800048    19.506841  -0.06211188   -6.4997909  0.040054288    7983.5567    6937.2969    6967.5656    5164.3656   -1633.8901   -384.71217   -1005.8005 
  115000     260.1212   -163.63971   -129.78104   -163.63971            0    4591.5939    17.979159    22.744309    19.522058 -0.093340347   -6.6993245   0.10911713    7983.0293    6305.3034    6435.1709    1034.3074   -1391.6941    772.21921   -2088.4251 
  115500    267.96765   -164.59729   -129.71729   -164.59729            0    5047.4045    18.162707    22.652967    19.323618   -0.1444313   -7.0027301  0.043005754    7950.4941      7260.15    3984.7594     3897.304     79.97511   -1233.6834    2314.3993 
  116000    252.46016   -165.04051   -132.17905   -165.04051            0    3076.9533    18.389969    22.591421    19.275758  -0.15195002   -7.3270523 -0.011700933    8008.2203    926.46917    3937.8757     4366.515    694.22144    337.28778    2062.8536 
  116500    267.34484    -164.7385   -129.93957    -164.7385            0    7678.5453    18.191118    22.444298    19.358395 -0.0074004244   -7.3626956 0.0064949592    7903.7785    10933.692    5951.6206    6150.3233   -1718.9306   -622.54327    456.11764 
  117000    246.00681    -164.5889   -132.56743    -164.5889            0    5776.9935    18.042654    22.599467    19.603768  0.090334459   -7.2457491   0.10169935    7993.5221    8654.1419    5399.0217     3277.817   -1919.7871   -305.11539    853.43076 
  117500    256.29862   -165.61054   -132.24944   -165.61054            0     7782.494    18.004924    22.684594    19.493956  0.029282837   -7.0118503   0.12873878    7962.0025    5631.6156    8134.5151    9581.3512    1947.2239    900.21518    3594.0378 
  118000    252.36013   -165.55275    -132.7043   -165.55275            0    9090.5902     18.05645    22.725444    19.174995  -0.12871389   -6.6868875  0.051269114    7868.2837    5544.0076    10243.647    11484.116    1894.9757     614.4426    2737.8349 
  118500     252.7454   -163.70732   -130.80872   -163.70732            0    2266.2493       18.183    22.977494    19.241411  -0.17123123    -6.476898  0.010116543     8039.057     2982.975    2655.0109    1160.7619    2503.0112   -1448.6433     1796.874 
  119000    255.30002   -164.81155   -131.58043   -164.81155            0    7338.1454    17.981983    22.807998    19.312749 -0.076349012   -6.3595572 -0.024588789    7920.7966    7801.7041    7060.1945    7152.5378   -626.77935   -3297.9299    164.62306 
  119500    252.96237   -163.05789   -130.13105   -163.05789            0    3297.4067    17.977166    22.720605    19.491843  0.071675614   -6.5575265 -0.044780078    7961.4836    6131.7632    4013.3899   -252.93296   -2467.0563    560.30778    -1964.687 
  120000    253.31099   -163.73845   -130.76623   -163.73845            0    4969.9378    18.120249    22.645954    19.508587    0.1570254   -6.8892175  0.028873839    8005.3551    4870.7498    3474.3878    6564.6759    1488.9479   -1355.8847   -1031.1792 
  120500    250.57368   -163.90396   -131.28805   -163.90396            0    3736.7853    18.173563    22.545876    19.315439   0.11565707   -7.0793155  0.064433299    7914.2866    2775.4049    4504.7708    3930.1802    1878.5484    169.94188    1066.6934 
  121000    265.31633   -166.28556   -131.75066   -166.28556            0    4632.2754    18.243961    22.653077    19.366461  0.027264067   -7.1806553  0.054104804    8003.8074    2480.5597    5638.5007    5777.7657   -237.39807    1620.6344   -1117.8263 
  121500    256.37596   -164.42173   -131.05056   -164.42173            0     4806.721    18.145171    22.677622    19.336033  -0.12312055   -7.1138536  0.041694153    7956.5713    2331.6486    5470.7744    6617.7399   -1697.1408    879.72477   -143.10612 
  122000    271.24464   -164.71286   -129.40631   -164.71286            0    2097.5087    18.085792    22.780572    19.329117  -0.21465011   -6.9425196  0.065090865    7963.6869    628.49764    3106.4631    2557.5652   -2336.2481   -673.98144   -593.40479 
  122500    256.70563   -161.60259   -128.18851   -161.60259            0    9553.7652    18.081627    22.894571    19.301529  -0.13232404   -6.6518599   0.19570227    7990.2749    8050.9086    8634.0443    11976.343     686.2867   -1156.8566    645.68782 
  123000    254.45897   -163.54144   -130.41979   -163.54144            0    5296.6976    17.983244    22.913811    19.247617   0.01729812   -6.2827245   0.24832399    7931.2626    4999.2012    3716.8497    7174.0419    -2495.935    1547.8252   -1065.3306 
  123500    255.93264   -164.04246   -130.72899   -164.04246            0    4393.5308    18.086168    22.828331    19.391389   0.13358782   -6.1712861  0.040956373    8006.2594    940.08536    5300.1179    6940.3892    1776.4571    636.76495   -508.69825 
  124000    265.34068   -164.88519   -130.34713   -164.88519            0    4832.7748    18.126797    22.613098     19.47934   0.10324058   -6.2882775  -0.21283668    7984.6402    2349.0253    5799.4192    6349.8801    -1598.612    1418.3149    852.90221 
  124500    270.42009     -164.878   -129.67878     -164.878            0    3065.3591    18.205303    22.430111    19.416073  0.040925266   -6.6671828  -0.28597849    7928.4943    880.01762    4136.2344    4179.8251      744.833    348.20079    1397.1739 
  125000    258.43969   -162.78383   -129.14403   -162.78383            0    2184.5505    18.329065    22.424516    19.546181  0.055064454    -7.188724 -0.089451468    8033.8795   -2368.8031    5665.8281    3256.6266   -1308.6265    476.81413   -249.22134 
  125500    254.16737   -162.88225   -129.79856   -162.88225            0    4912.5572    18.170864     22.50385    19.441875 -0.023943966   -7.3405027   0.12196215    7950.0625    5360.5032    5057.4916    4319.6768   -424.22306    3114.0888    546.31694 
  126000    262.29394   -164.39155   -130.25007   -164.39155            0    3995.2271    18.173732      22.6273    19.432722  -0.16392122   -7.3315686   0.17588891    7991.1722    2808.1163     3720.062    5457.5032   -2297.3328   -1319.7433    245.21425 
  126500     245.6911   -164.71063   -132.73026   -164.71063            0    1454.7012    18.168115    22.743039    19.364197  -0.23661968   -7.2213954   0.13352188    8001.2501   -1076.5797    2208.4471    3232.2361    1504.7137    550.60364    612.52592 
  127000    253.80276   -163.49266   -130.45643   -163.49266            0    6785.4159    18.000555    22.809117    19.224561  -0.24542097   -6.9097826  0.086769815     7893.158    5071.1571    6446.8473    8838.2432   -411.43652   -296.07814    1502.1598 
  127500    258.83616   -164.78319   -131.09179   -164.78319            0    3273.3704    18.151048    22.946963    19.336964  -0.07659319   -6.6929723 0.0086454561    8054.0667   -1014.6291    4679.9021    6154.8383   -1671.5232    228.02385    2141.0866 
  128000    260.04488   -164.38031   -130.53157   -164.38031            0    6274.4819    18.103657    22.670592    19.277189   0.16048373   -6.4699846  0.022211026    7911.7561     8461.384    4462.9257     5899.136    2298.1454    -2509.169    1863.9406 
  128500    251.45453   -163.56245   -130.83188   -163.56245            0    5568.1407    18.177672    22.555537    19.471249   0.28999511   -6.5115209  0.043671206    7983.3515    7188.7879    5134.9905    4380.6436   -93.327948   -694.02944   -895.26841 
  129000    255.51916   -163.17722   -129.91758   -163.17722            0    4199.7763    18.139576     22.48093    19.613341   0.19071492   -6.6790829 -0.022026019    7998.2133    2791.5612    3628.0137    6179.7539    905.25701   -716.26762   -3644.4577 
  129500    253.54932    -162.7536   -129.75036    -162.7536            0    7306.7626    18.049871     22.39817     19.54188 -0.047957004   -6.8977311  -0.10856809    7900.4707    6148.3661      7704.07    8067.8516    2693.4481   -2407.3622    3896.9412 
  130000    246.65004   -164.35208   -132.24689   -164.35208            0    1029.5292    18.196879    22.642816    19.511812  -0.19103169   -7.2136948  -0.05590003    8039.4245    2465.2581     869.7964   -246.46694   -1376.4154    1435.6387   -846.82433 
  130500    253.01671   -162.99187   -130.05796   -162.99187            0      5754.73    18.105104    22.594866    19.283753  -0.11753331   -7.2875303   0.10137444    7888.6437    4489.0819    5745.1191    7029.9889    2704.6383   -1468.9222    3270.0966 
  131000    253.97067   -165.73095   -132.67287   -165.73095            0    4618.2938    18.185982    22.733491    19.330568 -0.062716622   -7.2674595   0.20052342    7991.8535    4091.3898    1897.4396     7866.052    1327.0568    1070.9806   -2441.3981 
  131500    244.24023   -164.47792    -132.6864   -164.47792            0    5168.3914    18.149716    22.674592    19.375172 -0.034801164   -7.0969048   0.14654176    7973.6082    4039.5484    5897.7219    5567.9039   -465.01627   -395.29855   -820.33576 
  132000    243.39083   -163.04219   -131.36123   -163.04219            0    5940.9464    18.018627    22.530914    19.475208  0.054310243   -6.8114506 -9.231164e-05    7906.4696     5694.206     9291.281    2837.3521    147.39147    2200.8865    2569.4759 
  132500    258.49441   -163.35973   -129.71282   -163.35973            0     957.4893     18.12739    22.609208    19.631797    0.1461995    -6.595848  -0.14136711    8046.0118   -231.97591    792.81237    2311.6314   -3468.2827    1839.6246   -45.041337 
  133000    259.42839   -162.31474   -128.54625   -162.31474            0    2950.5945    18.170884    22.587528    19.427218    0.1523242   -6.3897287  -0.17568939    7973.6169    2044.2536    6384.8542    422.67557    1390.6805    1538.9085     2774.865 
  133500    267.26247   -164.43191    -129.6437   -164.43191            0    5225.3611    18.222736    22.610356    19.243768   0.10261476   -6.4651012 -0.034625387    7928.8663    4387.7856    4125.2325    7163.0652    364.80022   -1922.3905   -959.62716 
  134000    238.68884   -164.20325   -133.13432   -164.20325            0    2498.4873    18.295169    22.785176    19.317666  0.019616598   -6.7906366   0.15484245    8052.7362   -3946.2714    3633.8384    7807.8948   -657.70257   -644.71039   -15.210549 
  134500    251.53185   -164.25694    -131.5163   -164.25694            0    6277.4772    17.972622    22.662251    19.324907   -0.1098813   -7.1071102   0.17247757    7871.0362    3462.2621     7758.717    7611.4527    550.95507    3309.4376    87.798153 
  135000    245.50435   -165.03402   -133.07796   -165.03402            0    1617.0474    18.062117    22.789262    19.530607  -0.17260134   -7.3232424  0.023945616    8039.2341    4261.3758    194.80667    394.95974   -1730.5021    -1215.434    504.78982 
  135500    250.32638   -163.72325   -131.13953   -163.72325            0     4534.303    18.082489    22.705381    19.371041 -0.089419198   -7.2541374 -0.021889911    7953.1645    6933.4972    3308.3312    3361.0806   -1429.0907   -237.89948   -839.41423 
  136000     256.5396   -163.92417    -130.5317   -163.92417            0    10203.819    18.128002    22.753995    19.218715 -0.015995509   -7.0646162  0.032793689    7927.4212    9804.5273    10044.427    10762.501   -1212.9751   -835.60719   -2588.9037 
  136500    253.03299   -163.48822   -130.55219   -163.48822            0    2620.4437    18.185527    22.781588    19.285361  0.069706406    -6.826767    0.1144784    7989.8322    1681.8687    2733.2695    3446.1929    2632.9481    989.31733    4865.9348 
  137000    257.47487   -164.58277   -131.06857   -164.58277            0     8021.094    18.044601    22.668066    19.399566  0.058425773   -6.6109085   0.10931051    7935.1247    11788.104    9071.4528    3203.7252   -367.32656   -2176.7229   -2904.8277 
  137500    261.08418   -163.33641   -129.35239   -163.33641            0    3260.5533    18.013342    22.765323    19.523406  -0.11112607   -6.5075327 -0.031713454    8006.1495    6722.8614    1171.7793    1887.0192   -2374.9376    559.54203    1820.9001 
  138000    262.11772   -164.42434    -130.3058   -164.42434            0     7338.498    18.058316    22.756673    19.487917  -0.25523829   -6.5311873  -0.12031282    8008.5049    9055.8195    6617.8154     6341.859   -99.606204   -982.53796   -539.25613 
  138500    255.46815   -164.24938   -130.99638   -164.24938            0    5076.6665    18.101601    22.622029    19.279788  -0.14257717   -6.7109286 -0.0082469175    7894.9754    5086.7327    6362.2629    3781.0038    2332.8373    2356.8314    877.56305 
  139000    250.21317   -165.96163   -133.39265   -165.96163            0    4560.5281     18.29205     22.71506    19.330647   0.17271181   -7.0625838   0.21262039    8031.9808    3252.6828    4873.2666    5555.6348   -2774.6948   -312.31053   -1572.7436 
  139500     246.0847   -163.56082   -131.52921   -163.56082            0    4481.7211    18.084455    22.562216    19.363042   0.25477422   -7.2098303   0.21351197    7900.6123    5251.4043    5996.1509    2197.6081    1684.4222    428.38296   -160.89995 
  140000    248.93317   -162.74206   -130.33968   -162.74206            0    4465.4203    18.128412    22.688705    19.574448  0.063340908   -7.2668786 -0.037598911    8051.1698    2242.9514    4848.5762    6304.7332    1288.3892    494.10892   -816.15088 
  140500     263.8077   -163.12239   -128.78386   -163.12239            0    7480.8562    18.060071    22.610405    19.524224   -0.2228763   -7.1198001   -0.1961365    7972.6294      11334.3    7916.5077    3191.7608    2033.1146    1689.7675     5471.799 
  141000    253.93233   -164.16165   -131.10856   -164.16165            0     5947.517    18.129404     22.59039     19.43449  -0.27232692   -6.9498181 -0.093085607    7959.4013    5969.9428    5179.3923    6693.2157   -28.416601    63.549178    1375.9234 
  141500    251.11803    -164.2269   -131.54013    -164.2269            0     5131.958     18.24599    22.641079    19.409822 -0.037297658   -6.8217306   0.17809604    8018.3703    3404.0928    7558.6442    4433.1371    4141.7459    1148.2461   -48.521197 
  142000    246.24544   -163.53962   -131.48709   -163.53962            0    8693.4381    18.091288    22.674027    19.271288   0.15904918   -6.7013268   0.28048245    7905.1277    8713.3089    8401.5313    8965.4741    112.32214    2477.7356   -909.86229 
  142500    259.84944   -164.03532   -130.21203   -164.03532            0    785.44961     18.11896    22.882793     19.40485   0.14602476   -6.7073961   0.13269583    8045.4919    -2035.143    1239.6422    3151.8496   -182.67584    810.93013     1505.259 
  143000    253.51449   -162.48921    -129.4905   -162.48921            0    2616.1305    17.993562    22.762455    19.401196 -0.013500853   -6.7770026 -0.098226529    7946.2962    3970.8499    3903.4706   -25.929025     -2584.66    1252.9532   -1559.7942 
  143500    257.47766    -163.8854   -130.37083    -163.8854            0    7033.9749    18.087011    22.726889    19.451909  -0.21343866    -6.917139  -0.22316753    7995.9307    6027.3712    8078.9171    6995.6363   -139.35041    988.50867   -817.79284 
  144000    254.20815    -163.9331   -130.84411    -163.9331            0    2661.0752    18.250806    22.587407    19.415652  -0.20136096   -7.0095363 -0.069920495    8003.8768   -3484.0704    5161.6267    6305.6693    -2450.473    1351.9517    1553.4102 
  144500    258.68133   -164.33411   -130.66286   -164.33411            0    3177.6878    18.229861    22.459713    19.405837 -0.0031754149   -7.0217302   0.23903379    7945.4761    2177.0112     5095.345    2260.7072    27.964214   -172.16632    49.550365 
  145000    256.93685   -162.92962   -129.48544   -162.92962            0    1251.9449    18.224837    22.563137    19.528138   0.10344866   -7.0112393   0.28757289    8030.1556   -2304.3183    2216.2382    3843.9148    899.69037   -1032.2379   -331.42718 
  145500    266.10039   -163.81047   -129.17352   -163.81047            0    9523.4247     18.00065     22.53686    19.503737   0.11099196   -6.8663572 -0.066315115    7912.2395    9077.9457    11242.622    8249.7064    1101.2885   -326.71231    972.23027 
  146000      255.239   -164.89221   -131.66904   -164.89221            0    3677.7543    17.996149     22.97383    19.425778   0.11636939   -6.7102784  -0.60878841     8031.403    4265.0859    1918.1162    4850.0607    1541.3805     2350.103     4040.131 
  146500    252.88996   -164.26485   -131.34744   -164.26485            0    6718.6764      18.0628    23.008402    19.163546   0.16371674   -6.6830398   -0.5982211    7964.2965    3973.4145    8510.1144    7672.5002     -270.535    -908.6011    3701.8386 
[...]
  365000    254.90226   -163.83107   -130.65173   -163.83107            0    2742.9625    18.113917    22.636969    19.505423 -0.025321021   -6.9442396    0.2145033    7998.0851    3151.6933    1907.3615    3169.8326   -50.682107       826.08   -343.15161 
  365500    260.46889   -165.44003   -131.53611   -165.44003            0    5832.9342    18.017878    22.757668    19.298673  -0.14997768     -6.94677   0.12825561    7913.3223    8439.8252    4348.9298    4710.0477    4.8390529   -1244.4593   -2260.0083 
  366000    266.00207   -164.38994   -129.76579   -164.38994            0    4222.9112     18.10709    22.911785    19.203331   -0.2369881   -6.9887139 -0.028019224    7966.8045    1202.2909    4486.0908     6980.352    1973.0113     1799.792    841.74243 
  366500    248.48707   -163.48643   -131.14212   -163.48643            0    3003.3661    18.200851    22.857079    19.246211  -0.11810206   -7.0751512   -0.0985554     8006.776    1749.4456    3430.5041    3830.1485   -1599.7041   -1297.9261   -3456.2342 
  367000    259.08247   -165.05747   -131.33401   -165.05747            0     5582.629    18.111061    22.544167    19.378617   0.14079647   -7.0395339  0.016319665    7912.2658    6600.1484    2628.7588    7518.9797    959.10585    1291.0652    126.51706 
  367500    262.10551   -164.44478   -130.32782   -164.44478            0    3035.4405    18.163506     22.35373    19.703278   0.34638206   -6.9669771   0.12968931    7999.9667    4802.6262    3589.3549     714.3403   -906.26913   -623.46293    71.806162 
  368000    255.94076   -163.58884   -130.27432   -163.58884            0    3776.0129    18.176062    22.300979    19.628353   0.17253365    -6.762814 -0.0038296872    7956.2344    6444.2241    2479.7122    2404.1022    400.17859   -3336.2903   -2728.4029 
  368500    260.10777   -164.70438   -130.84746   -164.70438            0    6786.7206    18.189097    22.510733    19.334836  -0.20743109   -6.6178985  -0.17079216    7916.6469    2878.7564    6866.7565    10614.649    -552.0212   -1271.0341    5218.5106 
  369000    258.61021   -164.76516   -131.10317   -164.76516            0    5308.8399    18.193404    22.789643    19.306972  -0.31506584   -6.6752183  -0.12173428    8005.0795    6217.0343    4082.8599    5626.6255    -409.8394   -1269.8374    1949.1479 
  369500    255.45548   -163.68974   -130.43839   -163.68974            0    8017.0869    18.004779    22.867586    19.261048  -0.16754336   -6.7250648  0.059540584    7930.2707    6015.1039    10191.952    7844.2052    4139.1813    696.91027    864.08758 
  370000    265.13734   -163.37266   -128.86107   -163.37266            0     5823.363    18.006758    22.905916    19.329521  -0.03177798   -6.8755247   0.21263526    7972.6788    4601.6308    6234.5256    6633.9327    1046.6506   -11.421159   -217.97793 
  370500    254.82838   -164.54318   -131.37345   -164.54318            0    6043.4323    18.071943    22.719392    19.423442  0.061148264   -7.0123571   0.16248421    7974.9461    4695.0338     8639.255     4796.008   -541.33507    1257.5624   -2740.1414 
  371000    257.19064   -164.74517   -131.26796   -164.74517            0    6301.7649    18.212097    22.417005    19.401262   0.12798791    -7.137242 -0.068689256    7920.7722    5086.7562      9561.01    4257.5284   -1803.4201     920.5899    2457.3079 
  371500     246.1042   -164.23837   -132.20422   -164.23837            0    3207.2427    18.342829    22.371266    19.463867 0.0007247418   -7.2008565  -0.29812831    7987.0426    943.65141    2031.9068    6646.1698    231.99859    988.36505     -847.427 
  372000    247.56001   -163.48242   -131.25878   -163.48242            0    8450.6592    18.230632    22.474144    19.509894  -0.12075945   -7.0724393  -0.22931157     7993.552    10507.093    7810.4383    7034.4458   -1156.0754   -1736.3881    580.27871 
  372500    247.54564   -163.83711   -131.61534   -163.83711            0    4934.3817    17.998125     22.80819    19.328529  -0.10666514   -6.8269809   0.12422519    7934.4513    7509.9463    1427.2724    5865.9263    35.963874    552.19496   -551.33057 
  373000    239.53459   -165.44541   -134.26639   -165.44541            0   -557.59939    17.973325    23.078773    19.249034 -0.069631209   -6.6583919   0.39202002    7984.5433     648.7609   -970.64917   -1350.9099   -1004.0396    -2607.362   -1218.4377 
  373500    248.57605   -164.36239    -132.0065   -164.36239            0    9334.0115    17.972592    22.921876    19.205349 -0.095795655   -6.6246216   0.27475068    7911.9415    13218.579     6811.522    7971.9337   -1340.0124   -1120.1448      1106.19 
  374000    256.88707   -163.57088   -130.13319   -163.57088            0    2769.7242    18.140291    22.761423    19.375356  -0.12425514   -6.7675834 -0.063510324    8000.0616   -1142.7389    6303.4949    3148.4167    2130.7206   -903.17551     1112.633 
  374500    249.83673   -161.20537   -128.68538   -161.20537            0    3896.5313    18.140621     22.56041    19.567975 -0.094826473   -6.9261715  -0.28954809    8008.3864    1602.8244    5705.7173    4381.0522    2005.3828   -982.06813    2617.5944 
  375000     255.9187   -161.92685   -128.61521   -161.92685            0     6701.524    18.168944    22.461185    19.554624  0.084127006   -7.0505852  -0.15508872    7980.1643    4109.9223    10707.432    5287.2175    707.73372    1420.0032    1882.2849 
  375500    248.35989   -163.25952   -130.93176   -163.25952            0    4434.8649    18.163192    22.545435    19.410482   0.19352128   -7.1027649  0.073860513    7948.5351    6128.8025    4168.1989    3007.5934    -1973.793    560.75107    344.30223 
  376000    251.88181   -163.65496   -130.86878   -163.65496            0    4233.5132    18.126525    22.770589     19.30686    0.1072109   -7.0888654   0.19653829    7968.9382    2954.8947     6115.855      3629.79   -237.02042     2081.204   -3498.6029 
  376500     256.3024   -162.66495   -129.30336   -162.66495            0    2399.2416    18.044854    22.931693    19.281976  -0.10535888     -7.00868   0.12702421    7978.8632    2939.6407    1864.2503    2393.8338   -321.21451    1119.0746   -2710.5781 
  377000    258.55998   -166.65837   -133.00292   -166.65837            0    7313.8075    17.947521    22.871551    19.315111   -0.2340146   -6.9212535 -0.059426484    7928.6143    8861.3044    8201.4632    4878.6548     3061.519   -223.54541    2104.2495 
  377500     250.8278   -164.49337   -131.84438   -164.49337            0    3931.0574    17.996433    22.826207    19.423891 -0.088695796   -6.9064205  -0.17441761    7979.1462    3122.9706    4101.7588    4568.4429   -1087.4461    855.63157   -177.02924 
  378000    255.65424   -164.10804   -130.83082   -164.10804            0    8180.2364    18.158956    22.613762    19.388036   0.26399469   -6.8994984  -0.10006411    7961.5478    7159.3243    8661.8391    8719.5458   -2599.1274   -139.24412      1275.25 
  378500    254.92193   -165.93026   -132.74836   -165.93026            0    4836.4329    18.311807    22.430994    19.280038   0.48473499   -6.8946342   0.10405553    7919.3148    2050.7848    6783.2162    5675.2976   -748.64344    1260.1581    1929.6391 
  379000     252.5972    -163.8424   -130.96309    -163.8424            0    1987.3379    18.338396    22.445712    19.505156   0.28165162    -6.830636   0.11963534    8028.6801     17.65089    4372.8282    1571.5347   -3725.4217   -2186.8259   -4071.7397 
  379500    255.55657   -164.93792    -131.6734   -164.93792            0    9543.9013    18.013975    22.374545    19.615637  -0.20193899   -6.7559935 -0.035141496    7906.1709    12893.163    10361.945    5376.5956    1997.2017    489.41404    1123.4133 
  380000    256.98285   -165.51311   -132.06294   -165.51311            0    5346.1887    18.036959    22.591285    19.606303  -0.39659749   -6.8385368  0.016939085    7989.1387     1912.916    6128.9178    7996.7324    3047.4643    2510.7474    2952.0995 
  380500    252.28154   -165.49498   -132.65676   -165.49498            0    4678.8144    18.111814    22.735459    19.286389   -0.2596499    -6.867665   0.14722123    7941.7565    1702.4442    2436.7541    9897.2448   -1077.2408   -2354.3436   -543.24804 
  381000    251.52128   -164.41475   -131.67549   -164.41475            0    3829.9915    18.161523    22.808467    19.196112 -0.031959002   -6.8623272   0.20633927    7951.7305     4144.947    896.24506    6448.7825    521.26341   -1661.0669    -792.8932 
  381500    264.39624   -162.60438   -128.18926   -162.60438            0    3844.6812    18.157421    22.840662    19.423189   0.11048394   -6.8382493   0.12331523    8055.3309    5092.8153    4661.5835    1779.6447    -924.7422    343.10002    1489.0332 
  382000    257.62336   -163.99788   -130.46434   -163.99788            0    6344.5585    17.922027    22.650605    19.426141   0.13008301   -6.7944478 -0.016481778    7885.9401     8093.027    3919.9191    7020.7292   -290.60056   -241.12602   -2061.0462 
  382500    266.51507   -163.16659   -128.47567   -163.16659            0    3915.1083    18.100591    22.722024      19.5233  0.053338787    -6.908098  -0.15020985    8029.5832    4952.9871    3722.3687     3069.969   -2218.1743   -1907.3684    1865.7818 
  383000    253.45101   -162.15575   -129.16531   -162.15575            0    5353.1304    18.226566    22.619015     19.33024 -0.080225447   -7.0205561 -0.080753357    7969.2193    7830.3635    3404.9341    4824.0937    1921.4719   -56.465488    393.73461 
  383500    266.08104   -162.89503    -128.2606   -162.89503            0    3911.4171    18.233442    22.598671    19.295812 -0.096982157   -7.0951959   0.11771044    7950.8696    1225.9023    5833.3648    4674.9843   -1493.4131   -45.353883    801.73866 
  384000    249.01089   -163.58077   -131.16827   -163.58077            0    3266.8481    18.140322    22.722973    19.504126 -0.044218232   -7.0994647    0.2306814     8039.641    4898.6835    2852.7988     2049.062   -459.26199    -1400.689   -191.95606 
  384500    252.89393   -164.21322   -131.29529   -164.21322            0    5776.3887    17.884129    22.632933    19.378511 -0.030835443    -6.939661   0.15704064    7843.8455    7689.4329    3605.2348    6034.4983    1831.0355    623.75439    -539.1598 
  385000    241.30487   -164.11915   -132.70971   -164.11915            0    4552.0349    18.132778     22.85089    19.480021 -0.0041722309   -6.9625608 -0.015591312    8071.5488    3944.9004    3265.8711    6445.3332    2680.8439     871.9858   -555.35838 
  385500    251.29595    -164.9916   -132.28167    -164.9916            0    5210.0353    18.166006    22.651662    19.244241  0.079828388   -6.9020074  -0.12029432     7918.817    4111.4373    5249.2095    6269.4591   -1767.6522    1704.2055    2156.2337 
  386000    256.96171   -165.16189   -131.71448   -165.16189            0    5061.6703    18.204129    22.644266    19.318148   0.12526139   -6.8719626 -0.074279384    7963.3104   -230.62258      9071.42    6344.2135   -4910.9864   -2192.8097   -741.09648 
  386500    264.69984   -163.85067   -129.39602   -163.85067            0    3787.0248    18.109972    22.670997    19.547041   0.14208355   -6.8732186  0.029259806    8025.4507    4700.4327    3261.0729    3399.5689    2320.3937     1163.394    1998.6602 
  387000    252.34475   -164.00357   -131.15712   -164.00357            0    6210.5174    17.989954    22.506643    19.515963   0.10128371   -6.8588854  0.054052585    7901.8858    7978.5024    6063.7811    4589.2688    44.810841    69.518873    3472.0376 
  387500    254.67874   -164.79285    -131.6426   -164.79285            0     4122.129    18.140161    22.680537    19.417088 -0.053944047   -6.9194577  0.014764565    7988.7456    5422.2107    4211.6151    2732.5612    1402.2153   -582.11327   -2180.8543 
  388000    252.15589   -166.28701   -133.46515   -166.28701            0    5806.1248    18.267286    22.716983    19.193936  -0.20375819   -6.9873102 -0.047142414    7965.0536    5924.0376    5596.4739    5897.8629    1081.1561    1160.1782    2436.7814 
  388500    246.03373   -164.80612   -132.78115   -164.80612            0     9405.222    18.132342    22.688009    19.178135  -0.14363112   -6.9667884 -0.0058015823    7889.6302    13615.756    6788.3201    7811.5903   -946.21145   -1261.3116    1173.6502 
  389000    251.66347   -165.40706   -132.64929   -165.40706            0    5281.4242    18.016415    22.811527    19.521441  0.096120356   -6.9866933   0.10685346    8022.9597    5311.3489    6036.7608    4496.1629    2472.2222    1263.6392    1119.1594 
  389500    255.76002   -165.68835   -132.39736   -165.68835            0    4604.9814    17.885948    22.625569    19.499947   0.29577395   -6.9630849   0.13014566    7891.2334    4983.6741    4355.3032     4475.967   -2390.6627   -442.23325    353.32655 
  390000    250.14151   -166.07712   -133.51745   -166.07712            0    7331.5844    18.192866    22.568913    19.321762   0.23094699   -7.0817079 -0.051947701    7933.3842    9087.1919    5593.0196    7314.5417   -1572.9416    1890.4331    1335.8827 
  390500    255.39996   -163.68265   -130.43853   -163.68265            0    3573.8483    18.420627    22.642496    19.213294 -0.024483814   -7.0809311  -0.20901716    8013.6529    2751.0227    3500.7035    4469.8186    1108.6063   -160.84654    2512.2038 
  391000    258.53952   -162.85568   -129.20289   -162.85568            0    3486.7356    18.201007    22.573349    19.325852  -0.17427365   -6.9381038  -0.13495962    7940.1748     3243.444    2008.7591    5208.0038    3932.2681   -740.77966    1146.8128 
  391500     267.3606   -162.74625   -127.94527   -162.74625            0    1062.8759    18.084075    22.669772    19.600419  -0.14051928    -6.799735  0.069347684    8035.4241    84.049402    4820.8578   -1716.2796   -2529.4318   -2810.2971   -4223.5146 
  392000    245.94057   -165.37595    -133.3631   -165.37595            0    3993.5376    18.036692     22.61702    19.484862   -0.1208555   -6.8062577   0.29974052    7948.5809    7914.4746    4046.5077    19.630558    896.24099    -341.8513    3599.3493 
  392500    251.79197   -165.64489    -132.8704   -165.64489            0    5238.9727    18.186427    22.603222    19.377002 -0.092920901   -6.8754488   0.30080556    7965.3402    4793.2912      4442.18    6481.4468    182.63223   -66.781649   -1078.7614 
  393000    264.11313   -164.42262   -130.04435   -164.42262            0    3348.0943    18.187952    22.650823    19.366613 -0.038614268   -6.9292149  0.032144482    7978.5041    1369.9838    5518.1738    3156.1253    1687.3757    -2155.387    209.46338 
  393500     267.5122   -162.76948   -127.94876   -162.76948            0    6408.2292    18.145441    22.712049    19.434524  0.052768161   -7.0331765  -0.28507174    8009.3585     7058.586    3706.7751    8459.3264    200.18708   -2244.0178   -2518.4808 
  394000    257.69515   -165.20828    -131.6654   -165.20828            0     4247.932    18.043649    22.670162    19.432514    0.2248896   -7.0715167  -0.29280942    7948.9171    4770.2395    4818.2506    3155.3058   -871.50346   -915.19291    2377.3739 
  394500    242.34901   -163.63267   -132.08732   -163.63267            0    2319.8048    18.044361    22.665909    19.445069   0.48091844   -7.0945783   0.11679515    7952.8743    2637.4428    1941.7218      2380.25   -3723.3872   -1165.7548   -6518.3411 
  395000    254.83744   -163.76599   -130.59508   -163.76599            0    6204.1538     18.16997    22.698443     19.44633   0.34501389   -7.0871878   0.43131709    8020.2504    3085.1795    5059.5403    10467.742   -227.35041    -1075.899    1950.1623 
  395500    246.98686    -164.0734   -131.92436    -164.0734            0    1193.7228    18.088922    22.635334    19.359755  -0.16201115   -6.9585649   0.32928795    7926.8285   -1860.2818    5341.5551     99.89506    -1150.359   -492.71913   -837.46683 
  396000    239.39862   -164.49878   -133.33747   -164.49878            0    1317.0986    18.074271    22.766881    19.384256  -0.54084716   -6.7902368  0.041104115    7976.5199     5240.598    400.22552   -1689.5277    2335.7808    632.07531   -587.38023 
  396500    249.13813   -165.35323   -132.92417   -165.35323            0    8610.0528    18.085698    22.771593    19.305997  -0.47153811   -6.7397106 -0.068929287    7950.9845    9658.8349    7708.0837    8463.2396    3553.3263   -2508.2354    2390.7665 
  397000    251.92899   -164.01881   -131.22648   -164.01881            0    2745.6351    18.136016     22.71314     19.31825 -0.051047911   -6.7681713 -0.003047867    7957.6871    476.22978    3255.6708    4505.0047   -1472.7644   -2659.2151     148.7583 
  397500    255.07381   -163.96439   -130.76272   -163.96439            0    3737.4474    18.119329    22.605925    19.473698   0.23670252   -6.7959634  0.047133275    7976.5081    2954.4812    4899.4567    3358.4042    -2360.765    500.15267   -2472.1277 
  398000    259.21141   -165.38291   -131.64267   -165.38291            0    6467.2295    18.068264    22.549283    19.513268   0.21130301   -6.8796813  -0.01830527    7950.2206    6815.7427    6681.3358    5904.6098   -1264.4903   -78.309195   -622.51562 
  398500    272.06202   -165.35163   -129.93868   -165.35163            0   -26.472801    18.126507    22.659433    19.453461  0.023069662   -6.9832405  -0.15210163    7990.2435    2087.7624   -1820.6128   -346.56806    2149.4691   -3432.7795    1298.9347 
  399000    243.41756   -165.78147   -134.09703   -165.78147            0    7529.9352    18.175314    22.683807    19.222714  -0.18037123   -7.0381012  -0.16124307    7925.2428    7747.8691    9858.7887    4983.1479    1056.3022     1676.797    1650.5467 
  399500    249.63762   -164.51405   -132.01997   -164.51405            0    6484.1285    18.142737     22.79421    19.182823  -0.21951784   -7.0584935  0.088466938    7933.0444    6560.4841    4704.9903     8186.911    4431.5595    643.03854   -1150.0872 
  400000     244.1729   -165.10738   -133.32462   -165.10738            0    2764.1624    18.014842    22.743793    19.510898 -0.077897844   -7.0089965   0.35504629    7994.1191    647.47752    5065.7472    2579.2624   -1237.3985    1616.4926   -2976.8958 
Loop time of 2556.55 on 1 procs for 400000 steps with 1008 atoms

Performance: 6.759 ns/day, 3.551 hours/ns, 156.461 timesteps/s
70.8% CPU use with 1 MPI tasks x 1 OpenMP threads

MPI task timing breakdown:
Section |  min time  |  avg time  |  max time  |%varavg| %total
---------------------------------------------------------------
Pair    | 2195.6     | 2195.6     | 2195.6     |   0.0 | 85.88
Bond    | 0.050188   | 0.050188   | 0.050188   |   0.0 |  0.00
Neigh   | 328.5      | 328.5      | 328.5      |   0.0 | 12.85
Comm    | 11.384     | 11.384     | 11.384     |   0.0 |  0.45
Output  | 1.98       | 1.98       | 1.98       |   0.0 |  0.08
Modify  | 17.385     | 17.385     | 17.385     |   0.0 |  0.68
Other   |            | 1.604      |            |       |  0.06

Nlocal:        1008.00 ave        1008 max        1008 min
Histogram: 1 0 0 0 0 0 0 0 0 0
Nghost:        5063.00 ave        5063 max        5063 min
Histogram: 1 0 0 0 0 0 0 0 0 0
Neighs:         0.00000 ave           0 max           0 min
Histogram: 1 0 0 0 0 0 0 0 0 0
FullNghs:      268984.0 ave      268984 max      268984 min
Histogram: 1 0 0 0 0 0 0 0 0 0

Total # of neighbors = 268984
Ave neighs/atom = 266.84921
Ave special neighs/atom = 0.0000000
Neighbor list builds = 40000
Dangerous builds not checked

unfix		3
unfix		2

write_data	data.final.${pid}
write_data	data.final.0
System init for write_data ...

write_restart   restart.lmp.${pid}
write_restart   restart.lmp.0
System init for write_restart ...
Total wall time: 0:42:39
