LAMMPS data file via write_data, version 29 Sep 2021, timestep = 400000

864 atoms
2 atom types

-0.03207420104802772 18.239647201048747 xlo xhi
0.1430611322879649 23.486115867711902 ylo yhi
-0.02636973835957157 22.23956573835938 zlo zhi

Masses

1 1.008
2 15.999

Atoms # full

706 0 1 -1.1794 3.031807905493038 1.7754834847961094 2.707309028362186 0 0 0
708 0 2 0.5897 2.109002717592593 2.064505166045707 2.6143713113873916 0 0 0
707 0 2 0.5897 3.236209784067752 1.7838165917916717 3.670994476318176 0 0 0
3 0 2 0.5897 0.21714288965000728 3.902798557375737 2.414121464940212 0 0 0
1 0 1 -1.1794 0.41717628311089294 3.0553655045934818 2.0076470839032643 0 0 0
20 0 2 0.5897 0.5744540869728423 3.3993882509592366 0.27781386688239074 0 0 0
29 0 2 0.5897 4.267650197586306 2.9015586043943573 2.081530213579234 0 0 0
188 0 2 0.5897 3.1949365971298436 0.4117010343770508 1.7067995548041874 0 0 0
30 0 2 0.5897 4.931894086501328 4.323755236007879 2.203067395705346 0 0 0
28 0 1 -1.1794 5.021303201566002 3.423152984537314 1.8182492999221234 0 0 0
493 0 1 -1.1794 7.55849062816303 2.417071714230923 2.482243704833441 0 0 0
494 0 2 0.5897 6.784093615333016 2.855893728786295 2.16717270953337 0 0 0
495 0 2 0.5897 8.333966456857677 2.991119861867647 2.3571477055027317 0 0 0
668 0 2 0.5897 4.668758167544237 3.000279225776811 0.0023176660187921583 0 0 0
819 0 2 0.5897 7.685262471960839 0.5732140254147369 1.8897466508524934 0 0 0
846 0 2 0.5897 7.491812974982132 1.98237668215701 4.148641200116936 0 0 0
748 0 1 -1.1794 10.187711980642252 3.326950942480447 1.5674894034342097 0 0 0
106 0 1 -1.1794 11.889526275579236 1.9581893809540631 3.18753637964835 0 0 0
108 0 2 0.5897 11.249639912061527 2.4443141961356845 2.6040507236865795 0 0 0
750 0 2 0.5897 10.093596214617401 3.3495046762937375 0.6107302610875598 0 0 0
749 0 2 0.5897 10.114193277739865 4.262378356206617 1.7891705996092024 0 0 0
107 0 2 0.5897 11.52803035357388 1.9229313024133723 4.078012877254716 0 0 0
215 0 2 0.5897 13.512654564681766 3.0841036925912486 2.8860608135762216 0 0 0
63 0 2 0.5897 11.850478621452565 0.3460572456739455 2.2974806088034496 0 0 0
2 0 2 0.5897 17.879036249816508 2.533853746557945 2.173886873443341 0 0 0
214 0 1 -1.1794 14.405603737981007 3.3567929912065493 2.552601997287058 0 0 0
216 0 2 0.5897 14.485304483799206 4.28440901895541 2.753853274440343 0 0 0
406 0 1 -1.1794 16.46174587148225 1.6251707275101044 2.9197041755292816 0 0 0
407 0 2 0.5897 16.473022965182977 0.7532639722709522 2.463979381174324 0 0 0
408 0 2 0.5897 15.620761803146156 2.1288921332888586 2.7025966597318924 0 0 0
369 0 2 0.5897 14.557273942610339 3.4930030447784293 0.42821319820163434 0 0 0
123 0 2 0.5897 2.920728240250302 8.703330276956535 2.694204227631538 0 0 0
253 0 1 -1.1794 2.7097454014951605 7.109628472249919 1.921515302378867 0 0 0
254 0 2 0.5897 2.6510116983320082 7.186500549664809 0.9481597563971674 0 0 0
255 0 2 0.5897 1.9246914185301964 6.676962753549086 2.274313917986055 0 0 0
595 0 1 -1.1794 0.5358563318628445 5.834237945396317 2.9369133812585133 0 0 0
597 0 2 0.5897 0.6374010330425216 5.830791604004685 3.9334598844724202 0 0 0
138 0 2 0.5897 3.9808624378758877 6.460491058471508 2.590667385222545 0 0 0
136 0 1 -1.1794 4.911234633052609 6.210987348206486 2.748359062380657 0 0 0
65 0 2 0.5897 7.116566811643309 8.78003615038889 2.3860072086116224 0 0 0
415 0 1 -1.1794 7.068619937980073 7.273555685411514 1.5497975224298373 0 0 0
416 0 2 0.5897 6.267005766219745 6.975644737513491 2.0170457691484924 0 0 0
417 0 2 0.5897 7.81903929855161 6.827072602087548 1.957115992715759 0 0 0
137 0 2 0.5897 4.993239889536423 6.34868740628272 3.746781695576863 0 0 0
190 0 1 -1.1794 11.84295409647281 6.879332853327352 2.061693407539513 0 0 0
191 0 2 0.5897 11.74349966472344 6.831742625287698 1.063505467973749 0 0 0
192 0 2 0.5897 11.665148489448024 7.8063045602884955 2.213395845240652 0 0 0
298 0 1 -1.1794 9.425608096871361 5.750199120189543 2.7958216399184987 0 0 0
299 0 2 0.5897 10.334338086064715 6.014196920751373 2.5282043266405023 0 0 0
300 0 2 0.5897 9.45198042357361 5.777830024271543 3.7637509538309906 0 0 0
110 0 2 0.5897 13.399553941119615 6.542329931889218 2.8521214245757704 0 0 0
596 0 2 0.5897 17.95064994378952 6.194947222306925 2.86642691466625 0 0 0
109 0 1 -1.1794 14.149681409811022 6.048608437784277 3.20412898765885 0 0 0
111 0 2 0.5897 14.918540741354317 6.531966907065547 2.9039039803763576 0 0 0
838 0 1 -1.1794 16.43698679474631 7.14456881576824 2.3269423143641896 0 0 0
839 0 2 0.5897 16.499309892251866 8.094647423775022 2.6296590919037235 0 0 0
840 0 2 0.5897 16.344062211146728 7.156016001387109 1.3370620615590758 0 0 0
121 0 1 -1.1794 3.133814293780665 9.651929064594675 2.8547177906218946 0 0 0
122 0 2 0.5897 3.280533860817513 9.681687741591546 3.7980945443442606 0 0 0
43 0 1 -1.1794 0.8428173705740958 10.90083382603725 2.0984326117620435 0 0 0
44 0 2 0.5897 1.6850726155389353 10.585249881972183 2.4389034648558967 0 0 0
45 0 2 0.5897 0.7997283160520726 11.785536314047649 2.5194878382223393 0 0 0
373 0 1 -1.1794 0.6479861380495586 13.365619129783477 3.2166510378365083 0 0 0
374 0 2 0.5897 0.5776655852350489 13.46409419535954 4.196715978885123 0 0 0
375 0 2 0.5897 -0.012261425399934467 13.974409050945392 2.8485153085492807 1 0 0
396 0 2 0.5897 0.061065056447156874 10.666239328730283 0.5176621224615813 0 0 0
66 0 2 0.5897 7.524240232318011 9.595727120083307 3.7015449103508926 0 0 0
64 0 1 -1.1794 7.367713232904574 9.696384912266991 2.7350884719837745 0 0 0
219 0 2 0.5897 4.535876961452702 10.469507031130197 2.191168410362124 0 0 0
174 0 2 0.5897 5.066667300833706 12.93091394051934 2.2407086193872505 0 0 0
217 0 1 -1.1794 5.131580587768961 11.012244980472005 1.691790949540863 0 0 0
172 0 1 -1.1794 5.082109590452259 13.900096081529178 2.476485550513978 0 0 0
218 0 2 0.5897 5.972367355238263 10.589637775477234 1.9352651038664228 0 0 0
363 0 2 0.5897 5.081647234174758 11.155377285791486 0.003087838303092387 0 0 0
773 0 2 0.5897 8.757129941540951 10.438992368821081 2.1221924068508997 0 0 0
200 0 2 0.5897 4.937650214928202 14.029619564990504 4.158066436418858 0 0 0
91 0 1 -1.1794 12.068105311223697 9.888865803927134 2.8945744543019045 0 0 0
92 0 2 0.5897 11.981589302820497 9.867758799567667 3.8818873184918488 0 0 0
774 0 2 0.5897 9.545476350493457 10.94726865971031 0.8150115666417107 0 0 0
93 0 2 0.5897 11.23098591158427 10.342405278113148 2.613578663099269 0 0 0
772 0 1 -1.1794 9.542231451673548 10.957892276981863 1.787934803175534 0 0 0
156 0 2 0.5897 9.619061974196574 12.64972430493043 2.5545994274786343 0 0 0
154 0 1 -1.1794 9.765633466187355 13.462971755537591 3.07531605426148 0 0 0
155 0 2 0.5897 10.470595846382299 13.913075498569071 2.528889510356762 0 0 0
860 0 2 0.5897 14.019710015910887 10.48039601881647 2.961849055650309 0 0 0
841 0 1 -1.1794 17.06862800319339 9.524129450201338 3.403290055241755 0 0 0
842 0 2 0.5897 17.48335807720111 9.503450402066528 4.247704137314652 0 0 0
859 0 1 -1.1794 14.747262715004265 10.90024618421482 2.5299537702813693 0 0 0
843 0 2 0.5897 17.845248855186682 9.767064129299701 2.79845679954248 0 0 0
57 0 2 0.5897 14.744609137468903 12.613783892652178 2.8737127259071116 0 0 0
861 0 2 0.5897 15.589572884685975 10.580145265729904 2.9379661746384333 0 0 0
55 0 1 -1.1794 14.501509678045487 13.589410161468397 3.016236592614273 0 0 0
56 0 2 0.5897 14.381838845122282 13.802839501388833 3.956275660690171 0 0 0
152 0 2 0.5897 14.370494857504944 11.038054836286987 0.8574394932257474 0 0 0
557 0 2 0.5897 1.8120442251511175 14.356519590642709 2.0450807647560603 0 0 0
173 0 2 0.5897 4.224381219652419 14.331477509603202 2.170960704885372 0 0 0
558 0 2 0.5897 2.510841179359431 15.006652695158003 0.7600622276557077 0 0 0
292 0 1 -1.1794 2.9183248167418765 17.490912523359142 3.1499161073935613 0 0 0
293 0 2 0.5897 2.7285407393065984 16.595082414797083 2.8054402897226196 0 0 0
556 0 1 -1.1794 2.586325613213136 14.842076056603464 1.6957473085646664 0 0 0
344 0 2 0.5897 1.7061989114226643 18.21966630691538 2.132564928735281 0 0 0
294 0 2 0.5897 2.880732217796099 17.484875518368714 4.1303667757015115 0 0 0
345 0 2 0.5897 0.9506274670833762 18.596754117860627 0.7722409378144851 0 0 0
343 0 1 -1.1794 1.0386047409869725 18.817125184538238 1.719023615388203 0 0 0
227 0 2 0.5897 4.6150495621941525 18.128015115080014 2.7940477083252913 0 0 0
479 0 2 0.5897 8.464069831268642 14.317395748203614 2.165746708001246 0 0 0
480 0 2 0.5897 6.9341238457894905 14.368735920969305 2.0597046728044144 0 0 0
478 0 1 -1.1794 7.722455703562407 14.856285961515605 1.788797929223769 0 0 0
448 0 1 -1.1794 7.782000702349178 17.422117287865166 3.1005610856248604 0 0 0
449 0 2 0.5897 7.874812135478168 16.554625491303042 2.6440300704402073 0 0 0
450 0 2 0.5897 6.878618820067547 17.77779441993176 2.9630110964349603 0 0 0
317 0 2 0.5897 7.531580024528461 15.06181596439341 0.0016363273149853988 0 0 0
226 0 1 -1.1794 5.396232595096771 18.548496451641714 2.4275776897860197 0 0 0
602 0 2 0.5897 5.58254762157665 18.81226625879893 0.2499203339604263 0 0 0
321 0 2 0.5897 9.392969245908393 18.341827079279174 2.7930629398597455 0 0 0
560 0 2 0.5897 12.644173008709691 14.29560405023515 2.045678174496542 0 0 0
559 0 1 -1.1794 11.850015699220423 14.717852900406616 1.6874765946165833 0 0 0
561 0 2 0.5897 11.891205563833015 14.762726136318134 0.7340354815977556 0 0 0
320 0 2 0.5897 10.974516580003982 18.179943239403205 2.6863196502556117 0 0 0
832 0 1 -1.1794 12.417299694763134 17.132433155350032 3.2009702552219452 0 0 0
834 0 2 0.5897 12.2582846870594 16.283410779485514 2.687364766886956 0 0 0
833 0 2 0.5897 13.268893334491045 17.41604129113751 2.8690478173506464 0 0 0
319 0 1 -1.1794 10.219729557334928 18.75731353623778 2.4999677381432543 0 0 0
389 0 2 0.5897 10.060986799455685 18.722857257716555 0.7645299044043338 0 0 0
179 0 2 0.5897 16.08450190980956 14.609683292541355 2.692153359188917 0 0 0
178 0 1 -1.1794 16.741295263363845 14.928015568900578 2.0354809982017117 0 0 0
746 0 2 0.5897 17.759704815920855 18.18367727185332 2.6760928999581375 0 0 0
180 0 2 0.5897 16.785804948698477 15.891034591093012 2.162629865476434 0 0 0
745 0 1 -1.1794 16.989476122814303 17.601785180541277 2.965618865205213 0 0 0
747 0 2 0.5897 16.153281283018224 18.05471192841401 2.691263369311187 0 0 0
614 0 2 0.5897 16.93183603931662 14.937742933939742 0.27036296109038066 0 0 0
304 0 1 -1.1794 14.631832394454044 18.72551807464638 2.0760646139844687 0 0 0
305 0 2 0.5897 14.337914006110784 18.761336029232144 1.1372854417210647 0 0 0
187 0 1 -1.1794 3.1488255916971077 22.84359433814309 1.4937660481187027 0 0 0
189 0 2 0.5897 3.037389400235564 22.73790841466039 0.5078797320516695 0 0 0
694 0 1 -1.1794 0.7569206138821306 21.70007378614603 2.6052901668942963 0 0 0
695 0 2 0.5897 0.755136422652325 20.716175529053555 2.354220337244529 0 0 0
696 0 2 0.5897 1.5395285864186 22.123948827157783 2.219915926589044 0 0 0
266 0 2 0.5897 4.428270818895808 21.63055058571055 2.5110232045653462 0 0 0
228 0 2 0.5897 5.454894755624284 19.406503101245683 2.903087741764179 0 0 0
265 0 1 -1.1794 5.319324961068061 21.383173925139875 2.9095562997910274 0 0 0
267 0 2 0.5897 5.97531553815816 22.04869497396509 2.609721434950051 0 0 0
817 0 1 -1.1794 7.5076256918227555 22.956410574894008 2.1168144599612497 0 0 0
818 0 2 0.5897 8.352361411992321 22.716077537290072 2.572219069234804 0 0 0
498 0 2 0.5897 7.383465437973612 22.444685946997517 0.28751414184145985 0 0 0
398 0 2 0.5897 9.975145055767543 20.555158258465333 2.9725432925067734 0 0 0
61 0 1 -1.1794 11.844052759077384 22.784540719103877 2.01160615341632 0 0 0
62 0 2 0.5897 12.616131131433587 22.346227667095757 2.3573712847990174 0 0 0
397 0 1 -1.1794 9.762626703776792 21.518997691078564 3.189252705736052 0 0 0
399 0 2 0.5897 10.477201129013658 22.044772607026303 2.8056713321379196 0 0 0
425 0 2 0.5897 11.660647559991482 22.912189493053255 0.24003404831182534 0 0 0
306 0 2 0.5897 14.339680287487525 19.612695184082764 2.404721441168257 0 0 0
118 0 1 -1.1794 14.259633644850307 21.501924901778455 2.9425347759357394 0 0 0
120 0 2 0.5897 15.034468909072537 22.01518773028077 2.5773340445799326 0 0 0
727 0 1 -1.1794 16.510805461350984 22.52473954390597 1.7545236355535228 0 0 0
728 0 2 0.5897 16.494066400040168 22.455692360186063 0.7770591314774062 0 0 0
729 0 2 0.5897 17.417964295971736 22.211950232021206 2.0485818957539546 0 0 0
119 0 2 0.5897 14.30603009897304 21.64458921429313 3.9009954973262753 0 0 0
487 0 1 -1.1794 2.6027226235696856 1.720059604266827 5.570168456772715 0 0 0
488 0 2 0.5897 1.8199957052970148 2.2792944446074053 5.822969143362138 0 0 0
489 0 2 0.5897 2.453396940095283 0.8909113969632603 5.964669431114027 0 0 0
784 0 1 -1.1794 0.3958674541406634 2.7639138049950396 6.680318632465219 0 0 0
785 0 2 0.5897 0.5492708753446004 2.751336618231102 7.709854072890708 0 0 0
83 0 2 0.5897 4.273506117749855 2.591700570283775 6.039379487899462 0 0 0
183 0 2 0.5897 0.2850415944004646 4.532653237168376 6.36250910351593 0 0 0
82 0 1 -1.1794 5.046332110959412 3.1809717113695415 6.1693958937536575 0 0 0
84 0 2 0.5897 5.802329058912319 2.798671420872273 5.734323487518603 0 0 0
844 0 1 -1.1794 7.386159474768044 2.0066391056681083 5.1365325244342115 0 0 0
845 0 2 0.5897 7.4644081621609795 1.0489297758269083 5.457230746225761 0 0 0
275 0 2 0.5897 5.336651262152591 3.1203584823524833 8.18812773873087 0 0 0
419 0 2 0.5897 8.461526475874182 3.171231731597436 6.153746995467263 0 0 0
418 0 1 -1.1794 9.178626666178346 3.645755227290975 6.595176836620814 0 0 0
420 0 2 0.5897 9.252274824263855 4.467853398044945 6.114073650588294 0 0 0
177 0 2 0.5897 9.65658092993145 3.117728296981788 8.177853032472676 0 0 0
802 0 1 -1.1794 11.47731135018223 2.136053519187652 5.906311308838189 0 0 0
803 0 2 0.5897 10.722362851598335 2.7203036652607047 6.186879879272202 0 0 0
804 0 2 0.5897 12.305882193432558 2.6191636739834094 6.15074956076757 0 0 0
171 0 2 0.5897 11.734985555902787 0.4767257120029945 6.665949719024182 0 0 0
660 0 2 0.5897 16.402118311875796 1.3315861063223549 4.781226988505234 0 0 0
786 0 2 0.5897 17.870634028876964 2.240315674110199 6.538712055489282 0 0 0
437 0 2 0.5897 14.09783926344787 3.0233815488354105 7.5606427076893175 0 0 0
436 0 1 -1.1794 13.927594628002842 3.0669883091127144 6.633312023200353 0 0 0
438 0 2 0.5897 14.706067159419796 2.6805125945780404 6.258533354244586 0 0 0
658 0 1 -1.1794 16.211243214488206 1.446551432974779 5.711637378135006 0 0 0
659 0 2 0.5897 16.328212696581417 0.6264983332678914 6.179084337256209 0 0 0
732 0 2 0.5897 14.190932058808436 4.762483717156833 6.008096712637068 0 0 0
10 0 1 -1.1794 2.5179154589340618 6.823181654467248 6.675885989159543 0 0 0
11 0 2 0.5897 1.6593241295081846 6.4070319409721295 6.648763790634178 0 0 0
12 0 2 0.5897 2.4207439903536416 7.787877242935841 6.4042481894402865 0 0 0
181 0 1 -1.1794 0.30295213200201826 5.411322422202176 5.9241069171704686 0 0 0
650 0 2 0.5897 2.6259861764493957 7.074020140003272 8.47191477701756 0 0 0
687 0 2 0.5897 3.940930738367382 6.345503254715527 5.8245363824534975 0 0 0
686 0 2 0.5897 4.7312219543637495 5.033174792623707 5.77678086242363 0 0 0
685 0 1 -1.1794 4.780690076796034 5.995748951383094 5.483729341145207 0 0 0
145 0 1 -1.1794 7.3674289504023776 7.250015795388162 6.606566495777748 0 0 0
146 0 2 0.5897 6.556682601180218 6.792946036960963 6.281307299876079 0 0 0
147 0 2 0.5897 7.136445459112063 7.255627675257405 7.538709898661365 0 0 0
714 0 2 0.5897 7.525254902453106 8.93568968432178 5.825809720895458 0 0 0
165 0 2 0.5897 8.836435918939017 6.443762063130676 5.928953025959791 0 0 0
163 0 1 -1.1794 9.609368122598969 6.079948751080539 5.442800141133623 0 0 0
164 0 2 0.5897 10.378645550165393 6.543381977315736 5.862528995731889 0 0 0
230 0 2 0.5897 12.062416091430938 8.772934367353555 6.1848281211750535 0 0 0
391 0 1 -1.1794 11.919625087109672 6.981439422684884 6.549849192272432 0 0 0
392 0 2 0.5897 11.865836765818289 6.959905280734502 7.541386887064402 0 0 0
393 0 2 0.5897 12.708633304155551 6.466298148274324 6.24184051738772 0 0 0
731 0 2 0.5897 14.206281945708001 5.760938921220156 4.753000338739794 0 0 0
182 0 2 0.5897 17.799505525596672 5.887135108239015 6.319295354766553 0 0 0
730 0 1 -1.1794 14.119992126141506 5.716139180329919 5.714913872842941 0 0 0
525 0 2 0.5897 16.63145098674422 8.587645048412902 6.30622765387691 0 0 0
541 0 1 -1.1794 16.31717322435967 6.804825316909795 6.712592883618556 0 0 0
542 0 2 0.5897 15.458366351750257 6.531604955877992 6.342633570870748 0 0 0
543 0 2 0.5897 16.30761141611702 6.747539171852556 7.672673767216718 0 0 0
793 0 1 -1.1794 2.9482343879971076 9.625781634854018 5.763625044614189 0 0 0
795 0 2 0.5897 3.7436068437460026 10.06723806476602 5.975310076870427 0 0 0
550 0 1 -1.1794 0.7600901604658697 10.922332363771009 6.86778614165185 0 0 0
551 0 2 0.5897 0.8779394161657821 11.075399804621403 7.79874354657547 0 0 0
552 0 2 0.5897 0.43084191729287874 11.73024944792387 6.496004453919014 0 0 0
794 0 2 0.5897 2.293828053375984 10.183682661855197 6.225316145334581 0 0 0
655 0 1 -1.1794 0.6301498441928071 13.537268465155389 5.9508055534451225 0 0 0
656 0 2 0.5897 1.3089809915019215 13.852703503137452 6.5401802202892965 0 0 0
712 0 1 -1.1794 7.598259970189484 9.71064651794031 5.31196966907998 0 0 0
713 0 2 0.5897 8.30434803157406 10.304482925497485 5.608036886224142 0 0 0
577 0 1 -1.1794 5.18838279778309 11.238178987856612 6.629003079092447 0 0 0
578 0 2 0.5897 6.054951235125678 10.84638215331796 6.378694160425596 0 0 0
579 0 2 0.5897 5.0449789978891895 12.098606647443987 6.008761968883601 0 0 0
582 0 2 0.5897 5.091390811342178 11.136116564702371 8.42626116201442 0 0 0
199 0 1 -1.1794 4.8854887553929505 13.964534398277141 5.128090787009613 0 0 0
805 0 1 -1.1794 9.02143042976067 13.486483773564702 5.732001033021938 0 0 0
806 0 2 0.5897 9.214633351817795 13.4639677456521 4.814666118308294 0 0 0
229 0 1 -1.1794 12.167004294850607 9.587630922612119 5.7667099044523615 0 0 0
807 0 2 0.5897 9.163237604097585 12.557378988901915 6.04867383717403 0 0 0
741 0 2 0.5897 9.90173129502435 10.83620868516915 7.747470872665343 0 0 0
231 0 2 0.5897 12.996093284754235 9.913157855562723 6.1724650931625655 0 0 0
739 0 1 -1.1794 9.786159544500322 10.962175778317144 6.766996576841209 0 0 0
740 0 2 0.5897 10.501220492015051 10.563074051158111 6.303851741243476 0 0 0
523 0 1 -1.1794 16.714825652933605 9.528312255081392 6.126085785287404 0 0 0
636 0 2 0.5897 14.374770324949539 11.76264302320535 6.256087647182686 0 0 0
634 0 1 -1.1794 14.460436458027 10.849224830995965 6.655198870734169 0 0 0
524 0 2 0.5897 17.537867416550412 9.87910631452816 6.612423409291236 0 0 0
635 0 2 0.5897 15.356699561069597 10.486071338629214 6.5465810304979275 0 0 0
724 0 1 -1.1794 14.25330418103424 13.842069877558995 5.888722869538198 0 0 0
857 0 2 0.5897 14.381141626745261 11.295513209038466 8.511589263782895 0 0 0
657 0 2 0.5897 18.167458864925237 14.084123024100121 6.173763105695278 0 0 0
18 0 2 0.5897 3.3660227898437087 14.61105563159409 6.459116203578294 0 0 0
17 0 2 0.5897 2.9178393924621973 15.134660358370942 7.949857972655151 0 0 0
16 0 1 -1.1794 2.734115598414095 15.095731407762768 7.010535331012308 0 0 0
238 0 1 -1.1794 3.204921999660956 17.602172762706697 5.894633922327743 0 0 0
239 0 2 0.5897 3.0703356839928424 16.82521627063685 6.432303439906554 0 0 0
341 0 2 0.5897 1.851457977748769 18.599417569805418 6.5326411913656335 0 0 0
240 0 2 0.5897 4.074874025163403 17.984548351326808 6.134871422104698 0 0 0
201 0 2 0.5897 5.723790621855184 14.363351324349026 5.498162481977777 0 0 0
519 0 2 0.5897 7.820927550161827 14.779919588117805 6.225818176450536 0 0 0
308 0 2 0.5897 7.869536907524622 17.63743497443746 4.819809189013042 0 0 0
378 0 2 0.5897 6.950959366821175 14.663971453672643 8.290296437914884 0 0 0
307 0 1 -1.1794 7.830136765738861 17.76034995889536 5.754773775188945 0 0 0
309 0 2 0.5897 8.71399966796009 18.086213948321717 6.0495836411637045 0 0 0
517 0 1 -1.1794 7.0116546410757525 15.165662241221167 6.569352027789247 0 0 0
518 0 2 0.5897 7.106747659157083 16.126161018073105 6.427501879287731 0 0 0
386 0 2 0.5897 6.481134267350979 18.71508325014357 6.310721887689537 0 0 0
102 0 2 0.5897 5.297126032930843 18.75707958462752 8.192241540289126 0 0 0
642 0 2 0.5897 11.039919455000687 14.208544117943308 6.581317326220812 0 0 0
640 0 1 -1.1794 11.705920476565048 14.726594874234692 7.02616579391599 0 0 0
726 0 2 0.5897 13.53265189051459 14.392218585546495 6.221375067538147 0 0 0
645 0 2 0.5897 12.226335859587108 17.383937493644584 5.008565192793225 0 0 0
641 0 2 0.5897 11.362439348549342 14.832054422798251 7.939922272133247 0 0 0
643 0 1 -1.1794 12.124825770632144 17.521910872951988 5.952280717800497 0 0 0
644 0 2 0.5897 11.988124565348153 16.615956842273974 6.289920452915149 0 0 0
303 0 2 0.5897 10.74367618136358 18.385364420154183 6.1720612844734655 0 0 0
734 0 2 0.5897 9.651197989954383 18.741475515575626 8.337944534517314 0 0 0
348 0 2 0.5897 13.771808450153948 18.474501181929643 6.371217941388313 0 0 0
564 0 2 0.5897 17.120411391639692 17.631781081271328 4.934219545476332 0 0 0
725 0 2 0.5897 15.066383489598769 14.298317240659566 6.178039103898363 0 0 0
563 0 2 0.5897 17.76312011809508 18.043846387053428 6.284968738394075 0 0 0
205 0 1 -1.1794 16.80815894672933 15.053702582034463 6.783948488657876 0 0 0
206 0 2 0.5897 16.968934977671758 15.895955282949451 6.290499203844718 0 0 0
207 0 2 0.5897 16.577872460124915 15.28154291418564 7.748816612369112 0 0 0
562 0 1 -1.1794 16.931521425112344 17.71837343144311 5.896915041058708 0 0 0
340 0 1 -1.1794 0.9326522246752257 18.86898337088114 6.813929349702217 0 0 0
342 0 2 0.5897 0.9930306742358919 19.296082269133453 7.681633573829483 0 0 0
413 0 2 0.5897 0.47200323286785106 21.310785651096328 4.444854970745926 0 0 0
700 0 1 -1.1794 2.715922179773701 22.589402539411886 6.821787658748654 0 0 0
701 0 2 0.5897 2.6791800111104087 22.582251749591894 7.793871315616635 0 0 0
702 0 2 0.5897 1.8822071127696935 22.153626463486543 6.527252838921142 0 0 0
412 0 1 -1.1794 0.3786588316059315 21.250151259346154 5.390922039863292 0 0 0
414 0 2 0.5897 0.5146385843154647 20.34493666909579 5.676687994620896 0 0 0
248 0 2 0.5897 4.0942154105190145 21.805755181770895 5.857812131278119 0 0 0
385 0 1 -1.1794 5.538708433014199 18.9321234185866 6.480418235847688 0 0 0
249 0 2 0.5897 5.092670403436832 21.72263569907713 4.667991895973745 0 0 0
247 0 1 -1.1794 5.053893483981307 21.72380602309171 5.65306832603211 0 0 0
31 0 1 -1.1794 7.337210165534362 22.775184922191983 6.632885465644865 0 0 0
32 0 2 0.5897 8.028334145727397 22.155585979136312 6.25559541301529 0 0 0
33 0 2 0.5897 6.493274122575892 22.389307967678533 6.265539050311091 0 0 0
387 0 2 0.5897 5.454394008446443 19.86740232301249 6.2801423146523065 0 0 0
86 0 2 0.5897 7.345935220203161 22.472717600640213 8.42642859527545 0 0 0
591 0 2 0.5897 9.763178400391709 21.69697016001494 4.928335732279695 0 0 0
301 0 1 -1.1794 9.965757530401344 18.910274418753946 6.504668371338925 0 0 0
169 0 1 -1.1794 11.842557729961037 22.89267898297777 7.029099525563628 0 0 0
170 0 2 0.5897 12.65344618672407 22.599063471850865 6.557550978260854 0 0 0
302 0 2 0.5897 9.868546833165617 19.754713560962113 6.0902194209696185 0 0 0
589 0 1 -1.1794 9.652022518172702 21.458738829901947 5.872639109468058 0 0 0
590 0 2 0.5897 10.298081601589654 22.114086847969663 6.232095093825092 0 0 0
330 0 2 0.5897 11.899924832399847 22.6158488397217 8.60148991653719 0 0 0
347 0 2 0.5897 15.319764728618429 18.898580690174818 6.033166623508745 0 0 0
346 0 1 -1.1794 14.491771972725479 19.149014822562222 6.513646637016888 0 0 0
371 0 2 0.5897 14.566558679926175 18.91289594080406 8.439180644028264 0 0 0
353 0 2 0.5897 17.424682723330598 21.94307174857674 6.6014981075889585 0 0 0
352 0 1 -1.1794 16.531584992672258 22.13523838477492 6.94412837014405 0 0 0
354 0 2 0.5897 16.567379421350473 22.113127520086294 7.943627275028559 0 0 0
532 0 1 -1.1794 14.120914569747715 21.680293874987306 5.774405835386321 0 0 0
533 0 2 0.5897 14.86856641884195 22.04985378910475 6.283439219179526 0 0 0
534 0 2 0.5897 14.023963877793605 20.806874828071848 6.0887260232234555 0 0 0
34 0 1 -1.1794 0.8417140872148396 3.1287483842489725 9.370358128513537 0 0 0
36 0 2 0.5897 1.496895434981399 2.51141666712187 9.680386674449954 0 0 0
167 0 2 0.5897 3.0259451272791096 2.200550847856546 11.922803959602247 0 0 0
673 0 1 -1.1794 3.1541387953734588 1.8036820915082785 10.162973477860964 0 0 0
674 0 2 0.5897 3.8408292800323562 2.2742114329376597 9.592613123055301 0 0 0
675 0 2 0.5897 3.0879282389185074 0.8928419773926981 9.97849944639138 0 0 0
35 0 2 0.5897 0.9136393004249523 3.9438447889653405 9.797319862456508 0 0 0
166 0 1 -1.1794 2.99858580854076 2.2113945665222103 12.872282673584069 0 0 0
168 0 2 0.5897 2.110966910205414 2.277239549088477 13.288583791971389 0 0 0
274 0 1 -1.1794 5.245400193615255 3.1006109183862933 9.111663880272792 0 0 0
276 0 2 0.5897 5.947506409269888 2.496495152285985 9.455081135088587 0 0 0
355 0 1 -1.1794 7.3038696774420515 1.6595997981438504 10.347080228750803 0 0 0
357 0 2 0.5897 7.299943653183021 1.7619242138404188 11.32935631323583 0 0 0
356 0 2 0.5897 7.358343942069043 0.7052984931376627 10.146196157650417 0 0 0
592 0 1 -1.1794 7.562805910516901 1.6489207282949987 13.130586518473118 0 0 0
176 0 2 0.5897 8.968976483486346 2.6326174246382488 9.461214764456924 0 0 0
594 0 2 0.5897 8.4415045379957 2.0739882218286576 13.288732419633748 0 0 0
678 0 2 0.5897 5.248015202079651 4.720338800397646 9.685612455073684 0 0 0
762 0 2 0.5897 5.5714591288717585 4.620132559182771 13.101074424577954 0 0 0
175 0 1 -1.1794 9.779880830014301 2.9757149238323857 9.132991063354167 0 0 0
514 0 1 -1.1794 12.061754365975112 1.6397567305158502 10.424960737337965 0 0 0
515 0 2 0.5897 12.020564054296727 1.5316118551672249 11.40812894349499 0 0 0
516 0 2 0.5897 11.224062612692917 1.967405491324427 10.138814578103256 0 0 0
757 0 1 -1.1794 12.199143129592338 1.6885805838824313 13.098382701626898 0 0 0
849 0 2 0.5897 13.653838724498314 2.437713668849985 9.807442350101496 0 0 0
705 0 2 0.5897 9.851926914797856 4.654217261693666 10.216599803272976 0 0 0
847 0 1 -1.1794 14.337248624424365 3.0100820276463085 9.432278249241275 0 0 0
652 0 1 -1.1794 16.69271849695938 2.025119097719273 10.379839749269305 0 0 0
653 0 2 0.5897 16.73590028271748 1.762043995203215 11.316498299504278 0 0 0
654 0 2 0.5897 17.611891823933803 2.4232479753121554 10.166157895780437 0 0 0
848 0 2 0.5897 15.170435469168034 2.717912604656568 9.76953441162004 0 0 0
439 0 1 -1.1794 16.7509762907938 1.5185513732232871 13.107567113155843 0 0 0
131 0 2 0.5897 16.53191116863325 0.24107932850649078 9.758259191692467 0 0 0
545 0 2 0.5897 14.435067005448031 4.7984019557675675 9.86491586206573 0 0 0
441 0 2 0.5897 15.912585136333943 2.002632796794078 13.318985292233304 0 0 0
649 0 1 -1.1794 2.749683174876049 7.097933839809996 9.447893807440483 0 0 0
651 0 2 0.5897 3.4624595424208127 6.459588669405536 9.642037916298342 0 0 0
114 0 2 0.5897 1.3312704066247867 6.3137794095932875 10.346894665058242 0 0 0
257 0 2 0.5897 2.772326395927402 8.693339230916074 9.897421720950312 0 0 0
112 0 1 -1.1794 0.724078501403994 5.637539888918775 10.670154620929557 0 0 0
113 0 2 0.5897 0.671412849328438 5.712942644985448 11.635574143516116 0 0 0
796 0 1 -1.1794 2.546672576941397 9.46003036272653 13.054594755841649 0 0 0
676 0 1 -1.1794 5.152352984134238 5.596134006236026 10.084244099951885 0 0 0
526 0 1 -1.1794 7.441491716749673 7.121748315082439 9.301368228674425 0 0 0
527 0 2 0.5897 7.570782637918662 8.052127279664244 9.563145586997043 0 0 0
677 0 2 0.5897 5.926566950129995 6.140207906841423 9.84252772603522 0 0 0
761 0 2 0.5897 5.162755614856038 5.3453479342169015 11.83526363733648 0 0 0
528 0 2 0.5897 8.298595956543233 6.684506088188279 9.494508486232942 0 0 0
760 0 1 -1.1794 5.358291831017397 5.500177928730516 12.70673724472097 0 0 0
477 0 2 0.5897 7.197950379695218 8.728551916105593 13.016515540714575 0 0 0
851 0 2 0.5897 8.812061806532439 6.312740555935803 13.22255092067769 0 0 0
703 0 1 -1.1794 9.743622937349949 5.574998902991315 10.352483365695958 0 0 0
313 0 1 -1.1794 11.946023919231646 7.027807807026607 9.462412757593778 0 0 0
704 0 2 0.5897 9.832172889918056 5.827742421463112 11.29311734928357 0 0 0
314 0 2 0.5897 11.248151338113248 6.4715054820167905 9.884163759803455 0 0 0
315 0 2 0.5897 12.751665062344891 6.563046995650455 9.79159265290221 0 0 0
444 0 2 0.5897 12.26357636200204 8.69634036780139 9.764886257204621 0 0 0
850 0 1 -1.1794 9.689700719716212 5.971154965013698 13.039183444792393 0 0 0
815 0 2 0.5897 13.48401175727955 5.996053259651693 13.253662989061178 0 0 0
622 0 1 -1.1794 16.938299383897743 7.078673464420492 9.629115185675554 0 0 0
623 0 2 0.5897 17.5996318851534 6.520616744656733 10.074428695384746 0 0 0
816 0 2 0.5897 14.192853264477181 5.75330762563354 11.820685498599476 0 0 0
544 0 1 -1.1794 14.496721719921366 5.748566939817254 10.163141776001838 0 0 0
546 0 2 0.5897 15.315575792561217 6.20999619016349 9.872332993082157 0 0 0
624 0 2 0.5897 17.126831226165542 7.944064619601718 9.937623258990344 0 0 0
814 0 1 -1.1794 14.229828991581334 5.471064226996838 12.829345361603604 0 0 0
193 0 1 -1.1794 16.953802891934203 9.151183113709235 13.107901479102097 0 0 0
195 0 2 0.5897 17.249544421349768 9.251263676322077 12.161533617657664 0 0 0
797 0 2 0.5897 2.715431283217647 9.775968016761427 12.14805559154849 0 0 0
256 0 1 -1.1794 2.779462873411846 9.560448554810552 10.34456663075601 0 0 0
258 0 2 0.5897 3.6313136227300435 9.959712236728697 10.076934883750615 0 0 0
13 0 1 -1.1794 0.7577857076208218 11.10160047156179 9.644410855839192 0 0 0
14 0 2 0.5897 0.4733031114738856 12.046041956514555 9.842912758000145 0 0 0
15 0 2 0.5897 1.5764837745165141 10.919816736101746 10.151471687582262 0 0 0
767 0 2 0.5897 0.02885574413392822 13.312198747806725 11.5864036697158 0 0 0
637 0 1 -1.1794 0.9287719809962016 13.11584483090529 13.258037956480933 0 0 0
475 0 1 -1.1794 7.1250392001605585 9.673089824585471 12.911565591684017 0 0 0