LAMMPS (29 Sep 2021 - Update 2)
  using 1 OpenMP thread(s) per MPI task
plugin load libdeepmd_lmp.so
Loading plugin: deepmd pair style v2.0 by Han Wang
Loading plugin: compute deeptensor/atom v2.0 by Han Wang
Loading plugin: fix dplr v2.0 by Han Wang
echo both

include		in.partitions
variable        pid world 0
include		in.temp
variable        temperature equal 280
variable        tempDamp equal 0.100
include		in.pressure
variable        pressure equal 0.986923
variable        pressureDamp equal 1.0 # This is 1 ps
include		in.seed
variable        seed world 745823

units           metal
atom_style	full
include		in.box
read_data       water.data
Reading data file ...
  orthogonal box = (0.0000000 0.0000000 0.0000000) to (18.207573 23.629177 22.213196)
  1 by 1 by 1 MPI processor grid
  reading atoms ...
  864 atoms
  reading velocities ...
  864 velocities
Finding 1-2 1-3 1-4 neighbors ...
  special bond factors lj:    0        0        0       
  special bond factors coul:  0        0        0       
     0 = max # of 1-2 neighbors
     0 = max # of 1-3 neighbors
     0 = max # of 1-4 neighbors
     1 = max # of special neighbors
  special bonds CPU = 0.000 seconds
  read_data CPU = 0.018 seconds
include 	in.setup
variable	out_freq equal 500
variable	out_freq2 equal 500

timestep        0.0005

neigh_modify    delay 7 every 1

include         in.deepmd
# This is deepMD model

# create groups ###
#group ox type 2
#group hy type 1

mass 2 15.999
mass 1 1.008

pair_style      deepmd ../graph.pb
pair_coeff      * *

bond_style      none
angle_style     none
dihedral_style  none
improper_style  none
neigh_modify exclude none


neighbor        2.0 bin
neigh_modify    every 10 delay 0 check no

thermo          ${out_freq}
thermo          500
thermo_style 	custom step temp pe etotal epair emol press lx ly lz xy xz yz vol pxx pyy pzz pxy pxz pyz cella cellb cellc cellalpha cellbeta cellgamma


restart 	${out_freq} restart.lmp.${pid} restart2.lmp.${pid}
restart 	500 restart.lmp.${pid} restart2.lmp.${pid}
restart 	500 restart.lmp.0 restart2.lmp.${pid}
restart 	500 restart.lmp.0 restart2.lmp.0


include         in.dump
dump            myDump all atom ${out_freq2} dump.water.${pid}
dump            myDump all atom 500 dump.water.${pid}
dump            myDump all atom 500 dump.water.0
dump            myDump2 all dcd ${out_freq2} dump.dcd
dump            myDump2 all dcd 500 dump.dcd
dump_modify     myDump append yes
dump_modify     myDump2 append yes


timer           timeout 23:50:00 every 1000
New timer settings: style=normal  mode=nosync  timeout=23:50:00

fix             2 all nph aniso ${pressure} ${pressure} ${pressureDamp}
fix             2 all nph aniso 0.986923 ${pressure} ${pressureDamp}
fix             2 all nph aniso 0.986923 0.986923 ${pressureDamp}
fix             2 all nph aniso 0.986923 0.986923 1
fix             3 all temp/csvr ${temperature} ${temperature} ${tempDamp} ${seed}
fix             3 all temp/csvr 280 ${temperature} ${tempDamp} ${seed}
fix             3 all temp/csvr 280 280 ${tempDamp} ${seed}
fix             3 all temp/csvr 280 280 0.1 ${seed}
fix             3 all temp/csvr 280 280 0.1 745823
velocity 	all create ${temperature} ${seed} dist gaussian
velocity 	all create 280 ${seed} dist gaussian
velocity 	all create 280 745823 dist gaussian

run             400000

CITE-CITE-CITE-CITE-CITE-CITE-CITE-CITE-CITE-CITE-CITE-CITE-CITE

Your simulation uses code contributions which should be cited:

- USER-DEEPMD package:

@article{Wang_ComputPhysCommun_2018_v228_p178,
  author = {Wang, Han and Zhang, Linfeng and Han, Jiequn and E, Weinan},
  doi = {10.1016/j.cpc.2018.03.016},
  url = {https://doi.org/10.1016/j.cpc.2018.03.016},
  year = 2018,
  month = {jul},
  publisher = {Elsevier {BV}},
  volume = 228,
  journal = {Comput. Phys. Commun.},
  title = {{DeePMD-kit: A deep learning package for many-body potential energy representation and molecular dynamics}},
  pages = {178--184}
}

CITE-CITE-CITE-CITE-CITE-CITE-CITE-CITE-CITE-CITE-CITE-CITE-CITE

Neighbor list info ...
  update every 10 steps, delay 0 steps, check no
  max neighbors/atom: 2000, page size: 100000
  master list distance cutoff = 8
  ghost atom cutoff = 8
  binsize = 4, bins = 5 6 6
  1 neighbor lists, perpetual/occasional/extra = 1 0 0
  (1) pair deepmd, perpetual
      attributes: full, newton on
      pair build: full/bin
      stencil: full/bin/3d
      bin: standard
Per MPI rank memory allocation (min/avg/max) = 7.189 | 7.189 | 7.189 Mbytes
Step Temp PotEng TotEng E_pair E_mol Press Lx Ly Lz Xy Xz Yz Volume Pxx Pyy Pzz Pxy Pxz Pyz Cella Cellb Cellc CellAlpha CellBeta CellGamma 
       0          280   -169.12462    -137.8902   -169.12462            0    -24125.52    18.207573    23.629177    22.213196            0            0            0    9556.7825   -24489.819   -23549.575   -24337.165   -9.1679178    315.64399   -227.53828    18.207573    23.629177    22.213196           90           90           90 
     500    260.59337   -147.23469   -118.16511   -147.23469            0   -4425.4988    18.025684    23.348763    21.952324            0            0            0    9239.2374   -7412.1166   -3036.3111   -2828.0686   -1188.7865   -300.91136   -367.48139    18.025684    23.348763    21.952324           90           90           90 
    1000    259.99117   -141.81685   -112.81444   -141.81685            0   -120.48445    17.802873    23.100202    21.819926            0            0            0    8973.4434     1543.888   -1474.9006   -430.44082   -766.36941    56.633592    430.40496    17.802873    23.100202    21.819926           90           90           90 
    1500    273.52221   -144.35045   -113.83864   -144.35045            0     1628.202    18.054028    23.431218    22.213744            0            0            0    9397.0325    2576.1618    2263.9414    44.502824    1028.0459    788.86726   -571.13986    18.054028    23.431218    22.213744           90           90           90 
    2000    284.05736   -142.58229   -110.89526   -142.58229            0    -812.9403     18.10978    23.452316    22.186018            0            0            0    9422.7632   -1335.6086   -858.31552   -244.89682   -976.51554   -1115.1947   -1895.3099     18.10978    23.452316    22.186018           90           90           90 
    2500    283.57397   -142.24888   -110.61577   -142.24888            0    229.87981    18.068622    23.391377    22.020077            0            0            0    9306.7845   -434.08476    1677.6728   -553.94856    394.78689   -1157.7129    1282.7386    18.068622    23.391377    22.020077           90           90           90 
    3000    275.50746   -140.39373   -109.66045   -140.39373            0   -526.68356    17.933006    23.398531    22.064123            0            0            0    9258.2384   -1114.5161    -1592.753    1127.2183   -2763.6674    1519.1565   -373.04774    17.933006    23.398531    22.064123           90           90           90 
    3500     278.4956   -142.59954   -111.53293   -142.59954            0     2479.021    17.936599    23.506961    22.215162            0            0            0    9366.6887    2361.2134    4841.1044    234.74516   -349.00914    -287.2199    2082.1022    17.936599    23.506961    22.215162           90           90           90 
    4000    276.84821   -143.48241   -112.59958   -143.48241            0   -7256.1756     18.15546    23.605377    22.373966            0            0            0    9588.7315   -6833.1062   -7018.3629   -7917.0576    1344.1812   -1264.0571    344.09464     18.15546    23.605377    22.373966           90           90           90 
    4500    276.14211   -143.26703   -112.46296   -143.26703            0    4274.2476    18.041649    23.214278    21.939377            0            0            0     9188.734    3770.8236    4028.6375    5023.2815    720.51825   -1017.4753    41.382974    18.041649    23.214278    21.939377           90           90           90 
    5000     285.8436   -143.45059    -111.5643   -143.45059            0    568.41309     18.05698    23.239342    22.033749            0            0            0    9246.0734    4033.6904   -558.47623   -1769.9749    -1927.848   -1935.6799    554.15644     18.05698    23.239342    22.033749           90           90           90 
    5500    271.69189   -143.29408   -112.98644   -143.29408            0   -2642.5491    18.204479    23.467981    22.323861            0            0            0    9537.2527   -1606.4277   -3775.8662   -2545.3535    331.39362   -1601.1852    946.74139    18.204479    23.467981    22.323861           90           90           90 
    6000    289.94431   -144.49416   -112.15043   -144.49416            0    1459.6377    18.060862    23.345692    22.159482            0            0            0    9343.3975    3990.5754    1503.9688   -1115.6312   -295.36311    1580.4227    903.45783    18.060862    23.345692    22.159482           90           90           90 
    6500    263.00593   -142.04925   -112.71055   -142.04925            0   -697.42432    18.046892    23.454996     22.10583            0            0            0    9357.1719    1211.8974   -1333.1755   -1970.9948   -1747.5357   -1122.2371    1101.9531    18.046892    23.454996     22.10583           90           90           90 
    7000    281.49972   -141.63861   -110.23689   -141.63861            0    2671.9096    17.993202    23.510878    22.104796            0            0            0    9351.1239    3770.2169    1887.4478    2358.0641   -274.16975    349.83958   -230.93333    17.993202    23.510878    22.104796           90           90           90 
    7500    270.57136   -140.64401   -110.46137   -140.64401            0   -2055.0186    18.149565     23.60394    22.299116            0            0            0    9552.9691   -2666.0983    873.27772   -4372.2353   -479.17367   -2210.5838   -751.28267    18.149565     23.60394    22.299116           90           90           90 
    8000    280.72019   -143.19599   -111.88123   -143.19599            0   -365.95538     18.08204    23.338965    22.193169            0            0            0    9365.8745   -2460.2511    2452.3104   -1089.9254   -243.76054   -610.21228    628.18514     18.08204    23.338965    22.193169           90           90           90 
    8500    281.69117   -143.40992   -111.98684   -143.40992            0     2412.444    18.038475    23.285478    22.059205            0            0            0    9265.6275    2671.1693   -223.47513    4789.6377   -1600.5698    110.24364    1701.0125    18.038475    23.285478    22.059205           90           90           90 
    9000    291.73583   -142.00704   -109.46347   -142.00704            0   -4055.5068    18.112158    23.460634    22.118794            0            0            0     9398.778   -2694.3974   -4135.9217   -5336.2014   -1732.3469   -472.95084    1218.2267    18.112158    23.460634    22.118794           90           90           90 
    9500    285.90231   -141.94643   -110.05359   -141.94643            0    2635.0545    18.212801    23.502937    22.206509            0            0            0    9505.5922    874.53503    904.14755    6126.4808    859.27569   -2095.9236   -662.80955    18.212801    23.502937    22.206509           90           90           90 
   10000    293.16273   -142.58099   -109.87824   -142.58099            0    2099.7532    18.063861    23.276271    22.122208            0            0            0    9301.4884    1717.2696    4919.3327   -337.34283    571.69669    897.11946    1953.2929    18.063861    23.276271    22.122208           90           90           90 
   10500    301.54041   -141.04685   -107.40957   -141.04685            0   -2227.0495    18.006797    23.463255     22.23886            0            0            0    9395.8753    -3083.037    -1891.114   -1706.9977   -183.48608   -1296.3601    497.08965    18.006797    23.463255     22.23886           90           90           90 
   11000    290.82042   -142.10692   -109.66547   -142.10692            0   -223.05982    17.986696    23.746292    22.297113            0            0            0    9523.4837    817.41287    283.09459   -1769.6869    246.73605   -405.22031    1670.3178    17.986696    23.746292    22.297113           90           90           90 
   11500    293.40368   -143.81174   -111.08212   -143.81174            0   -1141.5735    17.920996     23.54107    21.976329            0            0            0    9271.3612    1364.5744   -1700.9816   -3088.3134    1580.6896   -1723.5915   -980.85908    17.920996     23.54107    21.976329           90           90           90 
   12000    287.63775   -142.31353    -110.2271   -142.31353            0   -2810.1824    18.219849    23.485969    22.072159            0            0            0    9444.9152   -4666.8414    -2001.157    -1762.549   -141.00275    363.63191   -472.28567    18.219849    23.485969    22.072159           90           90           90 
   12500    289.53729    -141.5236   -109.22528    -141.5236            0    240.31926    18.290582    23.267632    22.133194            0            0            0    9419.4122      783.475    2387.9255   -2450.4427   -1461.5616    256.97656    861.50376    18.290582    23.267632    22.133194           90           90           90 
   13000    289.35601   -141.04711   -108.76901   -141.04711            0    990.69864    18.117487    23.089074    22.195584            0            0            0    9284.7681   -2597.0946    2284.0838    3285.1067    1143.6659    294.25874    993.00203    18.117487    23.089074    22.195584           90           90           90 
   13500    268.80491   -141.55178   -111.56619   -141.55178            0   -2311.5479    18.193801     23.44572    22.375447            0            0            0    9544.6225   -4119.3023    1137.6413   -3952.9826   -939.52623    986.19017   -1747.5513    18.193801     23.44572    22.375447           90           90           90 
   14000    270.29481   -142.36956   -112.21777   -142.36956            0   -665.80094    18.049552    23.585187    22.078806            0            0            0    9398.9934   -3131.0099    1040.4303    93.176787    5.2682579    860.61666   -126.37306    18.049552    23.585187    22.078806           90           90           90 
   14500    272.73683   -142.74292   -112.31871   -142.74292            0    1696.2712    17.976014    23.634719    21.957194            0            0            0    9328.6902    2731.5238    2869.4603   -512.17039    2110.9972    -45.61997   -380.48909    17.976014    23.634719    21.957194           90           90           90 
   15000    284.30564   -142.51262    -110.7979   -142.51262            0   -26.748664    18.094874    23.562354    22.127975            0            0            0    9434.4355   -2365.7728    2461.2087   -175.68187    294.24508   -757.46801    16.657063    18.094874    23.562354    22.127975           90           90           90 
   15500    282.46885    -142.1103   -110.60048    -142.1103            0   -268.21669    18.177184    23.340407    22.273452            0            0            0    9449.7987   -1998.0546     3090.041   -1896.6365   -3908.7225   -106.29784     1826.325    18.177184    23.340407    22.273452           90           90           90 
   16000    274.90578   -141.84601   -111.17985   -141.84601            0   -104.34821    18.130057    23.275709    22.198377            0            0            0    9367.4916    769.26187   -245.11013   -837.19637   -399.27249    1385.7141   -518.50307    18.130057    23.275709    22.198377           90           90           90 
   16500    279.58183   -141.83446   -110.64668   -141.83446            0    789.53148    18.092509    23.461005    22.053016            0            0            0    9360.8094    943.09181    1586.5648    -161.0622    2062.6755    592.11222    -730.1789    18.092509    23.461005    22.053016           90           90           90 
   17000    280.55445   -142.11013   -110.81386   -142.11013            0    856.44554    18.129379    23.715081    22.083408            0            0            0     9494.534    405.34052    95.168788    2068.8273    1435.3227   -1725.3833   -1282.0377    18.129379    23.715081    22.083408           90           90           90 
   17500    284.07541   -142.53426   -110.84522   -142.53426            0    1419.3133    18.006922    23.521015    22.097562            0            0            0    9359.2254   -481.91544    204.23825    4535.6172   -661.48025    46.436139    178.87754    18.006922    23.521015    22.097562           90           90           90 
   18000    273.23186   -143.15661   -112.67718   -143.15661            0   -494.23681    18.054856     23.38556    22.348167            0            0            0    9435.9078   -2098.2769   -1175.6625     1791.229   -3649.3159    1396.1502   -1221.3353    18.054856     23.38556    22.348167           90           90           90 
   18500    289.43266   -143.81085    -111.5242   -143.81085            0    701.04372    18.070344    23.233317    22.261877            0            0            0    9346.2935    1192.2996    2171.5854   -1260.7539   -1048.0032   -881.61572   -623.48469    18.070344    23.233317    22.261877           90           90           90 
   19000    279.55407   -143.34711   -112.16243   -143.34711            0   -2565.1197    18.258956    23.381001    22.008717            0            0            0       9395.8   -2972.6083   -2984.0828   -1738.6681    2006.7517    1232.9136    273.59872    18.258956    23.381001    22.008717           90           90           90 
   19500     274.9146    -141.2172   -110.55006    -141.2172            0    -2227.571    18.346493    23.661523    21.873026            0            0            0    9495.2112   -3688.8141   -3968.0515    974.15263    1656.9218   -1189.6745     1619.075    18.346493    23.661523    21.873026           90           90           90 
   20000    273.05391   -143.09168    -112.6321   -143.09168            0    718.45154    17.967337    23.526116    21.941476            0            0            0    9274.6978    999.10902   -25.369773    1181.6154    745.10639   -1255.6165    1210.0423    17.967337    23.526116    21.941476           90           90           90 
   20500    268.78183   -142.13362   -112.15061   -142.13362            0   -980.03584    17.819929    23.517122    22.408308            0            0            0    9390.7266    1599.8253   -2504.6978   -2035.2349   -911.59322   -720.45697   -922.90285    17.819929    23.517122    22.408308           90           90           90 
   21000    276.32834   -143.51343   -112.68859   -143.51343            0    61.808108    17.948293     23.38699    22.425098            0            0            0    9413.0816    3166.1099   -1267.0971   -1713.5884    363.02064   -131.40993    473.92309    17.948293     23.38699    22.425098           90           90           90 
   21500    265.13552   -143.45363   -113.87737   -143.45363            0   -1089.0778    18.210401    23.324976    22.089047            0            0            0    9382.4815   -1095.2837    1111.5001   -3283.4498    -655.5112    1637.9338   -728.46536    18.210401    23.324976    22.089047           90           90           90 
   22000    283.74473    -143.1596   -111.50745    -143.1596            0    1175.9753    18.335982    23.425791    21.928919            0            0            0    9419.2355    618.86917    2576.2315     332.8251    90.529083   -1243.8901   -1825.6644    18.335982    23.425791    21.928919           90           90           90 
   22500    271.19954   -141.98337   -111.73066   -141.98337            0   -1594.5325    18.120585    23.498096    22.105607            0            0            0    9412.5509    242.34824   -4400.8449   -625.10072    -205.6826    1305.0735    1675.5519    18.120585    23.498096    22.105607           90           90           90 
   23000    277.92039   -143.69093   -112.68849   -143.69093            0    1159.8759    17.876685    23.499719     22.30396            0            0            0     9369.828   -3027.3629    5464.9497    1042.0409   -2156.3008    171.19912    406.82699    17.876685    23.499719     22.30396           90           90           90 
   23500     275.2787    -141.0325   -110.32475    -141.0325            0     354.4433    17.946147    23.612378    22.358521            0            0            0    9474.4502    574.12114     213.5515    275.65727    737.60654    2321.7639   -342.74354    17.946147    23.612378    22.358521           90           90           90 
   24000    291.47516   -141.44664   -108.93215   -141.44664            0   -876.31913    18.073034    23.454301    22.092425            0            0            0    9364.7663    -3254.715   -898.71808    1524.4757    373.17226   -1068.9406    753.44296    18.073034    23.454301    22.092425           90           90           90 
   24500    278.79883   -141.90902   -110.80859   -141.90902            0    -1576.847    18.272305    23.383293    22.007347            0            0            0    9403.0055   -4547.1549   -745.66006    562.27385   -668.40915    439.08029    1151.3788    18.272305    23.383293    22.007347           90           90           90 
   25000    282.38329   -140.95842   -109.45814   -140.95842            0   -784.69052    18.305478    23.433155    22.234717            0            0            0    9537.6952   -1046.6412   -808.62555    -498.8048   -2329.1023   -142.63192   -77.844029    18.305478    23.433155    22.234717           90           90           90 
   25500    286.37649   -140.98004   -109.03432   -140.98004            0   -734.25201    18.017067    23.318506    22.258283            0            0            0    9351.3964    496.81282    1305.1582   -4004.7271   -438.15795    781.53872   -2010.1947    18.017067    23.318506    22.258283           90           90           90 
   26000    292.08236    -141.4835   -108.90127    -141.4835            0   -3234.1446     17.92531    23.559671    22.286673            0            0            0    9411.9829   -3953.0863   -4691.1199   -1058.2275   -597.67343    1407.6973   -1190.5607     17.92531    23.559671    22.286673           90           90           90 
   26500    271.00488   -141.62795   -111.39695   -141.62795            0     515.8784    18.009974    23.754661    22.166563            0            0            0    9483.3171    1894.9641    1561.0626   -1908.3916   -2648.3092    273.41777    451.40614    18.009974    23.754661    22.166563           90           90           90 
   27000    287.23411    -141.5514      -109.51    -141.5514            0    421.47354    18.201593    23.600364    22.104504            0            0            0     9495.304   -2810.0694    1833.2997    2241.1903   -103.17516    1604.8017   -257.96184    18.201593    23.600364    22.104504           90           90           90 
   27500     279.2278   -141.33262   -110.18433   -141.33262            0   -790.23541    18.265708    23.266316    22.098484            0            0            0    9391.3195    1467.1702    -1108.787   -2729.0894     168.8739    539.43189   -738.04104    18.265708    23.266316    22.098484           90           90           90 
   28000    276.94741   -142.77089   -111.87699   -142.77089            0   -18.364331    18.155113    23.157675    22.257018            0            0            0    9357.5228    3609.0637   -1658.1924   -2005.9643   -49.665007    715.77822    -1844.349    18.155113    23.157675    22.257018           90           90           90 
   28500    274.88446   -140.92976   -110.26599   -140.92976            0    -4746.735    18.100985     23.50875    22.406564            0            0            0    9534.6998   -6101.5194   -2508.6118   -5630.0738    -2381.038   -594.69887   -733.19173    18.100985     23.50875    22.406564           90           90           90 
   29000    284.88846   -142.96476   -111.18502   -142.96476            0   -543.01592    18.031015    23.657027    22.169673            0            0            0    9456.7005    -4226.784    493.14978    2104.5864    1033.1243   -135.07666    850.56712    18.031015    23.657027    22.169673           90           90           90 
   29500     297.2944   -142.29448   -109.13085   -142.29448            0    2269.2266    18.076967     23.64547    22.007468            0            0            0    9406.8365    4391.2007   -1442.9636    3859.4425   -854.53002   -540.83524   -895.20306    18.076967     23.64547    22.007468           90           90           90 
   30000    298.84514    -140.3426   -107.00598    -140.3426            0    -2458.257    18.178617    23.612007     22.16522            0            0            0    9514.0575   -3613.8589    78.307581   -3839.2198     162.2962   -181.62506    1949.0754    18.178617    23.612007     22.16522           90           90           90 
   30500    284.27038    -140.6786   -108.96781    -140.6786            0    649.50038    18.114745    23.397952    22.266789            0            0            0    9437.7325   -2642.0253    2878.3806    1712.1459    511.78871    148.89463    452.72828    18.114745    23.397952    22.266789           90           90           90 
   31000    288.13154   -141.64155   -109.50004   -141.64155            0    609.41687    18.153359    23.311402    22.320073            0            0            0    9445.4142    222.91156    730.27313    875.06591   -326.93333    3077.4349    831.34501    18.153359    23.311402    22.320073           90           90           90 
   31500    278.41615   -140.69798   -109.64024   -140.69798            0    469.52178    18.207114    23.511489    22.230896            0            0            0    9516.5217    2288.3665   -1071.2316    191.43049   -95.545357    982.41128     983.0816    18.207114    23.511489    22.230896           90           90           90 
   32000    270.37268   -140.87034   -110.70986   -140.87034            0    3421.5507    18.041188     23.58377     21.95224            0            0            0     9340.222    4287.5845    1886.8957    4090.1721    -132.1131   -686.10299    2320.7874    18.041188     23.58377     21.95224           90           90           90 
   32500    274.76623   -140.93133   -110.28074   -140.93133            0   -705.42402    18.104403      23.7184    22.239721            0            0            0    9549.9023    737.47204   -2141.9496   -711.79449   -438.15738   -1138.1452    573.32082    18.104403      23.7184    22.239721           90           90           90 
   33000    285.61255   -142.28849   -110.42798   -142.28849            0    -455.0791    18.111426    23.489662     22.37166            0            0            0    9517.6041    2184.7432   -405.92753    -3144.053   -396.16376    1869.7472   -987.83976    18.111426    23.489662     22.37166           90           90           90 
   33500    283.09601   -141.99893   -110.41914   -141.99893            0    1978.8629    18.066306    23.172842    22.243016            0            0            0    9311.9866    -555.7413    3484.7251     3007.605   -2077.4719    -1013.507   -259.40651    18.066306    23.172842    22.243016           90           90           90 
   34000    271.60205   -143.36086   -113.06324   -143.36086            0    162.82306    18.234093    23.442991    22.278426            0            0            0     9523.173    1051.2616   -227.13009   -335.66232   -1731.0362    239.38156    17.138989    18.234093    23.442991    22.278426           90           90           90 
   34500    265.36297   -142.97839   -113.37675   -142.97839            0    -891.6494    18.128421    23.592207      22.1352            0            0            0     9466.992    -4142.612    2472.8554   -1005.1916    -572.0731   -973.29513    1740.5302    18.128421    23.592207      22.1352           90           90           90 
   35000    260.99518   -142.82189   -113.70749   -142.82189            0    842.72943    17.961023    23.524327    22.022506            0            0            0    9304.9707     1858.815   -546.05423    1215.4275    1433.7405   -1248.3211    106.81063    17.961023    23.524327    22.022506           90           90           90 
   35500     276.7567   -143.48161   -112.60899   -143.48161            0   -1869.3284    18.086037    23.596829    22.298515            0            0            0    9516.4068    367.82832   -2724.8336     -3250.98   -343.33142    429.90471   -396.71422    18.086037    23.596829    22.298515           90           90           90 
   36000    281.03646   -143.30987   -111.95983   -143.30987            0   -1065.1794    18.113304    23.415699    22.375504            0            0            0    9490.2494   -1473.4013    536.74046   -2258.8772    706.82207   -192.67682    665.68601    18.113304    23.415699    22.375504           90           90           90 
   36500    270.27927   -141.26565   -111.11559   -141.26565            0    1788.6094    18.061628    23.243202    22.189959            0            0            0    9315.5682     2585.112    1132.2301     1648.486    1685.4412    268.67874    1638.5123    18.061628    23.243202    22.189959           90           90           90 
   37000    284.51002   -142.99275   -111.25523   -142.99275            0   -1609.0932    18.245914    23.495032    22.189755            0            0            0    9512.4889   -5787.8368    697.19722     263.3601   -858.98712    445.98189   -1145.6228    18.245914    23.495032    22.189755           90           90           90 
   37500    289.29299   -143.29635   -111.02529   -143.29635            0    2669.8326    18.153852    23.594157    22.038751            0            0            0    9439.7445    3886.3192    488.66965     3634.509   -286.20782   -152.00866   -578.48885    18.153852    23.594157    22.038751           90           90           90 
   38000    271.39844   -140.37218   -110.09728   -140.37218            0    3278.0185    17.965011    23.588082    22.145066            0            0            0    9384.1966    1378.8805    4870.1823    3584.9925   -1221.2614    2234.4271    667.67121    17.965011    23.588082    22.145066           90           90           90 
   38500    276.25437   -141.38352   -110.56693   -141.38352            0    910.78876    17.986429    23.624444    22.465003            0            0            0    9545.8153     4008.019   -853.75223   -421.90047    2660.6222   -414.85569   -427.29259    17.986429    23.624444    22.465003           90           90           90 
   39000    277.73405    -142.2833   -111.30165    -142.2833            0    4067.4524    17.983057    23.298538    22.255315            0            0            0    9324.5083    5771.3347      4354.45    2076.5724     -764.429    248.97243    -413.8323    17.983057    23.298538    22.255315           90           90           90 
   39500    284.64575   -142.49897   -110.74631   -142.49897            0    -1820.179     18.30057    23.326072     22.14347            0            0            0    9452.6139   -5559.3689   -504.39782     603.2297    1368.4696   -1090.1194   -311.03977     18.30057    23.326072     22.14347           90           90           90 
   40000    276.95451   -142.16189   -111.26719   -142.16189            0    463.58322    18.379967    23.368286    22.068786            0            0            0    9478.7275   -2779.5929    1259.0513    2911.2913   -566.04136    700.24783   -173.68517    18.379967    23.368286    22.068786           90           90           90 
   40500    267.18618   -141.81258   -112.00756   -141.81258            0    1137.3081     18.11623    23.457968    22.164194            0            0            0    9419.1163   -930.22421    676.94669    3665.2019    246.78295   -550.54748    26.917575     18.11623    23.457968    22.164194           90           90           90 
   41000    278.96418   -142.04078    -110.9219   -142.04078            0    2805.9392    17.881058      23.5974    22.276665            0            0            0    9399.5602    1999.4055     2941.865    3476.5472   -1354.3642   -102.44722       801.29    17.881058      23.5974    22.276665           90           90           90 
   41500    289.38922   -142.74878   -110.46697   -142.74878            0   -192.15525    17.863337     23.66073    22.308187            0            0            0    9428.7691    1150.5679    346.59504   -2073.6287    1488.8038    1825.8565    359.90687    17.863337     23.66073    22.308187           90           90           90 
   42000    271.43494    -140.9072   -110.62823    -140.9072            0   -1138.0657    18.090953    23.586692    22.213892            0            0            0     9478.795   -1819.8096   -2611.5949    1017.2074    335.73032    2025.1692    1867.2695    18.090953    23.586692    22.213892           90           90           90 
   42500    278.18632   -141.24057   -110.20847   -141.24057            0   -1678.4496    18.277582    23.370249    22.028292            0            0            0    9409.4208   -808.52299   -2444.9749    -1781.851   -1416.8989   -1467.9287     1285.701    18.277582    23.370249    22.028292           90           90           90 
   43000    292.01332   -142.10373   -109.52921   -142.10373            0    2019.5724    18.278184    23.242816    22.038265            0            0            0    9362.6588    1066.8996     3819.711    1172.1064    771.00622   -1546.2222   -2359.8625    18.278184    23.242816    22.038265           90           90           90 
   43500    275.32835   -142.09448   -111.38119   -142.09448            0    525.04676    18.165874    23.422943    22.316076            0            0            0    9495.4506    -847.4859    359.12841    2063.4978   -59.270773   -2414.0398   -1692.6101    18.165874    23.422943    22.316076           90           90           90 
   44000    281.90787   -142.36441   -110.91716   -142.36441            0    3311.2658    17.892375    23.614277    22.339669            0            0            0    9438.8566    7739.1099   -465.52112    2660.2086   -2362.1424    54.385725    3.5737971    17.892375    23.614277    22.339669           90           90           90 
   44500    274.31129   -141.19381   -110.59397   -141.19381            0    1542.0376     17.85925    23.725682    22.123636            0            0            0    9374.2908    1241.9045    1428.5958    1955.6125    -782.1992   -1957.2604   -534.51944     17.85925    23.725682    22.123636           90           90           90 
   45000    272.66497    -143.2234   -112.80721    -143.2234            0   -559.16488    18.088271    23.674786    22.014148            0            0            0    9427.2494   -2278.5445    852.37569   -251.32582   -682.81977    1506.6932    569.05459    18.088271    23.674786    22.014148           90           90           90 
   45500    278.61389   -143.68734   -112.60754   -143.68734            0      548.621    18.249146    23.368111    22.123678            0            0            0    9434.5996    289.97887    1206.3998    149.48429   -740.24495   -1071.5993    986.06819    18.249146    23.368111    22.123678           90           90           90 
   46000    273.46843   -142.34281   -111.83699   -142.34281            0    2403.0598    18.212467    23.230344    22.295519            0            0            0    9432.8298    1938.3702    2198.5628    3072.2464    401.61358    1244.7785    -1285.902    18.212467    23.230344    22.295519           90           90           90 
   46500      280.496   -142.20471   -110.91496   -142.20471            0   -630.92908    18.088743    23.400073    22.374649            0            0            0    9470.6949   -1439.3878   -804.13969    350.74029    407.64567    387.19459    1476.1435    18.088743    23.400073    22.374649           90           90           90 
   47000    291.56567    -143.2008   -110.67621    -143.2008            0    628.35132    17.904477    23.559543    22.126285            0            0            0    9333.3383    1048.3159    1781.2372   -944.49916    418.63055    64.224399   -30.135838    17.904477    23.559543    22.126285           90           90           90 
   47500    282.25854   -141.68922   -110.20286   -141.68922            0   -2187.5223    18.083288    23.880814     22.16735            0            0            0    9572.8289   -499.27324   -2354.6301   -3708.6635   -764.33124      1240.22    2087.5528    18.083288    23.880814     22.16735           90           90           90 
   48000    291.34565   -142.28789   -109.78784   -142.28789            0    -384.4776    18.115276    23.644407    22.093355            0            0            0    9463.1351    77.715265    3202.7811   -4433.9292    2537.0409    127.28667   -1350.0541    18.115276    23.644407    22.093355           90           90           90 
   48500    283.01631   -142.30431   -110.73342   -142.30431            0    3694.7121    18.135662    23.368075    22.122164            0            0            0     9375.274    2595.0925    3382.6217    5106.4222    665.96848    2508.1846   -1845.2092    18.135662    23.368075    22.122164           90           90           90 
   49000    285.84336   -140.55186    -108.6656   -140.55186            0   -1254.4402    18.169068     23.29845    22.328842            0            0            0    9452.0472    582.81237    1821.7787   -6167.9118   -1379.1742    1297.6565   -1298.1495    18.169068     23.29845    22.328842           90           90           90 
   49500    299.54183   -139.30553   -105.89118   -139.30553            0   -847.14106    18.179154    23.412594    22.333286            0            0            0    9505.5189    106.55097    193.71365   -2841.6878   -523.71932   -1989.1876    523.55915    18.179154    23.412594    22.333286           90           90           90 
   50000    288.68912   -140.69116   -108.48745   -140.69116            0    1774.5389    18.085452    23.599994    22.071823            0            0            0    9420.6197    3602.9184   -2281.2391    4001.9373    914.32789   -1099.0259   -1284.9032    18.085452    23.599994    22.071823           90           90           90 
   50500    275.69271   -141.27152   -110.51758   -141.27152            0   -615.39498    18.057213    23.707621    22.052915            0            0            0    9440.7107    2112.6295   -1057.3783   -2901.4362    637.86778   -900.83761    183.66856    18.057213    23.707621    22.052915           90           90           90 
   51000    293.77603   -142.60928   -109.83812   -142.60928            0   -763.97198    18.043239    23.496071    22.223655            0            0            0    9421.6126   -3518.5434    923.42947    303.19797    517.91841    352.62077    442.01462    18.043239    23.496071    22.223655           90           90           90 
   51500    284.10202   -143.03501   -111.34301   -143.03501            0    -572.5259     18.09847    23.258614    22.373286            0            0            0    9417.9304   -1193.5837    1112.2122   -1636.2062   -150.66748    372.58472    967.29584     18.09847    23.258614    22.373286           90           90           90 
   52000    268.22187   -142.74502   -112.82447   -142.74502            0   -675.60778    18.233189     23.40768    22.394992            0            0            0    9558.1077   -137.50454   -2212.4492    323.13036    951.88796     -725.455    1551.6964    18.233189     23.40768    22.394992           90           90           90 
   52500    281.31217   -140.75646   -109.37567   -140.75646            0    2461.8519    18.157019    23.516597    22.013095            0            0            0    9399.4001    2802.3947    2968.0784    1615.0826   -1219.7743     112.7817   -191.65223    18.157019    23.516597    22.013095           90           90           90 
   53000    280.53726    -142.6678   -111.37345    -142.6678            0    54.165725    18.099571    23.704785    21.947541            0            0            0    9416.5142     1941.252   -1428.9445   -349.81039    9.4263746   -474.90874    896.97694    18.099571    23.704785    21.947541           90           90           90 
   53500    287.43328   -143.07246   -111.00884   -143.07246            0   -185.51323    18.064194    23.711448     22.29321            0            0            0    9548.8104   -1920.1025   -351.54672    1715.1095    108.44432   -1184.7294    1143.9456    18.064194    23.711448     22.29321           90           90           90 
   54000    278.05862   -140.69785   -109.67999   -140.69785            0   -2087.4367    17.932797     23.34001     22.46257            0            0            0     9401.746    -462.6681   -3070.0323   -2729.6097   -1240.7026   -785.32517    404.04437    17.932797     23.34001     22.46257           90           90           90 
   54500    267.88527   -143.11102   -113.22801   -143.11102            0   -2179.4021    18.059344    23.161506    22.456562            0            0            0    9393.1665    104.74156   -2832.5516   -3810.3963    385.07691    1260.8156   -313.60036    18.059344    23.161506    22.456562           90           90           90 
   55000    283.12976   -142.84315    -111.2596   -142.84315            0    3031.9671    18.295896    23.254559    22.074074            0            0            0    9391.7013    637.49307    4786.3217    3672.0865   -964.46968   -1314.6676   -1350.0714    18.295896    23.254559    22.074074           90           90           90 
   55500    266.11777   -141.59883   -111.91299   -141.59883            0   -3688.9146    18.399507    23.619332    21.904954            0            0            0    9519.5438   -3720.5175   -2598.1619   -4748.0643    -1990.113   -341.34923   -71.531833    18.399507    23.619332    21.904954           90           90           90 
   56000    276.38486   -140.34464   -109.51349   -140.34464            0    312.17581    18.132641    23.683936    22.005273            0            0            0     9450.215    -901.7274   -887.59915     2725.854    -1453.297    285.03041   -725.41191    18.132641    23.683936    22.005273           90           90           90 
   56500    288.00661   -141.33426   -109.20668   -141.33426            0    2470.0696    17.894305    23.531888    22.263047            0            0            0     9374.675    3799.1306   -48.962589    3660.0408   -1969.2219    69.866362    175.91222    17.894305    23.531888    22.263047           90           90           90 
   57000    286.21193   -142.20776   -110.28039   -142.20776            0   -2776.9997    17.973062    23.510627    22.459564            0            0            0    9490.4676   -3951.9989   -3576.7748    -802.2255    51.491003   -1070.2556    474.23969    17.973062    23.510627    22.459564           90           90           90 
   57500    283.97234   -142.08428   -110.40674   -142.08428            0    2596.4186    18.146407    23.501021    22.278847            0            0            0    9501.0167    4229.7138    3269.6689    289.87308    805.77769    948.48145   -419.36065    18.146407    23.501021    22.278847           90           90           90 
   58000     279.9916   -141.72568   -110.49219   -141.72568            0   -2175.9795    18.183425    23.465007    22.035109            0            0            0    9401.8127    226.83488   -4929.0226   -1825.7507    295.08738    600.00005    108.55345    18.183425    23.465007    22.035109           90           90           90 
   58500    280.98234   -142.86385   -111.51985   -142.86385            0    1464.5845    18.170534    23.448868    22.043463            0            0            0    9392.2446    3729.4237    1219.4953   -555.16541    2096.8558   -208.90396   -1292.5774    18.170534    23.448868    22.043463           90           90           90 
   59000    283.28284   -141.31029   -109.70966   -141.31029            0   -3342.7293    18.135388    23.520544    22.318495            0            0            0    9520.0475   -5693.8791   -1669.4122   -2664.8966    -1204.718   -969.17269     1354.331    18.135388    23.520544    22.318495           90           90           90 
   59500    277.03528   -140.96658   -110.06287   -140.96658            0    -1745.514     17.98637    23.513134     22.31943            0            0            0    9439.2427   -260.05171    -1006.658   -3969.8322    441.40284    861.37776    838.13077     17.98637    23.513134     22.31943           90           90           90 
   60000    279.32583   -142.23806   -111.07884   -142.23806            0    2373.5168    18.080674    23.646112    22.224909            0            0            0    9501.9851    2763.4845    1314.4323    3042.6336   -12.838139    1475.9041   -786.69635    18.080674    23.646112    22.224909           90           90           90 
   60500     273.3497   -142.06037    -111.5678   -142.06037            0    1211.0313    18.158493    23.647701    22.101596            0            0            0    9490.5715     1815.869    669.35325    1147.8716    1383.0879   -593.00785    523.47474    18.158493    23.647701    22.101596           90           90           90 
   61000    263.87009   -140.13991    -110.7048   -140.13991            0    1923.9207    18.095765    23.340934    22.014117            0            0            0    9298.1479    6402.9643   -1757.7641    1126.5619   -586.43078   -1018.8607    975.42221    18.095765    23.340934    22.014117           90           90           90 
   61500    285.66888   -142.56676   -110.69997   -142.56676            0    78.286377     18.26995     23.48753    22.433821            0            0            0    9626.7113    -572.2781     764.7559    42.381332   -97.756774   -706.05602    493.70917     18.26995     23.48753    22.433821           90           90           90 
   62000    293.99843   -142.24457    -109.4486   -142.24457            0   -1527.5226    18.099955    23.416215    22.376607            0            0            0    9483.9322   -3083.5307    195.79167   -1694.8289   -2582.2122   -990.35713    29.170014    18.099955    23.416215    22.376607           90           90           90 
   62500    282.63757   -142.13344   -110.60479   -142.13344            0    813.96791    18.011411    23.484298    22.202725            0            0            0    9391.4276    -163.9146    2181.0214    424.79698   -581.08929    282.44341   -1598.4482    18.011411    23.484298    22.202725           90           90           90 
   63000    297.03321   -141.15078   -108.01627   -141.15078            0    1333.5057    18.105548    23.700424    22.158671            0            0            0    9508.4889    2127.4604     1331.607    541.44973   -978.15984   -344.36016    712.37008    18.105548    23.700424    22.158671           90           90           90 
   63500    285.49067   -142.71631   -110.86939   -142.71631            0   -1057.6288    18.105293    23.628259    22.093559            0            0            0    9451.5482   -3611.4232   -1324.4211    1762.9579    1081.5475    -705.7853   -1451.1554    18.105293    23.628259    22.093559           90           90           90 
   64000    283.67012   -141.40749   -109.76366   -141.40749            0      3604.14    18.136597    23.450268    22.288275            0            0            0     9479.383    4742.6178    4327.3699    1742.4323   -2312.6217    799.67566   -755.86841    18.136597    23.450268    22.288275           90           90           90 
   64500    282.23783   -141.43963   -109.95558   -141.43963            0   -792.23869     18.10952    23.320714    22.407975            0            0            0    9463.4911   -1408.9053      1004.47   -1972.2808    -372.3919   -3564.7075    1882.9856     18.10952    23.320714    22.407975           90           90           90 
   65000    260.57093   -141.88943   -112.82235   -141.88943            0   -2384.5943     18.12147     23.49558    22.274861            0            0            0    9484.0663   -2912.0754     -1760.71   -2480.9975   -1391.9395    132.88714     2444.267     18.12147     23.49558    22.274861           90           90           90 
   65500    271.78387   -141.78406   -111.46616   -141.78406            0     2409.728    18.040411    23.664381    21.977951            0            0            0    9382.7205    2667.6225    462.06605    4099.4955   -542.02397   -565.02614    994.77969    18.040411    23.664381    21.977951           90           90           90 
   66000    281.24594     -140.386   -109.01259     -140.386            0   -877.00013    18.092871    23.794212    22.103644            0            0            0    9515.7424   -539.85851   -1815.9534   -275.18854    2544.7277    880.09357   -883.45241    18.092871    23.794212    22.103644           90           90           90 
   66500    288.86625    -141.6983   -109.47483    -141.6983            0    -752.1342    18.078338    23.446152    22.419878            0            0            0    9503.0566    507.61759   -1808.2107   -955.80947   -1812.9353   -852.01744   -57.089761    18.078338    23.446152    22.419878           90           90           90 
   67000    275.38499   -141.91962   -111.20001   -141.91962            0    -1537.129    18.098387    23.015908    22.443128            0            0            0    9348.7032    1600.8312   -1812.1683   -4400.0498    394.19576    263.10109    3025.3873    18.098387    23.015908    22.443128           90           90           90 
   67500    281.38258   -142.71617   -111.32752   -142.71617            0   -500.33575    18.316037     23.26709     22.35578            0            0            0    9527.1591   -1097.7487    2066.6393   -2469.8978    1854.7972    -143.7977   -962.60372    18.316037     23.26709     22.35578           90           90           90 
   68000    275.94084   -142.08456   -111.30294   -142.08456            0   -2809.1328    18.273315    23.659584    22.113036            0            0            0    9560.3284   -1913.9596   -2438.7579    -4074.681   -1741.4192    -372.6892     1066.388    18.273315    23.659584    22.113036           90           90           90 
   68500    285.04189   -142.30966   -110.51281   -142.30966            0    884.81465    17.996838    23.732837     21.94669            0            0            0    9373.7829    1326.8812     23.17181    1304.3909   -1600.9018   -951.88183   -12.281507    17.996838    23.732837     21.94669           90           90           90 
   69000    269.18881   -142.46628   -112.43786   -142.46628            0     207.3686    17.964298    23.713624    22.260408            0            0            0    9482.9031    3251.0317   -2824.1041    195.17814    1173.5597   -281.90988   -998.28287    17.964298    23.713624    22.260408           90           90           90 
   69500    279.58556   -143.57554   -112.38735   -143.57554            0   -3371.9236    18.045681    23.519126    22.469039            0            0            0    9536.2793   -4055.0514   -1859.1035   -4201.6161    224.62479   -735.46194    -1003.408    18.045681    23.519126    22.469039           90           90           90 
   70000    268.74198   -141.67197    -111.6934   -141.67197            0     1189.035    18.167759    23.281518    22.251441            0            0            0    9411.7589    1631.3836    631.26905    1304.4523    -1849.322    457.87439   -1713.7089    18.167759    23.281518    22.251441           90           90           90 
   70500    283.17301   -143.12335   -111.53497   -143.12335            0    354.14584    18.273934    23.384585    22.074889            0            0            0    9433.2261    335.07981    890.54229   -163.18457    161.10557    -865.6561    1172.1363    18.273934    23.384585    22.074889           90           90           90 
   71000    273.48409   -142.11929   -111.61173   -142.11929            0   -2672.0094    18.233855    23.575958    22.060793            0            0            0    9483.5071   -3064.6473   -1059.9462   -3891.4346   -752.23691   -2073.4349   -1099.6322    18.233855    23.575958    22.060793           90           90           90 
   71500    274.32547   -142.15502    -111.5536   -142.15502            0   -2120.0744    18.079832    23.668738    22.219487            0            0            0    9508.3139   -1147.0395   -2470.9634   -2742.2203   -1515.9147    143.79807    158.94302    18.079832    23.668738    22.219487           90           90           90 
   72000    296.05199   -140.26732   -107.24228   -140.26732            0   -514.35103    17.934819    23.584745    22.397519            0            0            0    9473.8846   -1410.7661   -798.73208    666.44509    462.05349   -389.40413   -1101.1938    17.934819    23.584745    22.397519           90           90           90 
   72500    286.21131    -141.3199    -109.3926    -141.3199            0    169.60279    17.959437    23.471942    22.401426            0            0            0    9443.1613    1040.1191     69.50822   -600.81891   -52.715528   -130.95264    422.39294    17.959437    23.471942    22.401426           90           90           90 
   73000    264.34071   -140.38012   -110.89252   -140.38012            0   -2098.2925    18.237027     23.52503    22.212364            0            0            0    9529.6951   -3119.4753   -1496.3251   -1679.0773   -1441.6376   -253.67626    22.799129    18.237027     23.52503    22.212364           90           90           90 
   73500    266.46454   -140.32911   -110.60459   -140.32911            0   -787.78416    18.351505    23.450486    21.908863            0            0            0    9428.5166   -2325.6406    286.78592    -324.4978    1392.9394    305.37129    179.62443    18.351505    23.450486    21.908863           90           90           90 
   74000    278.31461   -142.25562   -111.20921   -142.25562            0    253.15775    18.292541    23.468398    22.098921            0            0            0    9486.9928   -732.71028   -337.64834    1829.8319    398.26992    342.33646   -119.81235    18.292541    23.468398    22.098921           90           90           90 
   74500    275.69139    -141.2818   -110.52801    -141.2818            0    991.20609    17.971412    23.412658    22.388181            0            0            0    9420.0182    4293.2025   -191.22423   -1128.3599    765.37339    137.84139    239.19771    17.971412    23.412658    22.388181           90           90           90 
   75000    279.58567   -141.69552   -110.50731   -141.69552            0   -205.42646    17.934905    23.599805    22.544319            0            0            0    9542.1144   -2723.7784    2308.9817   -201.48263   -881.27884   -242.73021   -645.65032    17.934905    23.599805    22.544319           90           90           90 
   75500    282.21934   -143.44527   -111.96327   -143.44527            0    2324.9935    18.044318    23.625921    22.214059            0            0            0    9470.1562    3767.3828    1711.2579    1496.3399   -1027.2699   -763.19945    1327.3291    18.044318    23.625921    22.214059           90           90           90 
   76000    279.16042   -142.06835   -110.92758   -142.06835            0   -140.76963    18.210708    23.531375    21.946575            0            0            0    9404.6119   -2522.2388   -1961.0282    4060.9581    390.53614   -1895.8431   -652.39427    18.210708    23.531375    21.946575           90           90           90 
   76500    262.70709   -143.92955   -114.62417   -143.92955            0   -1068.9175    18.268062    23.471742    22.145395            0            0            0    9495.5741   -4327.3016   -310.36829    1430.9173   -135.70249     630.9548    19.916153    18.268062    23.471742    22.145395           90           90           90 
   77000    267.30965   -143.57622   -113.75743   -143.57622            0    2909.6692    18.145277     23.39154    22.302999            0            0            0    9466.4177   -101.79047     5568.947    3261.8511   -460.64273    519.39617    203.85046    18.145277     23.39154    22.302999           90           90           90 
   77500    271.66197   -141.71594   -111.41164   -141.71594            0   -1242.9753    18.048618    23.451116    22.324604            0            0            0     9449.117   -149.46763   -49.650052   -3529.8083   -847.03893   -349.07802    464.62247    18.048618    23.451116    22.324604           90           90           90 
   78000    286.41445   -140.77115   -108.82119   -140.77115            0   -757.07174    18.108494    23.608482    22.216416            0            0            0      9497.83   -757.83117   -483.21293   -1030.1711    478.40454    226.15383   -37.983148    18.108494    23.608482    22.216416           90           90           90 
   78500    274.95992   -143.08413   -112.41194   -143.08413            0   -268.94063    18.155818    23.680184    22.092865            0            0            0    9498.4544    652.35142    1285.1458   -2744.3191    2776.0596   -924.00183   -626.96164    18.155818    23.680184    22.092865           90           90           90 
   79000    275.70524   -142.98111   -112.22577   -142.98111            0    655.02905    18.135315    23.575809    22.053486            0            0            0    9429.0721   -2088.6314    1584.4615    2469.2571   -220.83304    196.35264    -225.2622    18.135315    23.575809    22.053486           90           90           90 
   79500    293.01957   -142.19506   -109.50828   -142.19506            0    1417.6758    18.134582    23.463103    22.284272            0            0            0    9481.8141    -1436.257    1044.9138    4644.3707   -1080.5096   -362.94125   -1629.8139    18.134582    23.463103    22.284272           90           90           90 
   80000    274.17218   -140.16297   -109.57865   -140.16297            0   -511.75117    18.125808    23.371336     22.45159            0            0            0    9511.0404   -1183.6204    114.70408   -466.33722   -940.86974    2120.0282   -1846.7194    18.125808    23.371336     22.45159           90           90           90 
   80500    292.04362   -143.49095   -110.91304   -143.49095            0    365.77567    18.027009    23.304954    22.300826            0            0            0    9368.9922    -1936.773    2487.7028    546.39726   -1583.2328   -871.23901    262.52961    18.027009    23.304954    22.300826           90           90           90 
   81000    282.07686   -142.47759    -111.0115   -142.47759            0    160.85349    18.194207    23.807102    22.145951            0            0            0    9592.5488   -203.75286   -357.21378    1043.5271    1578.5196    544.02559    1076.0227    18.194207    23.807102    22.145951           90           90           90 
   81500    277.00753    -142.3004   -111.39979    -142.3004            0    30.067381    18.100792    23.767236    21.775178            0            0            0    9367.8077    938.56772   -3341.9965    2493.6309    663.71236   -1558.0622      260.583    18.100792    23.767236    21.775178           90           90           90 
   82000    286.37875   -144.38881   -112.44283   -144.38881            0    2174.8844    18.095163    23.462655    22.118045            0            0            0    9390.4497    3012.8189    1366.0149    2145.8193   -2079.3317   -680.62658   -1123.1136    18.095163    23.462655    22.118045           90           90           90 
   82500    295.70113   -141.49491     -108.509   -141.49491            0     603.6304    18.173874      23.3429    22.492925            0            0            0    9542.1945   -2507.9005    2534.7003    1784.0914   -2078.8913   -370.50636   -1295.8621    18.173874      23.3429    22.492925           90           90           90 
   83000     286.1706   -141.46321   -109.54045   -141.46321            0   -2379.1705    18.154774    23.326803    22.313975            0            0            0    9449.8089    -2021.428   -1500.5409   -3615.5425   -1774.9027    230.07284   -604.62569    18.154774    23.326803    22.313975           90           90           90 
   83500    284.55819   -142.26589   -110.52299   -142.26589            0    1625.2547     18.13312    23.504105    22.064831            0            0            0    9404.0913    1892.5571     479.9909    2503.2161   -742.84541   -221.27241    1894.3729     18.13312    23.504105    22.064831           90           90           90 
   84000    285.53746   -140.55059   -108.69845   -140.55059            0   -1101.8116    18.174133     23.68224    22.122387            0            0            0    9521.5682   -429.61647   -682.79466   -2193.0237   -431.12552     1712.522    -800.4358    18.174133     23.68224    22.122387           90           90           90 
   84500    285.75436   -141.59332   -109.71699   -141.59332            0    1941.4225     18.08515    23.556097    22.264214            0            0            0    9484.9016     2649.407    1440.9125     1733.948   -405.31863   -258.62736   -1029.0976     18.08515    23.556097    22.264214           90           90           90 
   85000    277.94476   -142.24714   -111.24198   -142.24714            0    2993.1514    18.058956    23.399505    22.293684            0            0            0    9420.6567    3975.3001    1869.0933    3135.0607    820.14344    821.67603   -48.645862    18.058956    23.399505    22.293684           90           90           90 
   85500    284.65075   -141.29165   -109.53843   -141.29165            0    530.77677    18.158166    23.425387    22.277828            0            0            0    9476.1431   -791.39125    2735.1843   -351.46272   -727.41209    454.73158   -1233.5179    18.158166    23.425387    22.277828           90           90           90 
   86000     283.2146   -141.77987   -110.18685   -141.77987            0    865.70321    18.209661    23.430813    22.073896            0            0            0    9418.2069    -2046.471    1119.3148    3524.2658   -1977.8891    1230.7116    231.51795    18.209661    23.430813    22.073896           90           90           90 
   86500    274.65217   -142.57242   -111.93456   -142.57242            0   -177.68741    18.144933    23.538632    22.030726            0            0            0    9409.4753   -4338.6991    440.33914    3365.2978     1504.512    264.01338    865.85626    18.144933    23.538632    22.030726           90           90           90 
   87000    262.78391   -141.82931   -112.51537   -141.82931            0   -1083.1939    18.046855    23.669093    22.357571            0            0            0    9550.0965   -556.21377   -2746.0228    52.654902   -1648.2789    -2061.147   -396.60349    18.046855    23.669093    22.357571           90           90           90 
   87500    283.52819    -142.7493   -111.12131    -142.7493            0    1257.5449     17.90486    23.443768    22.391944            0            0            0    9399.1837    2404.5507    2874.7887   -1506.7046   -1994.9301    453.20053    1120.1792     17.90486    23.443768    22.391944           90           90           90 
   88000    284.97022   -142.39074   -110.60189   -142.39074            0    182.99819    18.073643    23.292096     22.21692            0            0            0    9352.7241   -1271.7374    -608.9163    2429.6483   -803.16854   -1099.2936   -2957.7554    18.073643    23.292096     22.21692           90           90           90 
   88500    272.83609   -142.22358   -111.78831   -142.22358            0    1518.2796    18.376833      23.4116    22.105267            0            0            0    9510.3724    710.78718    1064.1354    2779.9163    4380.2729    1944.5508    920.07998    18.376833      23.4116    22.105267           90           90           90 
   89000    262.02279    -142.9382   -113.70916    -142.9382            0    1865.0661    18.290759    23.446505     22.04968            0            0            0    9456.1017    2084.6566    3455.4316    55.110075   -1681.9652    829.60968   -582.60572    18.290759    23.446505     22.04968           90           90           90 
   89500     273.9483   -144.22921   -113.66987   -144.22921            0   -1577.5823     17.98144    23.472158    22.167492            0            0            0    9356.0827   -1206.3868   -2461.3501     -1065.01    1659.6173    427.48373    1263.1664     17.98144    23.472158    22.167492           90           90           90 
   90000    268.89479    -143.9747   -113.97908    -143.9747            0   -183.35687    17.867831    23.627917    22.360517            0            0            0    9440.1549   -1794.4892   -1060.0855    2304.5041    507.25804   -490.02602   -365.86421    17.867831    23.627917    22.360517           90           90           90 
   90500    283.18355   -142.70061   -111.11106   -142.70061            0   -938.91762    17.975253    23.624936    22.258823            0            0            0     9452.525   -4475.7664    101.04648    1557.9671    648.53183    -165.1267    1085.9652    17.975253    23.624936    22.258823           90           90           90 
   91000    275.00991   -142.05618   -111.37841   -142.05618            0    967.64777    18.211044    23.507463    22.054193            0            0            0    9441.2995    648.20006    7.3447525    2247.3985   -1002.9739     278.8802    869.94487    18.211044    23.507463    22.054193           90           90           90 
   91500    275.71587   -144.75555   -113.99903   -144.75555            0     1495.677    18.340554    23.349034    22.084313            0            0            0    9457.2589    1164.5214     33.54415    3288.9655    2287.3937    1483.4237    1304.5417    18.340554    23.349034    22.084313           90           90           90 
   92000    277.67945   -142.74455   -111.76899   -142.74455            0    615.63071    18.185855    23.258831    22.258808            0            0            0    9415.0688    1318.4938    3027.3302   -2498.9319    1067.4237   -1291.2181   -1801.4233    18.185855    23.258831    22.258808           90           90           90 
   92500    274.63301    -142.3319   -111.69618    -142.3319            0   -609.09818     17.94788     23.44225    22.406987            0            0            0    9427.4868   -4423.6585    1554.4391    1041.9249   -533.75661     929.3453    1471.7527     17.94788     23.44225    22.406987           90           90           90 
   93000    280.98598   -142.61814   -111.27373   -142.61814            0   -494.65419    17.907286    23.750277    22.301474            0            0            0    9484.8836    2875.4394    136.90291   -4496.3049    414.98054   -803.02347   -107.17904    17.907286    23.750277    22.301474           90           90           90 
   93500    260.99951   -140.83864   -111.72375   -140.83864            0   -412.61657     18.03726    23.746645    22.032785            0            0            0    9437.1797   -278.90454   -1812.0036    853.05845    51.668671    1078.3143    150.26061     18.03726    23.746645    22.032785           90           90           90 
   94000    277.86528   -143.22053   -112.22424   -143.22053            0    1704.8196     18.20172    23.468062    21.971781            0            0            0    9385.4459    3778.2459    1091.1845     245.0283    344.07208   -944.50536    757.97311     18.20172    23.468062    21.971781           90           90           90 
   94500    283.93784   -143.52307   -111.84938   -143.52307            0   -3099.6466    18.272269    23.293531    22.334111            0            0            0    9505.9712   -1603.6444   -3941.3334    -3753.962    1921.6083    1242.4417    17.543402    18.272269    23.293531    22.334111           90           90           90 
   95000    265.06176   -143.42463   -113.85659   -143.42463            0   -252.87833    18.133617     23.21414     22.43226            0            0            0    9443.0019   -1046.4067    383.20118   -95.429511    358.83369    1781.2761    1137.5228    18.133617     23.21414     22.43226           90           90           90 
   95500    275.98079    -142.0843   -111.29823    -142.0843            0    76.971773    18.078418    23.378558    22.280511            0            0            0    9416.7985    3338.7377   -2547.4675   -560.35488    106.55356    627.96876    1845.6469    18.078418    23.378558    22.280511           90           90           90 
   96000    287.13233   -142.10324    -110.0732   -142.10324            0   -1018.8859    18.073038    23.571355     22.11705            0            0            0    9421.9958    327.04107    1293.0723    -4676.771   -379.65832   -804.14188    781.84799    18.073038    23.571355     22.11705           90           90           90 
   96500     276.7214   -140.98616   -110.11747   -140.98616            0   -1864.5455    18.080784    23.651501    22.149713            0            0            0     9472.052   -660.20349   -1305.8989    -3627.534   -2051.1394   -87.900528    444.42339    18.080784    23.651501    22.149713           90           90           90 
   97000     282.4648    -142.5784   -111.06903    -142.5784            0    146.89262    18.066525    23.478683    22.169031            0            0            0    9403.6201   -1280.3749    1956.0631   -235.01043    1535.1701   -780.01745   -1596.5112    18.066525    23.478683    22.169031           90           90           90 
   97500    276.62208    -141.5487   -110.69109    -141.5487            0   -1090.8455    18.141778    23.480033    22.231859            0            0            0    9470.0949   -833.84559    195.24343   -2633.9342    2057.1476    1085.6833   -569.40831    18.141778    23.480033    22.231859           90           90           90 
   98000    262.86276    -141.7246   -112.40186    -141.7246            0   -43.797964    18.152719    23.505889    22.203161            0            0            0    9473.9957   -1736.1424     326.9319    1277.8166    -1568.109   -678.05029   -1828.6284    18.152719    23.505889    22.203161           90           90           90 
   98500    289.31483   -143.73209   -111.45859   -143.73209            0    2785.0779    18.060702    23.380496    22.094694            0            0            0    9329.8859    4201.1513    3860.1551    293.92739   -136.92757    550.76668    171.73702    18.060702    23.380496    22.094694           90           90           90 
   99000    267.16529   -141.26386   -111.46117   -141.26386            0   -798.58266    18.192366     23.56327    22.313918            0            0            0    9565.3433    1495.4402   -3619.7526   -271.43553    889.81244    1336.0691    873.69785    18.192366     23.56327    22.313918           90           90           90 
   99500    297.09051   -141.88727   -108.74638   -141.88727            0     191.9367    18.069822     23.48128    22.212717            0            0            0    9424.9124    1922.2474   -1020.3888    -326.0485    795.43627   -1253.0133    799.40017    18.069822     23.48128    22.212717           90           90           90 
  100000    274.77923    -140.9048   -110.25276    -140.9048            0     768.9626    18.029255    23.518097    22.161141            0            0            0     9396.629    850.47933     2349.553   -893.14453    -3.373241    1620.7491   -53.721099    18.029255    23.518097    22.161141           90           90           90 
  100500    277.01711   -141.24512   -110.34345   -141.24512            0    825.31946    18.120208    23.609486    22.278213            0            0            0    9530.8154   -2507.6406    2325.4354    2658.1636   -186.86767   -1671.1205    304.09958    18.120208    23.609486    22.278213           90           90           90 
  101000    263.81617   -140.73171   -111.30262   -140.73171            0   -1359.6053    18.139641    23.534882    22.223983            0            0            0    9487.7361    2295.1351   -3894.0014   -2479.9496   -1591.2606   -957.55525    133.99488    18.139641    23.534882    22.223983           90           90           90 
  101500    277.69661   -142.63444   -111.65696   -142.63444            0    1228.3267     18.14528    23.404714    22.054848            0            0            0    9366.3652    2580.9329   -1515.5123    2619.5594    -1072.829   -1634.2142   -94.608165     18.14528    23.404714    22.054848           90           90           90 
  102000    283.63504   -142.77946   -111.13954   -142.77946            0   -1260.7948    18.243129    23.516901    22.154777            0            0            0    9504.8836   -2028.3759   -2049.2645    295.25597    500.03398   -789.02208   -1238.9812    18.243129    23.516901    22.154777           90           90           90 
  102500    281.96599    -143.2494   -111.79567    -143.2494            0   -2076.8297    18.098914    23.548641    22.318953            0            0            0     9512.446   -2594.1188   -1811.6109   -1824.7595   -300.15403      383.482    1186.6793    18.098914    23.548641    22.318953           90           90           90 
  103000    285.28597   -142.46433   -110.64025   -142.46433            0    387.94473    17.888361    23.445844    22.300563            0            0            0    9353.0284    349.10787   -173.26994    987.99627    586.93897   -1681.0073   -440.12542    17.888361    23.445844    22.300563           90           90           90 
  103500    277.70725   -143.06437   -112.08571   -143.06437            0   -1268.4172    18.075479    23.587155    22.254085            0            0            0    9488.0095   -731.59784   -2238.2743   -835.37936    133.80365    614.22341    1685.3421    18.075479    23.587155    22.254085           90           90           90 
  104000    282.86005   -141.84427    -110.2908   -141.84427            0    805.26529    18.225706    23.576814    22.092903            0            0            0    9493.4101   -1736.4863    509.93485    3642.3473    231.23067   -386.93329   -478.72051    18.225706    23.576814    22.092903           90           90           90 
  104500    275.83819   -142.73234   -111.96217   -142.73234            0    1503.5613    18.151698    23.448969    22.086659            0            0            0    9400.9346    1446.0147   -1106.6579    4171.3271    202.18025    -1305.754    -1041.516    18.151698    23.448969    22.086659           90           90           90 
  105000    276.78671   -140.65298     -109.777   -140.65298            0   -980.55904    18.179338     23.54272    22.410513            0            0            0    9591.4995   -1046.2235   -873.15569    -1022.298    882.62316   -666.73881    579.22464    18.179338     23.54272    22.410513           90           90           90 
  105500     290.5972   -141.85769   -109.44113   -141.85769            0    47.270303    18.048729    23.504071    22.270465            0            0            0    9447.5454   -863.48172    345.77508    659.51755   -1255.1658    944.23086   -476.52064    18.048729    23.504071    22.270465           90           90           90 
  106000    281.24601   -142.01176   -110.63834   -142.01176            0    421.84022    18.027371    23.676391    22.120011            0            0            0    9441.3315    4383.3887     -348.083   -2769.7851     1645.642   -1303.9739    2590.1126    18.027371    23.676391    22.120011           90           90           90 
  106500    277.02571   -141.88527   -110.98264   -141.88527            0   -1149.1924    18.072765    23.741695    22.089176            0            0            0    9477.9813   -2607.2016   -3062.8263    2222.4507   -1568.9724    543.01855   -291.52438    18.072765    23.741695    22.089176           90           90           90 
  107000    271.92302   -141.62037   -111.28694   -141.62037            0    967.17863    18.163919    23.412211    22.216056            0            0            0    9447.5445    2267.2084   -55.145272    689.47274    569.05758    132.89309   -84.200066    18.163919    23.412211    22.216056           90           90           90 
  107500      281.449   -141.70364   -110.30758   -141.70364            0    1623.6089    18.219756    23.170927    22.481943            0            0            0     9491.171    216.27483    2606.7656    2047.7864    2239.8114   -2141.3219    293.01128    18.219756    23.170927    22.481943           90           90           90 
  108000    280.52495   -140.98938    -109.6964   -140.98938            0   -251.30678    18.103732    23.154513    22.300069            0            0            0    9347.8121    285.68759    1503.1087   -2542.7166   -1096.6382   -491.94972    1232.9703    18.103732    23.154513    22.300069           90           90           90 
  108500    279.31042   -140.66741   -109.50992   -140.66741            0    1409.1513    18.183287    23.672726    22.134909            0            0            0    9527.9265    667.74671    3708.4519   -148.74462    938.61836   -439.20061   -1649.0922    18.183287    23.672726    22.134909           90           90           90 
  109000     275.5899   -141.38298   -110.64051   -141.38298            0   -179.45848     18.10036     23.84665    22.029385            0            0            0    9508.6084    3597.0584   -1933.0706   -2202.3633   -2649.9455    1257.9242   -388.39819     18.10036     23.84665    22.029385           90           90           90 
  109500    291.63916   -142.65278   -110.11999   -142.65278            0    2978.0853    17.955823     23.55653    22.112368            0            0            0    9353.0204    5316.1639    1061.7782    2556.3138    536.41975    1539.6143   -72.729321    17.955823     23.55653    22.112368           90           90           90 
  110000     280.3242   -142.24976   -110.97917   -142.24976            0    684.13115    18.135074    23.520942    22.456166            0            0            0    9578.7683     903.1166   -36.131008    1185.4079   -167.86366    128.96669    759.92355    18.135074    23.520942    22.456166           90           90           90 
  110500    271.03921   -142.63038   -112.39554   -142.63038            0    3722.6456    18.129633    23.272287    22.232329            0            0            0    9380.2203     819.5866    5833.9951    4514.3552    780.32641   -2374.6864   -1483.1144    18.129633    23.272287    22.232329           90           90           90 
  111000    273.48665   -141.47473   -110.96689   -141.47473            0   -375.99381    18.239762    23.425023    22.163833            0            0            0     9469.871    40.369441   -97.755599   -1070.5953    -1204.068   -2032.8541   -1687.0714    18.239762    23.425023    22.163833           90           90           90 
  111500    289.55418   -142.87429   -110.57408   -142.87429            0   -1609.8763    18.222258     23.61023    22.145171            0            0            0    9527.5543   -411.53423   -2900.3049   -1517.7897    1132.2232    744.82175    1834.0545    18.222258     23.61023    22.145171           90           90           90 
[...]
  373500     279.2722   -143.66761   -112.51437   -143.66761            0   -653.21185    17.886776    23.920154    22.136566            0            0            0    9471.2278    1798.9522   -1970.5918    -1787.996   -1586.6314    -605.1067     912.1014    17.886776    23.920154    22.136566           90           90           90 
  374000    280.48824   -141.10888   -109.81999   -141.10888            0    2395.5633    17.834824    23.977457    22.108786            0            0            0    9454.4623    3702.1862    2538.9287    945.57513   -45.845234   -602.22386   -1054.1811    17.834824    23.977457    22.108786           90           90           90 
  374500    288.51872   -141.16343   -108.97873   -141.16343            0     88.49413    18.031601    23.482883    22.167777            0            0            0    9386.5902   -613.37555   -863.38154    1742.2395    846.09041    819.87891   -775.13197    18.031601    23.482883    22.167777           90           90           90 
  375000    290.50832   -141.03882   -108.63218   -141.03882            0   -842.41752    18.385201    23.143518    22.338078            0            0            0    9504.8123   -2858.6156    2652.5042   -2321.1411   -152.32393    2548.6892    250.77462    18.385201    23.143518    22.338078           90           90           90 
  375500    282.08962   -142.12751   -110.65999   -142.12751            0    3995.6502    18.313525    23.057805    22.195324            0            0            0    9372.4125     2040.495    4699.1765     5247.279   -1114.6342    431.27793    582.11378    18.313525    23.057805    22.195324           90           90           90 
  376000    277.14137   -141.25818   -110.34264   -141.25818            0   -4119.7594    18.261684     23.51968     22.27086            0            0            0    9565.5339   -3890.0792   -5146.7373   -3322.4618   -1409.2682    -685.3274    531.10046    18.261684     23.51968     22.27086           90           90           90 
  376500    289.68847   -141.23666   -108.92147   -141.23666            0   -1619.7397    17.990954    23.640551    22.129991            0            0            0    9412.2405   -1598.7274   -3904.8634    644.37168   -38.754648    723.23213    1096.7733    17.990954    23.640551    22.129991           90           90           90 
  377000    277.05899   -143.23995   -112.33361   -143.23995            0    489.09928    17.926401    23.613532    22.083523            0            0            0    9348.0798    1729.4948    41.479816   -303.67682    -1076.541   -250.00357    268.27295    17.926401    23.613532    22.083523           90           90           90 
  377500    268.70461   -141.75859   -111.78419   -141.75859            0   -2185.0828    18.176013    23.631791    22.335429            0            0            0    9593.7758   -4549.6539   -1216.8726   -788.72203   -1608.3974    132.42759    1254.6183    18.176013    23.631791    22.335429           90           90           90 
  378000    280.12215   -142.14589   -110.89785   -142.14589            0     1126.344    18.160062    23.316827    22.154878            0            0            0    9381.1517   -1186.4593    4180.3724    385.11879    634.73662     228.5099   -353.24215    18.160062    23.316827    22.154878           90           90           90 
  378500    268.57412   -142.58881   -112.62896   -142.58881            0   -776.09579    18.198883    23.359371    22.158503            0            0            0       9419.9     -2924.56    283.31176    312.96087   -728.01863    39.071004    -2025.434    18.198883    23.359371    22.158503           90           90           90 
  379000    277.29212   -141.37904   -110.44668   -141.37904            0   -1830.5417    18.195116    23.589076    22.287006            0            0            0    9565.7165   -1768.5973    749.17856   -4472.2065   -689.10725    779.10812    1143.7429    18.195116    23.589076    22.287006           90           90           90 
  379500    279.22103   -142.91575   -111.76823   -142.91575            0    3584.1325    17.980929    23.565133     22.14151            0            0            0    9381.8665    5776.2136    3352.2358    1623.9482    349.74846    1205.2856    517.55006    17.980929    23.565133     22.14151           90           90           90 
  380000    282.04743   -143.23693   -111.77412   -143.23693            0    501.35057     18.01905    23.605686    22.190446            0            0            0    9438.7513    1396.0992    776.30479   -668.35226   -122.20494   -645.88084    872.27679     18.01905    23.605686    22.190446           90           90           90 
  380500    267.40217   -142.93128   -113.10217   -142.93128            0   -57.200328    18.142331    23.489404    22.231291            0            0            0    9473.9217   -620.86727     916.3213   -467.05502   -314.89757    1340.9336    736.04554    18.142331    23.489404    22.231291           90           90           90 
  381000    278.05509   -142.35308   -111.33562   -142.35308            0   -2732.5371     18.29711    23.336021    22.192573            0            0            0    9475.8236   -5193.9034   -2308.5523   -695.15553   -52.677547    891.65349    224.87182     18.29711    23.336021    22.192573           90           90           90 
  381500    287.51753    -139.7036   -107.63058    -139.7036            0   -1576.6711    18.267718    23.273964     22.25397            0            0            0    9461.5468   -1040.7119   -1758.4511   -1930.8501      -1726.1    606.26267   -709.92241    18.267718    23.273964     22.25397           90           90           90 
  382000    278.50759   -140.92278   -109.85484   -140.92278            0   -1313.2669    18.090038    23.421197    22.375214            0            0            0    9480.1623   -2718.0116    219.94417   -1441.7333   -1057.5724   -924.22106   -2.6468203    18.090038    23.421197    22.375214           90           90           90 
  382500    293.89179   -141.05362   -108.26954   -141.05362            0   -206.48635    17.957607    23.691482    22.327165            0            0            0     9498.921    731.13154   -2642.3634    1291.7728   -2645.2911   -413.62799   -72.022799    17.957607    23.691482    22.327165           90           90           90 
  383000    288.40254   -141.48185   -109.31011   -141.48185            0    1303.7298     18.02862    23.856147     22.04179            0            0            0    9480.0283    310.71417    -2428.569    6029.0442    845.29251   -858.52272   -698.38851     18.02862    23.856147     22.04179           90           90           90 
  383500    289.45778   -140.41783   -108.12838   -140.41783            0   -748.09168    18.224501    23.678683    21.985986            0            0            0    9487.6603   -1569.4752    266.10861   -940.90843    2068.0265   -2589.9161    790.62309    18.224501    23.678683    21.985986           90           90           90 
  384000    283.36513   -142.34749   -110.73768   -142.34749            0    1696.6996     18.29569    23.214896    22.207362            0            0            0    9432.1892    1726.4272    558.93691    2804.7347    167.05524   -563.58985   -233.80044     18.29569    23.214896    22.207362           90           90           90 
  384500    271.29581   -141.75134   -111.48789   -141.75134            0    1864.1535    18.222653    23.170028    22.477045            0            0            0    9490.2439    572.92523    4601.6182     417.9171   -2587.7324    389.43847    918.91386    18.222653    23.170028    22.477045           90           90           90 
  385000    266.87365   -142.19657   -112.42641   -142.19657            0   -1235.2765    18.033667     23.36104    22.367384            0            0            0    9423.0482   -1271.9393   -2443.5751    9.6848143    1035.2136    670.77833    5.7542274    18.033667     23.36104    22.367384           90           90           90 
  385500    267.58367   -142.96664   -113.11728   -142.96664            0   -672.64894    18.042731    23.758493    22.130091            0            0            0    9486.4639    184.65894   -391.55281    -1811.053    83.267027   -2438.1584    2076.2054    18.042731    23.758493    22.130091           90           90           90 
  386000    278.97837   -142.27401   -111.15355   -142.27401            0   -33.496662    18.065227    23.794692    22.079139            0            0            0     9490.862    2640.2229   -1825.2744   -915.43846    -1622.925    157.60016   -128.73986    18.065227    23.794692    22.079139           90           90           90 
  386500    279.69659   -140.69434   -109.49377   -140.69434            0   -2093.3613     18.13493    23.529468    22.267532            0            0            0    9501.6728   -3734.7209   -3235.2859    689.92286   -821.94677   -614.02013     -109.021     18.13493    23.529468    22.267532           90           90           90 
  387000    271.06116   -141.01738    -110.7801   -141.01738            0   -759.37963    18.231157    23.304084    22.390561            0            0            0    9512.8631   -1866.1147   -905.69664    493.67249    3139.8942   -909.52739    -287.3741    18.231157    23.304084    22.390561           90           90           90 
  387500    282.57277   -142.39547   -110.87405   -142.39547            0    946.38988    18.171187    23.200972    22.176006            0            0            0    9349.1651    1613.1817    1094.6093    131.37863    -425.1366    558.10317   -1106.2056    18.171187    23.200972    22.176006           90           90           90 
  388000    268.83192   -143.31342   -113.32481   -143.31342            0    -3401.906    18.261952      23.5787    22.199526            0            0            0    9558.9625   -4327.0656   -1959.9992   -3918.6531    -737.9678    2141.0726    -541.9218    18.261952      23.5787    22.199526           90           90           90 
  388500    269.33624   -142.98213   -112.93727   -142.98213            0   -1505.5089    18.092255    23.663968    22.210915            0            0            0    9509.2599   -2059.1152   -1379.2646   -1078.1469    556.99583    2361.0365   -11.349382    18.092255    23.663968    22.210915           90           90           90 
  389000    275.97206   -143.86285   -113.07775   -143.86285            0    1879.1114    17.946187     23.51127    22.193889            0            0            0    9364.4375    2836.4398    2456.5695    344.32481   -276.76372   -796.94108    936.98599    17.946187     23.51127    22.193889           90           90           90 
  389500    267.46159   -142.36021   -112.52446   -142.36021            0   -55.946909    18.108305    23.518541    22.240237            0            0            0    9471.6924    629.83514    621.42442   -1419.1003    400.79842   -622.75296    264.55126    18.108305    23.518541    22.240237           90           90           90 
  390000    273.60231   -144.33349   -113.81274   -144.33349            0   -689.16594    18.249968    23.444404    22.160226            0            0            0    9481.4663    -1078.082   -1007.9289    18.513088     2102.823    240.29572   -121.37119    18.249968    23.444404    22.160226           90           90           90 
  390500    287.14325   -142.95097   -110.91971   -142.95097            0    1492.1828    18.300748    23.332345    22.116104            0            0            0    9443.5624    560.75346    786.17977    3129.6153    51.893582    1361.0808    -369.9403    18.300748    23.332345    22.116104           90           90           90 
  391000    284.86726   -141.63685   -109.85948   -141.63685            0    -555.0352    18.240649    23.334351     22.25396            0            0            0    9472.0353    -2768.629    1134.8137   -31.290261   -3764.2865    659.29476    328.47005    18.240649    23.334351     22.25396           90           90           90 
  391500    282.96935   -139.81125   -108.24559   -139.81125            0    1735.4708    17.970824    23.567164    22.429208            0            0            0    9499.2485    4223.9896    342.48582    639.93697   -3037.6905    1248.1992    5.6721364    17.970824    23.567164    22.429208           90           90           90 
  392000    267.64282   -142.67242   -112.81646   -142.67242            0    846.62991    17.644313    23.820298    22.399157            0            0            0    9414.2042    384.90425    3512.4486   -1357.4631     591.9234    780.19063   -236.01003    17.644313    23.820298    22.399157           90           90           90 
  392500    268.76502   -143.16886   -113.18772   -143.16886            0    -3768.568    17.891075     23.92972    22.245845            0            0            0     9524.078   -1229.6366   -5113.2441   -4962.8235     779.4937     380.4257    2347.3426    17.891075     23.92972    22.245845           90           90           90 
  393000    285.84006   -141.90155   -110.01566   -141.90155            0   -265.35624    18.303427     23.57728     21.99109            0            0            0    9490.1454   -715.76709   -5422.4721    5342.1704   -1245.5928   -1012.0551   -439.17839    18.303427     23.57728     21.99109           90           90           90 
  393500    301.20608   -141.14799     -107.548   -141.14799            0    23.410375    18.385627    23.266125    22.117105            0            0            0    9460.8638   -640.09742   -490.08892    1200.4175    322.68206    922.02138   -451.05116    18.385627    23.266125    22.117105           90           90           90 
  394000    286.92925   -143.37473   -111.36734   -143.37473            0   -149.13048    18.208945     23.21813    22.335929            0            0            0    9443.1319   -497.63912    595.78122   -545.53353    810.54226    808.57296    -630.5067    18.208945     23.21813    22.335929           90           90           90 
  394500    272.19717   -142.07279   -111.70878   -142.07279            0   -1020.7485    18.028991     23.42594    22.365639            0            0            0    9446.0395   -1884.3495   -599.80694   -578.08892    282.16374    381.63756    185.37386    18.028991     23.42594    22.365639           90           90           90 
  395000    283.47196   -141.83943    -110.2177   -141.83943            0    230.42734    17.985281    23.690422    22.174252            0            0            0    9447.9806   -3839.0969    4341.9325    188.44649    2551.7661   -267.89121    903.12572    17.985281    23.690422    22.174252           90           90           90 
  395500    282.31885   -143.02968   -111.53658   -143.02968            0   -2034.9444    18.068046    23.767936    22.122647            0            0            0     9500.353    1248.5058   -5065.0566   -2288.2824     3354.621   -197.56866    260.65768    18.068046    23.767936    22.122647           90           90           90 
  396000    275.38877   -143.50519   -112.78516   -143.50519            0   -1455.6052    18.124463    23.483091    22.221383            0            0            0      9457.83   -1026.8414   -1028.4897   -2311.4844    791.12197    1729.3062   -679.73577    18.124463    23.483091    22.221383           90           90           90 
  396500    273.07579   -143.79336   -113.33135   -143.79336            0    864.28497    18.156871    23.226876    22.282357            0            0            0    9397.0803    1987.3583   -285.81779    891.31438    108.16537   -294.07788   -393.38886    18.156871    23.226876    22.282357           90           90           90 
  397000    278.89297   -142.52567   -111.41474   -142.52567            0   -16.107212    18.203356    23.246933    22.321456            0            0            0    9445.8198   -13.008544    -907.9617    872.64861    417.92426    413.06131   -2546.4424    18.203356    23.246933    22.321456           90           90           90 
  397500    284.94395   -142.80308   -111.01716   -142.80308            0    842.44369    18.174794    23.515734    22.257167            0            0            0    9512.5712    3204.7986   -4032.5748    3355.1072    3145.5665   -677.24625     798.5704    18.174794    23.515734    22.257167           90           90           90 
  398000    282.61092   -142.84413   -111.31846   -142.84413            0    130.53598    18.038325    23.775104    22.004085            0            0            0     9436.739   -877.11338    1219.6398     49.08157   -1075.9087     586.1135    469.59537    18.038325    23.775104    22.004085           90           90           90 
  398500    284.60861   -141.58603   -109.83751   -141.58603            0    754.70145    17.975524    23.739963    22.009617            0            0            0    9392.3457   -3095.0369     288.9914    5070.1499    750.18268    176.51809    676.92808    17.975524    23.739963    22.009617           90           90           90 
  399000    262.30146   -143.46032    -114.2002   -143.46032            0   -2019.1595    18.119512    23.533666     22.47482            0            0            0    9583.6801   -1626.9624   -767.17844   -3663.3377    -940.0743    2168.3559   -766.16718    18.119512    23.533666     22.47482           90           90           90 
  399500    268.20701   -141.49264   -111.57374   -141.49264            0    644.69144    18.063254    23.103737    22.370901            0            0            0    9336.0185   -1494.2796    2845.6262     582.7277   -664.99549   -858.13923   -1070.0401    18.063254    23.103737    22.370901           90           90           90 
  400000    271.50626    -143.7008   -113.41387    -143.7008            0   -2480.5778    18.271721    23.343055    22.265935            0            0            0    9496.8177   -3461.0075   -903.88549   -3076.8404   -737.01758    1218.0894    1975.9333    18.271721    23.343055    22.265935           90           90           90 
Loop time of 2097.74 on 1 procs for 400000 steps with 864 atoms

Performance: 8.237 ns/day, 2.914 hours/ns, 190.681 timesteps/s
74.7% CPU use with 1 MPI tasks x 1 OpenMP threads

MPI task timing breakdown:
Section |  min time  |  avg time  |  max time  |%varavg| %total
---------------------------------------------------------------
Pair    | 1827.4     | 1827.4     | 1827.4     |   0.0 | 87.11
Bond    | 0.059338   | 0.059338   | 0.059338   |   0.0 |  0.00
Neigh   | 243.93     | 243.93     | 243.93     |   0.0 | 11.63
Comm    | 8.2171     | 8.2171     | 8.2171     |   0.0 |  0.39
Output  | 1.9312     | 1.9312     | 1.9312     |   0.0 |  0.09
Modify  | 14.615     | 14.615     | 14.615     |   0.0 |  0.70
Other   |            | 1.59       |            |       |  0.08

Nlocal:        864.000 ave         864 max         864 min
Histogram: 1 0 0 0 0 0 0 0 0 0
Nghost:        3745.00 ave        3745 max        3745 min
Histogram: 1 0 0 0 0 0 0 0 0 0
Neighs:         0.00000 ave           0 max           0 min
Histogram: 1 0 0 0 0 0 0 0 0 0
FullNghs:      165524.0 ave      165524 max      165524 min
Histogram: 1 0 0 0 0 0 0 0 0 0

Total # of neighbors = 165524
Ave neighs/atom = 191.57870
Ave special neighs/atom = 0.0000000
Neighbor list builds = 40000
Dangerous builds not checked

unfix		3
unfix		2

write_data	data.final.${pid}
write_data	data.final.0
System init for write_data ...

write_restart   restart.lmp.${pid}
write_restart   restart.lmp.0
System init for write_restart ...
Unloading pair style deepmd
Unloading compute style deepmd
Unloading fix style deepmd
Total wall time: 0:35:08
