LAMMPS data file via write_data, version 23 Jun 2022, timestep = 143160000

2592 atoms
2 atom types

0 30.933001 xlo xhi
0 21.326696 ylo yhi
-0.873920316864778 31.83115326797769 zlo zhi
-9.140633 0.9928683592843064 -10.880550745469339 xy xz yz

Masses

1 1.008
2 15.999

Atoms # full

2401 0 1 0 -5.998071950885147 15.163618404438278 7.802410357867602 1 0 0
937 0 1 0 9.446016554601274 9.048133370050662 10.065499575863997 -1 -2 0
1044 0 2 0 2.313691083249667 5.606644052415749 7.986305656940514 2 3 0
961 0 1 0 3.2021599337571662 4.043906379502923 5.392321876167072 1 1 0
184 0 1 0 -7.121411046144186 20.151124680169307 -0.33207408305144615 -1 -1 0
1081 0 1 0 0.46756781300046 4.838289923041338 1.342714074015574 1 -1 0
70 0 1 0 13.077968835594799 -2.294761413618034 14.172111957128989 2 1 0
632 0 2 0 12.557343885133873 2.0918989908862873 12.508460739052799 1 1 0
699 0 2 0 5.343301124675566 11.49357463900439 5.24792920732659 -1 -2 0
1614 0 2 0 7.671274641242882 3.753670259478501 1.4833711506346972 0 -1 0
2330 0 2 0 3.2770832278074113 9.911218093897382 1.6586750104410561 1 0 0
974 0 2 0 2.7596320729596036 9.928504974943879 10.141710730321257 -2 -2 0
672 0 2 0 3.904811849321556 1.3329070778786942 13.892663333428368 1 2 0
158 0 2 0 7.1518084609557695 9.263809505574148 0.3136511569298275 0 2 0
800 0 2 0 3.8815386818028452 7.708775772409894 11.432812490308224 0 1 0
985 0 1 0 -1.608669891886748 3.2928359892263743 10.760595384490793 2 0 0
440 0 2 0 -0.8086694524308524 0.7181102890812152 14.601787959304957 3 1 0
197 0 2 0 -2.189153952454074 7.929254788140839 14.487066004746419 0 0 0
1071 0 2 0 -0.7498401694145499 7.284810046756535 6.659121454676198 1 -1 0
1228 0 1 0 -2.1411133424899456 12.381082798084208 5.462608548727792 1 0 0
915 0 2 0 4.643920461868401 10.024160785954281 13.4706618391565 0 1 0
434 0 2 0 8.656892363311956 -0.5513846260876649 12.356156626058949 -1 1 0
963 0 2 0 2.8076642710410304 3.9699226675569834 6.26211215614517 1 1 0
740 0 2 0 11.810565204766107 6.608089475481503 3.3696883376702598 0 -2 0
361 0 1 0 7.135248335865972 12.76752735370866 3.563268157230068 -1 -3 0
2451 0 2 0 -3.7764029799671595 14.891300568441224 -0.7829817836663641 0 0 1
270 0 2 0 6.582796084977083 14.28383543031011 0.8016659533578008 1 0 0
529 0 1 0 -0.08210385137165432 -0.4749452664911855 7.144665718648728 -3 -1 0
713 0 2 0 4.971271081904828 7.24477661660925 4.107504280838232 -3 -2 0
750 0 2 0 4.903014843992817 -1.605346049692069 5.8647271051807754 2 0 0
739 0 1 0 10.90100942950699 6.875643412372167 3.0715860870951563 0 -2 0
2342 0 2 0 10.61478881818377 8.538562349003746 0.014424845083018778 0 0 0
395 0 2 0 2.301241890531256 13.027562682134993 1.6052172203016513 1 0 0
553 0 1 0 3.5270498965300403 -0.848593250547965 1.8635820209776357 3 3 0
1247 0 2 0 3.2520629359036226 11.513612835805642 14.576826704247043 0 0 0
379 0 1 0 -2.7479231075711588 8.795114480815677 11.892766531927245 0 -2 0
650 0 2 0 -3.0429179348728534 10.967955102889634 12.540256748107499 2 1 0
651 0 2 0 -2.8467609912338037 12.355098814705649 12.953355621732769 2 1 0
1073 0 2 0 -0.019655776393101954 7.421239577577008 13.45245396638546 -1 2 0
1020 0 2 0 0.22354579030547317 14.278003528532333 6.751347729457203 2 1 0
1294 0 1 0 4.476349212595781 8.484482219658297 14.621680419164319 1 0 0
777 0 2 0 6.954004722006706 7.5518203780729705 2.8428415036988413 1 -2 0
2207 0 2 0 5.8960554155342075 5.700110331121487 -0.06334257117101105 0 0 1
1181 0 2 0 5.515156971069884 13.373036448782633 6.887468855375394 0 0 0
154 0 1 0 9.147752609613022 8.928597389901114 13.417433612210628 0 0 0
735 0 2 0 -1.5455857119189098 19.531300622086455 1.897069431812847 -1 -1 0
969 0 2 0 -1.2229106846118758 14.919233935197834 3.5813340257301514 0 0 0
1246 0 1 0 2.6088287643621437 11.724104956598866 15.268186548276253 0 0 0
362 0 2 0 7.691124668404871 12.013430988451681 3.6142869047759403 -1 -3 0
355 0 1 0 5.188856572409691 4.8204386993951465 14.834722169702866 1 0 0
97 0 1 0 3.554217407287507 9.171372889877485 6.750774126135716 1 -2 0
175 0 1 0 0.9508451431415512 8.349182565136417 2.148100405061332 1 0 0
1109 0 2 0 -1.2745491333079322 2.712126298094894 0.67697822131023 0 -2 0
950 0 2 0 9.974472235873833 2.309374437513487 8.804489503018509 2 1 0
522 0 2 0 -0.14722305897147148 10.074476419694381 11.200705877991924 2 0 0
316 0 1 0 -2.4004924824015554 6.964442562015426 9.603003604959795 2 0 0
837 0 2 0 8.556786712819983 1.1739593567475222 14.359565726698229 1 0 0
1063 0 1 0 7.472678615106372 16.777781011447818 -0.6772947619722111 2 0 0
1178 0 2 0 5.86796061655401 15.232299195032912 5.156687985661229 1 0 0
557 0 2 0 -3.985948526391651 12.525165124204287 3.262957754084205 0 -1 0
1447 0 1 0 -4.2868190054641016 15.331064490652471 5.50193914755845 0 1 0
67 0 1 0 6.376012071230452 19.99956563663653 1.147388461730452 -1 -2 0
602 0 2 0 8.769733754690508 8.555506864976266 6.673123777270715 -1 -1 0
247 0 1 0 0.6781405226224442 6.845443187205881 10.480616276806643 0 4 0
433 0 1 0 8.414100158544096 0.11245749441916875 11.741769179752565 -1 1 0
1 0 1 0 8.96180381376117 12.871973706060471 6.186072830804282 0 0 0
1233 0 2 0 0.5915089551209995 13.739569160088351 11.528671833070131 1 2 0
26 0 2 0 11.485270169670908 -1.689652404318824 7.170598320230567 1 -1 0
40 0 1 0 -5.423061256048371 13.19755699748315 12.244291208522515 1 1 0
931 0 1 0 6.820981454400493 -3.607987346665382 11.894859868180568 4 4 0
533 0 2 0 -3.95823068334327 7.394883528181168 9.561496948921176 0 -1 0
1484 0 2 0 7.562364764611853 8.019829712432077 13.59772764603324 -1 -3 0
631 0 1 0 11.939729910772975 2.8289629847263678 12.559587718391896 1 1 0
2206 0 1 0 6.794807708246381 5.836448610657936 -0.453374755808876 0 0 1
131 0 2 0 -1.2893475901936022 14.932066657484105 12.910154278481407 1 1 0
714 0 2 0 4.595296099022558 8.589000504223103 3.352927936274214 -3 -2 0
858 0 2 0 8.2238163654182 5.982354327024904 4.638519704991917 1 3 0
318 0 2 0 -2.085830080485927 6.318544702969824 10.205547563644577 2 0 0
986 0 2 0 -1.2083015016172427 3.7155387932766475 11.561104302253764 2 0 0
1226 0 2 0 6.738360786572397 3.5303774128827525 11.414373792407 -1 -2 0
81 0 2 0 3.8880573842322446 5.959930916870414 5.659597349960194 2 2 0
563 0 2 0 10.513579782155144 -0.4527735898165126 14.823442312143662 -1 -2 0
1663 0 1 0 7.656679172492618 15.777561137603927 8.38861517062966 1 2 0
924 0 2 0 4.090839445165351 3.188067350018393 12.495206124239855 0 -1 0
542 0 2 0 -4.267781039727507 10.201388085423153 7.029707921063898 0 -1 0
455 0 2 0 -5.031909631046103 12.827618025004808 0.12106395601261255 1 0 0
633 0 2 0 11.145231704195993 2.4878806937135307 12.046274829099717 1 1 0
34 0 1 0 2.709558205768449 3.1583735033565077 1.1547686373958204 1 2 0
14 0 2 0 8.981651576292416 4.67480707268154 2.841387765741451 2 2 0
459 0 2 0 8.133000690252 11.373470050289962 1.0834503691895672 -1 1 0
27 0 2 0 2.7654567613879513 18.128195239058808 6.680595234185866 1 -2 0
1207 0 1 0 3.006175088817654 9.725450036930962 -0.08217695307338702 3 4 0
1068 0 2 0 -0.829727653734212 -1.6020742201898965 14.886585970899635 2 2 0
671 0 2 0 5.041460304319228 1.1273747284240887 12.863956765757118 1 2 0
1225 0 1 0 6.849553934220964 3.130494432096159 10.575936990908382 -1 -2 0
360 0 2 0 0.9248883026469263 12.306360391031982 15.29115393910203 1 3 0
380 0 2 0 -2.916924545820031 8.806460973789246 12.836484165402341 0 -2 0
681 0 2 0 2.6184179347963843 14.628469721225281 3.859353178165609 1 -1 0
861 0 2 0 -2.1113528080663864 5.921942168607613 12.887182013024368 0 0 0
843 0 2 0 2.6609337599595695 -0.09265209383876893 15.099467617050943 1 1 0
2579 0 2 0 12.190801265826991 -0.1695070702947432 11.188258986070352 -1 1 1
214 0 1 0 -2.0327868736475936 9.632106634984797 5.283344581399662 0 -2 0
1140 0 2 0 0.8737740594522388 11.270449202766944 6.938367577601282 0 1 0
472 0 1 0 5.789089774763912 2.6987877100487467 -0.5778336369816255 -1 -2 0
1127 0 2 0 5.173892698602901 6.585293633233941 9.127724380886377 1 -1 0
646 0 1 0 12.016704570372767 3.8844814124355818 4.266064292728295 -2 -2 0
1047 0 2 0 8.272920875463704 7.70408592267082 10.384429671283096 -1 1 0
2473 0 1 0 8.779421729169073 -2.212139544816474 13.137775309650335 0 2 0
749 0 2 0 -3.08353582196695 18.962206034469755 5.2514727099281036 2 -1 0
156 0 2 0 9.705884876868408 8.43122901883229 12.76412186138825 0 0 0
63 0 2 0 4.3632450796064575 13.776471402353264 14.334102831031322 1 1 0
461 0 2 0 -2.141571985021788 5.732512875438459 0.34297063126882366 -1 -1 0
880 0 1 0 1.2333441499768218 15.633067291196054 0.8446949652895501 1 -2 0
882 0 2 0 1.4974414705972041 14.737118792343573 0.7858931388360046 1 -2 0
285 0 2 0 -4.3876847449603735 11.348560582783861 14.969994861562334 1 0 0
257 0 2 0 1.1427463419398272 11.467153878417445 12.669084956278514 -1 1 0
1275 0 2 0 4.317932358055032 17.21266487653019 9.510874326606102 1 1 0
701 0 2 0 -7.234262168605436 17.095733372399966 -0.3002495074088144 -1 -2 0
490 0 1 0 10.763725225697776 3.315649337340177 0.28693976062059945 0 1 0
2450 0 2 0 -2.761352755668722 15.872979260939676 -0.13532820109603994 0 0 0
993 0 2 0 6.613382471523775 -1.1702896992634546 14.874117262065196 1 0 0
877 0 1 0 0.6972115925423931 5.1944476602505585 3.9925503543621508 0 0 0
771 0 2 0 5.501079135539914 -0.5717846246081069 3.6363981019695597 -1 -1 0
913 0 1 0 4.417974010616127 10.941206203572577 13.301659068591238 0 1 0
174 0 2 0 12.86764887933263 2.5239782547203267 7.524133016260775 1 1 0
150 0 2 0 -0.012056405842622686 12.947212327054777 3.536689595708169 0 0 0
2559 0 2 0 -6.751746882382115 14.926278391583852 14.602206520180129 0 1 1
1362 0 2 0 -0.7606420157430451 4.290960444237017 9.15475190033456 1 -2 0
2223 0 2 0 11.608635387679637 -2.332005447826159 10.427904931050758 0 1 0
2547 0 2 0 -2.782585096208005 15.194042403018795 8.526750301393461 0 -2 0
1064 0 2 0 7.642354020270102 17.03042928947053 0.22338900941722972 2 0 0
38 0 2 0 5.055717837824458 14.460163901854312 10.0841372788702 -1 -2 0
1173 0 2 0 11.515743275722368 4.142305896061792 9.289856756114121 -2 0 0
438 0 2 0 6.719645306325602 12.7832987040583 13.29876087911297 1 3 0
1069 0 1 0 0.12860711401652372 7.729558821269565 6.648084930253564 1 -1 0
730 0 1 0 3.6147365020546176 -0.8161816798395694 10.20826197951728 -1 -1 0
1209 0 2 0 2.320579944424985 10.316392096841993 -0.417904164506087 3 4 0
938 0 2 0 10.304160549562257 8.614945044355508 10.363585144756623 -1 -2 0
741 0 2 0 10.308503899370766 6.313622054426427 3.594324557587017 0 -2 0
1179 0 2 0 5.126954099461683 16.34260576323426 4.429517180095609 1 0 0
1094 0 2 0 2.7382327258034587 12.655494039170415 11.398247214963666 -1 -1 0
541 0 1 0 -4.221680665038442 9.199019264647932 7.025183217703931 0 -1 0
1280 0 2 0 2.49929963728292 5.8599701350602516 13.682947848932598 1 0 0
692 0 2 0 -5.592806191430251 13.790679007919806 8.87519328366751 0 -1 0
2581 0 1 0 6.697787081638333 11.746043520779775 9.150507535845572 0 -2 0
793 0 1 0 3.89140242843225 12.510386939598032 7.6807121355690935 1 0 0
282 0 2 0 2.919117755760057 -4.35722013104536 13.737230065467369 2 1 0
842 0 2 0 2.0550366876497765 -0.21330518887427719 13.573920036246973 1 1 0
94 0 1 0 11.10542793631812 -0.20346432532602954 8.21283119020196 -1 -2 0
338 0 2 0 0.5342690787255889 18.10104336212425 7.602795075229887 -2 -3 0
1490 0 2 0 -0.37903148348197757 10.701249102533495 1.73142568310557 0 -1 0
2474 0 2 0 8.183040186299804 -2.7301288390315204 12.533388568188052 0 3 1
398 0 2 0 -0.8022789637402093 18.974249366958613 4.573855894180076 3 -1 0
1126 0 1 0 5.529063131775373 7.198885814517748 8.510110667543383 1 -1 1
705 0 2 0 -2.7413791998887262 7.766875455288651 7.163834379447978 0 1 0
244 0 1 0 3.2525998660748097 1.0467592113718274 5.8459438923138825 1 -1 0
962 0 2 0 2.4927111707155207 3.982542234653816 4.75961924320342 1 1 0
878 0 2 0 0.7237475129675693 5.326151658720081 3.035845286662928 0 0 0
879 0 2 0 1.1528039060249151 5.938482597336271 4.390875632605493 0 -1 0
2481 0 2 0 1.5149400498943875 16.561744586647166 -0.658847971745725 0 0 1
1261 0 1 0 10.76888033175868 9.809790417905651 2.5221776958518385 0 0 0
1198 0 1 0 -2.5450076453500183 4.615692686839907 15.420458739226623 1 2 0
975 0 2 0 1.9900322849245937 11.119028720002898 9.421900233960066 -2 -2 0
991 0 1 0 5.8906614390693175 -0.5910734600697651 14.544140784334026 0 0 0
769 0 1 0 5.76714971632561 0.3141956013602747 3.366329267271025 -1 -1 0
46 0 1 0 -0.7571382953437056 6.523510500963663 -0.5162983195962336 3 2 0
157 0 1 0 7.084549372770906 9.797305475005244 1.129739686992731 0 2 0
468 0 2 0 0.027025843155845608 17.24717772927347 3.185666390981626 -1 -2 0
1035 0 2 0 6.386460473270326 9.258759284912543 11.306529966462106 -1 -2 0
911 0 2 0 -4.594621385379198 16.684152552225264 2.443871505024578 1 1 0
168 0 2 0 3.9929061506390386 15.949881804155845 6.309375592585306 0 0 0
835 0 1 0 7.693401948487396 1.564220965269076 14.524705575299777 1 0 0
742 0 1 0 0.9782601479429769 20.224434189068837 -0.2690071868215036 -1 -1 0
196 0 1 0 -2.986662737518654 8.513192643113523 14.612725238380083 0 0 0
1019 0 2 0 -1.04531433617644 14.010437439108184 7.597345931664346 2 1 0
66 0 2 0 -4.194810128008585 10.412006297175836 0.9190996019894373 0 -1 0
1172 0 2 0 12.670364933976291 3.4590437077439393 9.959385309765821 -2 0 0
712 0 1 0 5.231713109226599 7.826955943584602 3.382097218920408 -3 -2 0
2557 0 1 0 -5.987234403338777 15.481249725875003 14.730220078486683 0 1 0
760 0 1 0 2.6787613762449616 1.4044658195720068 3.331116912722628 0 1 0
770 0 2 0 5.866627779711461 0.7759267201631801 4.225017394329708 -1 -1 0
337 0 1 0 -0.327695524951923 17.966963817277154 8.02487654555813 -2 -3 0
394 0 1 0 1.8029488443868011 12.875527859590669 0.7400750060712593 1 0 0
229 0 1 0 4.9673919146190855 6.077392707692007 11.233617434302172 -3 -2 0
413 0 2 0 2.8634768990030377 1.9823458118464345 10.542215395614345 0 2 0
1110 0 2 0 -0.4419179716122916 2.9275545220653267 -0.7183504979781495 0 -2 0
1022 0 2 0 9.460388662335346 4.543276187430111 10.363604211874637 -1 -2 0
647 0 2 0 11.181488635525435 4.049113834386964 3.8432635824305557 -2 -2 0
1270 0 1 0 7.700439474833592 9.05342722462309 5.359850393626335 -1 0 0
48 0 2 0 -0.05226663243246174 6.0710435888223415 0.020470402937607046 3 2 0
716 0 2 0 0.6325506758137238 -1.6638711375468662 12.287773550588986 1 0 0
1010 0 2 0 -4.309644204501332 12.36206498110908 7.83942797775822 2 1 0
992 0 2 0 5.517605913860429 -1.0048328323538813 13.746446148063082 0 0 0
734 0 2 0 -2.649404725705573 18.696621643681993 2.5189171921276183 -1 -1 1
348 0 2 0 2.8738685775854056 7.930503412861386 0.07522546973867639 0 1 0
1202 0 2 0 -4.002761582622244 5.533960010149357 14.962822918974043 2 0 0
933 0 2 0 6.931452562424721 -4.394973734551867 12.482374940521497 4 4 0
900 0 2 0 5.132686628737257 1.939126272681218 15.27833046628376 1 0 0
757 0 1 0 8.746798906380237 -0.9009222872565732 9.390406220238596 0 3 0
1284 0 2 0 11.193049639262192 4.199451257706771 5.801713219334945 0 -1 0
1188 0 2 0 6.881435993745115 15.908516066421933 14.387852877911163 -1 1 0
1279 0 1 0 2.829955537982353 6.269726078039848 14.538381472569947 1 0 0
1042 0 1 0 2.5460758451278 4.653200963410627 7.857678399911597 2 3 0
59 0 2 0 -6.038897560047257 17.40324135495531 10.265226552404638 0 0 0
1232 0 2 0 -0.7448822665800331 13.95249858723604 10.961545590390813 1 2 0
1182 0 2 0 6.914661439630161 14.014544248287683 7.351527559398868 0 0 0
178 0 1 0 5.436212552646717 12.026901342392902 1.3030209342572414 1 1 0
562 0 1 0 10.374669115652486 0.14578465820209185 14.076996398406862 -1 -2 0
693 0 2 0 -5.018178712685823 13.445849578485337 10.265092962384589 0 -1 0
135 0 2 0 1.4132176331996602 15.78789550196325 13.819794946400576 1 1 0
155 0 2 0 9.069154561744693 9.786790366392625 13.01302863465568 0 0 0
180 0 2 0 5.7667211048523 12.607473860924802 1.9747495402056119 1 1 0
346 0 1 0 2.5869223642353556 7.1190127238570415 0.5237051771142784 0 2 0
78 0 2 0 13.55350464330586 1.81637033032904 -0.15626048722267472 0 0 0
230 0 2 0 5.891638679566287 6.205610133795492 11.127612544698053 -3 -2 0
281 0 2 0 2.199764621765365 -3.7078129956408974 12.502951501655202 2 1 0
37 0 1 0 5.857245946861516 14.047050234618233 10.422128575423372 -1 -2 0
2221 0 1 0 11.831672170417113 -3.1313892864418453 10.025296997994277 0 1 0
60 0 2 0 -6.330287298242196 16.010451042697234 10.991649547939435 0 0 0
871 0 1 0 -0.055968149706629444 1.5459668031465306 4.0209247519740305 0 -1 0
2367 0 2 0 4.598205104232904 12.698930736615896 -0.20093355778727418 0 0 0
503 0 2 0 9.5494905481311 6.1719095049766315 -0.3962605921842677 1 0 0
1282 0 1 0 10.713812545274328 4.6002576017362955 6.551239600024503 0 -1 0
167 0 2 0 3.5444675567558708 15.933819805606639 7.714581578847982 0 0 0
2365 0 1 0 4.176555061637812 13.398395837368154 -0.6781217843452148 0 0 0
127 0 1 0 5.123503268172619 3.7718672222148135 8.437725488729749 0 0 0
779 0 2 0 -2.13263443636046 6.924438258875209 3.4319663641715206 0 0 0
761 0 2 0 2.776106117760484 0.6705900846397612 2.7036904354752713 0 1 0
659 0 2 0 -5.992533007665304 15.075968872451664 1.3532937523427395 1 1 0
1361 0 2 0 -0.35393356640188733 4.718538266076406 7.7574762702053945 1 -2 0
1195 0 1 0 2.3160567010471835 -1.4329054293075352 6.410848249746535 1 0 0
1448 0 2 0 -3.878898181556866 16.170176466010574 5.221529076147183 0 1 0
347 0 2 0 1.9579283942293606 7.501414921313802 1.136682414691112 0 2 0
1038 0 2 0 14.777337324643048 -3.1947501662780784 12.615704727375197 0 3 0
276 0 2 0 -4.0430318426500405 16.704506904307536 10.053793356392717 1 0 0
603 0 2 0 9.955161334903751 7.608054568732044 7.264370159206029 -1 -1 0
176 0 2 0 0.8264790770179978 9.292324257332147 1.9225106592144874 1 0 0
253 0 1 0 -6.305919410271107 17.88142919751255 8.403323339407986 1 0 0
55 0 1 0 11.425102100505615 -4.022784035331904 12.824542531781661 0 -1 0
76 0 1 0 13.696799589749569 2.7961267085567223 -0.14729185019371216 0 0 0
619 0 1 0 -0.5545921910713953 3.88803866638857 13.477717553487327 0 -1 0
254 0 2 0 -7.270684864588281 17.933943238764464 8.675788706102201 1 0 0
2341 0 1 0 10.546041330460278 9.498069154257104 -0.1662618281629813 0 0 0
827 0 2 0 8.83650305260797 2.532857015792423 10.774288256560304 0 2 0
450 0 2 0 -6.2356182496362775 19.32893669942609 3.0315469195095623 0 -2 0
1459 0 1 0 -1.6103980607429875 9.73592388194963 8.05281055637233 0 1 0
826 0 1 0 9.775673505361638 2.2119683856933707 10.741064704376866 0 2 0
1274 0 2 0 5.605387830151489 17.39552343418612 10.340821904168719 1 1 0
698 0 2 0 4.30079468326944 11.328060473622589 4.306448475087375 -1 -2 0
134 0 2 0 2.222863218216716 14.883248609840352 14.701000868407858 1 1 0
406 0 1 0 5.418452753839659 14.921851713750554 2.1512153722176217 1 -1 0
71 0 2 0 13.162708134777086 -1.397889906300553 13.91045701335391 2 1 0
891 0 2 0 -0.04909486497730803 4.296046422783526 5.320535518996698 -1 -2 0
965 0 2 0 9.256486145088962 11.701406572926189 7.826918863672287 0 -2 0
1254 0 2 0 7.9738843164988635 -0.7206041363807574 6.254908391105205 2 2 0
384 0 2 0 1.0063617145990147 15.870133381047596 4.8927950480449764 -1 -1 0
1186 0 1 0 6.159978480146561 15.990748742802245 13.679210760825937 -1 1 0
497 0 2 0 8.017134071496914 16.292139711048474 2.7576297176765543 0 1 0
358 0 1 0 0.10086106513441756 12.699236537848025 14.982126259952265 1 3 0
198 0 2 0 -3.6517045879218855 7.8087477899310285 14.782557952960811 0 0 0
80 0 2 0 4.8253259857406 6.702884424263871 6.566935201408346 2 2 0
1197 0 2 0 1.4362417421063651 -1.2056979748883034 6.715313804136495 1 0 0
556 0 1 0 -4.427471112722783 13.373698858984511 3.37698493400317 0 -1 0
697 0 1 0 4.8653121502257735 12.014778429265064 4.627519177746747 -1 -2 0
1412 0 2 0 -4.567913547155006 14.700165486209523 14.644832146195599 0 1 0
680 0 2 0 3.979161901540949 13.883809794391064 4.016775578073661 1 0 0
1115 0 2 0 2.293271509269788 12.093804899789799 3.8875746885752376 -1 0 0
2583 0 2 0 6.207982547354765 12.529914129870455 9.452286577520393 0 -2 0
634 0 1 0 7.60524506944223 5.625802519852555 7.771095744066114 -1 0 0
182 0 2 0 5.449603983996406 -2.7485339074551214 8.399825207173265 -1 -1 0
703 0 1 0 -2.5356980080353035 6.858768211814869 6.908280829176379 0 0 0
890 0 2 0 -1.1085341916093838 3.6723428841692636 6.209545515221022 -1 -2 0
1023 0 2 0 9.036621465006503 4.9428541251190765 8.860181366351014 -1 -2 0
945 0 2 0 5.993417277418306 4.98224862194078 4.641063729490823 0 0 0
457 0 1 0 8.923302819179293 11.89573205288004 0.753343115273164 -1 1 0
57 0 2 0 11.665776828557492 -3.9466815953410164 11.855141676773233 0 -1 0
615 0 2 0 0.8997072374453152 2.4878379494385303 6.800144776384594 0 1 0
1095 0 2 0 2.822211661306386 13.330066152558866 12.793968726632935 -1 -1 0
564 0 2 0 11.03372420009761 0.8625749038894774 14.248791183797008 -2 -2 0
370 0 1 0 4.841315356451496 17.676389476758402 0.9615964240721289 2 0 0
248 0 2 0 0.14626031794594213 6.356678305246604 9.876318049091976 0 4 0
1180 0 1 0 6.376056287070098 13.743172292342416 6.561308103212937 0 0 0
763 0 1 0 9.480231017607617 5.283098885080858 12.346970723766345 1 -2 0
2278 0 1 0 -1.1390889870742376 0.6063950950337782 11.535041347538352 1 0 1
920 0 2 0 1.2798513763024206 7.912682045437915 5.38631456639729 0 1 0
397 0 1 0 8.939897076237468 -1.628800129650891 4.835073819875387 3 0 0
795 0 2 0 3.3212702678103825 12.134771042773496 7.008625067985849 1 0 0
729 0 2 0 8.354907358101276 -2.162669377739473 14.849041570512798 0 -1 0
65 0 2 0 -3.1950975641791857 10.52024951127492 2.078260173690439 0 -1 0
987 0 2 0 -2.56219345693824 3.2482573053594264 11.065296567079416 2 0 0
794 0 2 0 3.7881236390113235 11.891669269989052 8.412020232692122 1 0 0
918 0 2 0 8.975935231336134 0.1610014500371202 3.998861006369821 -1 1 0
148 0 1 0 -0.8453301184907922 13.292778274091285 3.180837029938412 0 0 0
2329 0 1 0 3.520916317479418 10.261282214477927 2.528368839479179 1 0 0
2343 0 2 0 10.491694684468358 9.819126034283533 0.759257807025864 0 0 0
1665 0 2 0 6.790651295994341 16.121218548768354 8.714413271669244 1 2 0
309 0 2 0 1.9872456241250385 7.4915255104713285 9.183060134068748 2 1 1
648 0 2 0 12.679546133137494 4.278567853309183 3.6924284731691754 -2 -2 0
133 0 1 0 1.302428310909225 15.2218984574783 14.64014484346788 1 1 0
1002 0 2 0 7.029100008508955 2.607667998475715 5.603206917216958 0 -2 0
1231 0 1 0 -0.14014443677446708 14.358835739895662 11.558001667489378 1 2 0
181 0 1 0 5.1305035094402625 -1.8976086791251605 7.934545163279125 -1 -1 0
1046 0 2 0 8.41118666499406 6.472773426326029 11.473849911512133 -1 1 0
914 0 2 0 5.1721396843397915 11.408343348486554 12.887820314164403 0 1 0
249 0 2 0 0.11721840290885321 7.654565916521415 10.683834927160847 0 4 0
1121 0 2 0 9.40399982669736 9.031773551170732 15.055825670452775 -1 -1 0
726 0 2 0 1.031536089404454 5.821469330866623 11.799468409308936 1 2 0
775 0 1 0 7.848749028939466 7.812182403042182 2.503379661218169 1 -2 0
1033 0 1 0 5.789082600644473 9.601059217397173 10.625997509312581 -1 -1 0
242 0 2 0 -2.7811043465411966 12.184985878491716 10.220731714731961 -3 -2 0
841 0 1 0 2.4378498564568694 0.36935836277127887 14.267573186618982 1 1 0
944 0 2 0 4.673495152589787 4.282369676495099 4.715875276783233 0 0 0
129 0 2 0 4.861227690041567 3.017434202754962 7.931097555996047 0 0 0
1262 0 2 0 10.085951976049817 10.285695225000817 3.020091460420548 0 0 0
329 0 2 0 5.305200145231605 18.960207677363176 4.01286706508569 -1 -1 0
1000 0 1 0 7.982836145271813 2.8987870010099863 5.400198959304401 0 -2 0
328 0 1 0 5.917407038050828 18.252517008566223 4.261978676463962 -1 -1 0
170 0 2 0 11.654951935467265 5.909079441822462 0.8445259264068359 0 1 0
169 0 1 0 12.394134428136569 5.3407519557761125 0.7874200410764494 0 1 0
1032 0 2 0 8.547032332579876 0.6311762938909988 1.9090038499986615 -2 0 0
383 0 2 0 1.9405175093221854 15.785458766132024 6.117405768784529 -1 -1 0
921 0 2 0 2.002901863972398 8.019976175223091 3.9486073640580788 0 1 0
1160 0 2 0 1.3283622814456164 -2.69687368635432 14.538742474088325 2 0 0
35 0 2 0 3.406137598727168 3.8216843612167883 1.106653430160477 1 2 0
778 0 1 0 -1.4504088016839278 7.096545304910801 2.8039981405508687 0 0 0
421 0 1 0 2.518567142466217 18.955771255621535 1.7820861324976272 -3 -3 0
1224 0 2 0 -1.4348657062503691 10.242634237188701 3.5493991626537484 2 0 0
61 0 1 0 3.831979767018809 14.334404353724029 13.723610047776516 1 1 0
62 0 2 0 4.363018611795309 15.132297199064912 13.545592605054082 1 1 0
674 0 2 0 12.641474166287077 0.35554366189665787 1.0339847448411132 1 5 0
64 0 1 0 -4.01756694965364 10.901254852715219 1.794618858078985 0 -1 0
305 0 2 0 6.139198328679048 10.967922585535131 7.566962388526196 1 1 0
96 0 2 0 10.681217421560499 0.5607639740170365 7.726212489000769 -1 -2 0
555 0 2 0 -6.111010857360885 20.391618037209337 1.0019471863612575 2 2 0
733 0 1 0 -1.7168593278746889 18.835228845042252 2.5688372862351367 -1 -1 0
243 0 2 0 -2.544356276248506 13.257088532583225 9.054766477786282 -3 -2 0
2582 0 2 0 6.470557215633362 11.026686037557532 9.739976331099417 0 -1 1
2403 0 2 0 -5.505428882614 15.104440048653947 6.971162347050216 1 0 0
396 0 2 0 2.5576444859053447 12.7975156762366 0.11696347612524283 1 0 0
1489 0 1 0 0.35600287535356545 10.644919829816454 1.1235179302448426 0 -1 0
540 0 2 0 -2.764848046301429 13.441568912025819 0.7142763306078679 0 -2 0
86 0 2 0 2.4535400786493344 14.946819599191404 9.416409906586749 0 -1 0
2444 0 2 0 8.5981074997601 10.189208941075838 4.483987071478491 0 1 0
1268 0 2 0 4.082248193045798 -2.6511010266546506 12.918051735660352 2 2 0
1024 0 1 0 13.090230072428437 -1.3928379370650736 4.268546965637087 0 0 0
392 0 2 0 6.165657165165895 0.8374762315143616 6.638837734235664 1 2 0
691 0 1 0 -5.295787054163088 13.050245414122493 9.427813861364648 0 -1 0
939 0 2 0 9.489474756472392 9.136893174606769 9.082327949869509 -1 -2 0
2475 0 2 0 9.60873054717762 -2.6183709247091667 13.032373356019828 0 2 0
87 0 2 0 2.886293086866953 13.75968368747192 8.641403331852938 0 -1 0
363 0 2 0 6.299379458462579 12.533507442696548 4.016966427408106 -1 -3 0
258 0 2 0 -0.16920068014319195 11.251412910992928 13.51149955439644 -1 1 0
2222 0 2 0 1.856973145145631 17.658204234541266 10.033878496964592 0 0 1
1227 0 2 0 6.175941866145136 3.442559691583203 9.956906560894765 -1 -2 0
326 0 2 0 5.605232473676457 0.9780748398078872 -0.16826855482173642 1 2 0
764 0 2 0 8.653581826238465 4.868943273749444 12.708552788127845 1 -2 0
2 0 2 0 8.083896213002292 13.219473739164814 6.0614405795478286 0 0 0
1296 0 2 0 5.246254283610951 7.945125678323391 14.623611418821561 1 0 0
1072 0 1 0 -0.7598088811327498 6.937696299505891 13.903696461126534 -1 1 0
330 0 2 0 6.278044211980814 18.003421291756908 3.411473782395907 -1 -1 0
1461 0 2 0 -2.1972357867481076 9.791813592007903 8.834360556774913 0 1 0
241 0 1 0 -2.149886686939612 12.921143624276636 9.8938743361832 -3 -2 0
1177 0 1 0 5.002631473777432 15.5448752392447 4.973548119672252 1 0 0
186 0 2 0 -7.997407496499585 19.902391866495723 0.03786474924402594 -1 -1 0
1031 0 2 0 7.400323988830659 0.183959700676948 0.8878585604449032 -2 0 0
274 0 1 0 -3.221636945220397 16.85199690115029 9.503574209512962 1 0 0
889 0 1 0 -0.18680684383494162 3.6799257850482725 6.038358182680332 -1 -2 0
660 0 2 0 -6.926877757549378 16.17085438254772 1.9508451378163514 1 1 0
1278 0 2 0 6.3553465772170785 4.259214890708843 13.624733891705747 0 1 0
916 0 1 0 9.344735709266994 1.0179992839392302 3.718613312716945 -1 1 0
95 0 2 0 11.721113436421135 0.17159656333899465 8.851332653525896 -1 -2 0
1114 0 1 0 1.4306206732870201 11.664117725642747 3.881627302444759 -1 0 0
1269 0 2 0 4.4925543079331325 -1.7663384019374666 11.773789527266553 2 2 0
5 0 2 0 -1.5379091628546857 17.62746862769054 6.769099775429886 -2 -1 0
2257 0 1 0 11.540850947776535 1.3066320469386143 2.326774543473782 0 0 0
780 0 2 0 -1.7541243347132536 6.720276122128311 1.9814702723941036 1 0 0
649 0 1 0 -2.825890567984276 11.445333287533932 13.325732289845595 2 1 0
68 0 2 0 5.582320592741797 20.51751799314297 0.9352794341744304 -1 -2 0
412 0 1 0 2.3770705823221703 1.3492591789048394 9.958450301482022 0 2 0
930 0 2 0 12.771001415635007 1.4256112163300634 3.7347865369022752 0 0 0
1147 0 1 0 6.513909546463823 2.7774449242029293 2.2913356305904786 0 -2 0
1074 0 2 0 -0.31271351448178303 6.567209939482757 14.715304682416614 -1 1 0
635 0 2 0 7.133131681481727 6.3404575507570655 8.163258176323232 -1 0 0
910 0 1 0 -3.927348841014852 17.201763262719354 2.8581960989276776 1 1 0
758 0 2 0 8.655280436695383 -0.4909095780525643 10.281538646645556 0 3 0
407 0 2 0 5.460243507166927 15.841204617676516 1.9133911588611796 0 -1 0
1491 0 2 0 0.6520932976697656 11.553422687252498 0.8880910387556629 0 -1 0
717 0 2 0 1.7137867171349772 -0.8804798431353174 11.515364806110709 1 0 0
402 0 2 0 -4.595962808647638 10.538717689219899 9.955019526304499 3 1 0
391 0 1 0 5.813856751801119 1.7052430821242193 6.342921849026212 1 2 0
408 0 2 0 4.4688002334919394 14.800268095075918 2.2766150208266955 0 -1 0
441 0 2 0 0.6567881678729146 1.0501229311790423 14.593718106946273 3 1 0
1009 0 1 0 -4.487906695362766 12.115729268742651 6.8993274268796325 2 1 0
558 0 2 0 -5.054243471992304 13.410999165904474 2.6782661606463667 0 -1 0
943 0 1 0 5.401767275035439 4.493762230438093 4.05037982604753 0 0 0
658 0 1 0 -6.014687097858768 15.873275580953967 1.9158757939123272 1 1 0
1025 0 2 0 13.29416889060227 -0.4352979414989677 4.213628562520359 0 0 0
1026 0 2 0 12.392156386390216 -1.5626947754739828 4.931688287488067 0 0 0
520 0 1 0 -0.4395762638284502 9.45088958033963 10.45538510821985 2 0 0
69 0 2 0 5.975683700220347 19.137226439006376 1.0981323642704102 -1 -2 0
401 0 2 0 -3.42599650432537 9.892821001404702 10.704065049728035 3 1 0
496 0 1 0 7.6731159234765665 17.072160983180186 2.259206907115994 0 1 0
640 0 1 0 5.691787656109929 18.541768305327217 7.121550754369419 2 0 0
1485 0 2 0 6.724963267606177 6.816628795356967 13.221322362701587 -1 -3 0
759 0 2 0 9.691046771213797 -0.928094591279907 9.197106265940745 0 3 0
1116 0 2 0 1.478778342760337 11.111928997864714 3.0812451898380155 -1 0 0
1149 0 2 0 6.396887351469727 1.823999187140821 2.4116936586619486 0 -2 0
422 0 2 0 2.6779506941510443 19.616141796002275 2.5111789820195356 -3 -3 0