LAMMPS data file via write_data, version 23 Jun 2022, timestep = 121067000

2592 atoms
2 atom types

0 30.933001 xlo xhi
0 21.326696 ylo yhi
-0.7748267634926584 31.73205971472975 zlo zhi
-9.140633 0.9868517482270607 -10.81461648408579 xy xz yz

Masses

1 1.008
2 15.999

Atoms # full

2314 0 1 0 5.42386587408865 4.0832272943404355 9.187817653914259 2 2 1
1271 0 2 0 7.247619127772406 10.075219989509716 11.707583523159837 -1 -1 0
2329 0 1 0 9.505963155808935 11.980361764540218 0.9973534905303583 1 0 0
70 0 1 0 13.664395702795158 -1.6093156519640952 14.539893167595046 2 1 0
724 0 1 0 -1.9484331157046455 6.641916417138315 5.350854537916072 1 2 0
1555 0 1 0 -3.0026133741896506 15.712403309483854 7.273549443847752 0 -1 0
779 0 2 0 -2.5337886461523147 13.858648578629666 13.312561502599875 0 0 0
1228 0 1 0 -0.5013436994890339 0.24969635685687486 6.459639948404878 1 2 0
708 0 2 0 -6.587725620517927 20.907165839382444 -0.6854802670305817 1 0 0
1263 0 2 0 2.092501714764477 -3.420599863545683 10.09060575121914 0 0 0
743 0 2 0 0.016783498786797774 18.745840140552694 -0.13553063403397536 -1 -1 0
1260 0 2 0 12.145352464027878 2.7598027767828395 0.6139432200033699 0 1 0
1273 0 1 0 13.2598271500292 -0.14424487659546115 4.583827211472876 1 2 0
20 0 2 0 13.50703044869797 -1.5864501016046215 8.489099490610185 2 2 0
790 0 1 0 10.38289864426417 4.898794909809345 9.77664584086833 -1 -2 0
1232 0 2 0 2.185892262492035 -1.1671329410186138 13.437649380344553 1 2 0
255 0 2 0 3.8946717859694546 19.73942726353025 -0.2611276691894019 0 0 0
177 0 2 0 1.5871330395755865 -1.6056703849696528 4.1794298558457905 1 0 0
863 0 2 0 -5.5868810267899445 13.672143519842553 2.658986796521959 2 1 0
2316 0 2 0 5.993291751526734 4.584137632742749 8.600240975680764 2 2 1
915 0 2 0 2.3057992625385957 10.78639074100874 11.904509555008921 0 1 0
168 0 2 0 0.8057080409296157 10.282027009262903 1.2762956958555742 0 0 0
1020 0 2 0 -0.4250529048663274 14.412632596518565 7.013685577474393 2 1 0
912 0 2 0 -3.820240112523953 19.56948992398761 -0.5597099764595048 2 1 0
1168 0 1 0 1.4328912394057935 -1.5966371347595885 9.383561040901427 0 1 0
1179 0 2 0 0.7319506463384926 1.0706187238624945 7.71194210174513 1 0 0
879 0 2 0 1.8704967134184955 3.46093430139039 6.858947437027632 0 -1 0
470 0 2 0 11.610694351996607 1.7619665235068735 12.13904993910543 -2 -1 0
428 0 2 0 6.046321780065298 16.771830682321315 9.252074933388242 1 1 0
910 0 1 0 -3.322951572976551 20.096314125697447 0.13686452353747358 2 1 0
63 0 2 0 3.2137036085826796 13.692303627744861 14.7399907023128 1 1 0
429 0 2 0 4.671870910217819 16.364984237590736 8.72904908174597 1 1 0
1217 0 2 0 -0.0890054039466587 16.210521710000165 1.282412473829523 0 -1 0
501 0 2 0 -0.44116914510094274 10.99012604126245 7.782493331398193 3 2 0
355 0 1 0 5.021589486497392 3.595143779439387 15.277771171059541 1 0 0
610 0 1 0 7.059321516856928 -1.8580713227725199 8.5563704770333 0 -1 0
53 0 2 0 7.471296345017763 5.754285204303555 9.971629894021811 1 -1 0
716 0 2 0 4.93979193488492 13.844380745715192 3.6743561306586887 1 -1 0
808 0 1 0 2.0517207531672415 -4.151888535035261 12.937676657110329 -1 -1 0
167 0 2 0 0.48842310690720636 9.288715748842327 2.3982042536220853 0 0 0
714 0 2 0 0.22362707878232968 6.999675016550723 2.9504382133776677 -2 -1 0
406 0 1 0 -3.7195549735816806 17.709730355397237 9.650445860037745 1 -2 0
94 0 1 0 -1.045561698452209 3.212428517269752 6.71875670318265 0 -2 0
999 0 2 0 11.633484683573512 -2.1569119069414975 11.712082548470356 -2 -1 0
304 0 1 0 14.893838661213271 -2.067852111881649 7.298881674981709 0 1 0
257 0 2 0 -0.6215778019531053 9.555392625488633 13.837795472690438 0 1 0
69 0 2 0 1.283385767980476 3.1875956926153144 11.828777809756502 0 0 0
982 0 1 0 6.076119119378079 8.303252246305242 7.607230696374028 0 2 0
1045 0 1 0 6.3473611522959485 11.453708625683923 12.4592550630812 -1 1 0
21 0 2 0 12.73071779136102 -1.2375170591625135 9.68811393752677 2 2 0
67 0 1 0 1.093203712279797 3.92128699353516 11.25719750157683 0 0 0
95 0 2 0 -0.5561322857027522 3.894815908693492 6.2085067608636235 0 -2 0
1663 0 1 0 -1.6433769796022164 16.23532829241117 4.266086154253506 1 1 0
225 0 2 0 -1.0216173398123216 -0.6351107722274278 14.783256295055919 2 2 0
441 0 2 0 4.658627857610946 -0.8503136612123132 12.879420281058737 3 1 0
1121 0 2 0 9.112533236708236 7.7474837652773285 15.116008000915551 -1 -1 0
18 0 2 0 6.479612887576347 10.248856654758555 1.0108535893891115 1 -1 0
65 0 2 0 0.9018978414319363 13.800017872742384 8.49612686126927 0 -1 0
587 0 2 0 5.811770474499137 8.023712815695921 11.323451696924455 1 2 0
2473 0 1 0 6.137587894334154 6.856172441361039 5.390581207734411 0 1 0
2451 0 2 0 -3.3398461909276937 13.414014103221946 -0.48108317038141807 0 0 1
650 0 2 0 2.267396013894981 6.935479769563798 12.99764869434315 2 1 0
400 0 1 0 -3.0843927538184417 14.944388932048591 10.172503706205527 3 1 0
397 0 1 0 12.089289477769091 0.12047861273474947 12.99544585185516 2 -1 0
855 0 2 0 3.477586108315355 12.598052609756333 12.857138114918682 1 0 0
799 0 1 0 1.875780817636999 4.456832179878391 3.3926760455684137 0 0 0
837 0 2 0 8.307599823444287 -0.029867892695407683 14.330491359949981 1 0 0
939 0 2 0 -6.258871558185864 17.757787283715867 0.7847164762659775 0 -1 0
4 0 1 0 -4.559317956786166 17.880693252872515 6.7414988079139535 -2 -1 0
1593 0 2 0 10.36349945984158 4.885106688742605 13.581893172448618 1 0 0
945 0 2 0 -4.411715698211746 9.4915685153732 11.844985849871312 0 -1 0
1484 0 2 0 7.744739131410634 6.348134586082324 13.893950188011038 -1 -3 0
778 0 1 0 -1.6619583616845663 14.304437472154362 13.35426512530294 0 0 0
541 0 1 0 4.469649152794584 -2.786805917804558 12.324479430980036 0 -1 0
402 0 2 0 -3.312221918765055 15.777248057657971 9.719281582885486 3 1 0
474 0 2 0 6.681156186542035 1.8191794189999457 -0.22084137993458164 -1 -2 0
99 0 2 0 1.091604887488692 10.310244168714972 9.6137710196271 1 -1 0
1664 0 2 0 -2.5322507965360526 16.45162995593326 4.057743756042041 1 1 0
1018 0 1 0 -0.13594463252758665 14.437180385656914 6.072109145793221 2 1 0
2342 0 2 0 7.765751472998055 8.243201196089885 -0.550593075140358 0 0 0
545 0 2 0 3.173864927754202 7.642446275391057 8.796981335137891 -1 -1 0
235 0 1 0 10.583227721054092 9.270286998750656 2.371353226314995 -1 0 0
2445 0 2 0 2.61718640465089 6.672878775341818 0.31220775921300836 0 1 1
812 0 2 0 8.675791345343864 -2.081399556902375 12.938683326248237 1 0 0
215 0 2 0 3.994303407575426 0.9638827970463866 8.840977320165406 0 -1 0
232 0 1 0 10.395917467388735 2.948442224545226 4.9097301462558045 1 2 0
1556 0 2 0 -2.8179973433706307 15.003389763207158 6.637658879619145 0 -1 0
671 0 2 0 -2.620320328627986 14.457435422560662 2.3608207932369156 1 1 0
59 0 2 0 9.12600577659156 8.582830725385122 5.023281971018826 0 1 0
976 0 1 0 7.1245762377318815 13.679390329890278 11.019723861187963 -2 -1 0
1276 0 1 0 9.157332012182266 4.124370537252455 12.566502268000656 0 1 0
388 0 1 0 2.9758938397198564 5.030400172464159 9.750117515501934 0 3 0
696 0 2 0 0.18835051158223204 1.5015582966726493 11.417171976129808 0 1 0
991 0 1 0 6.05238485968932 -2.413721484415796 14.527033338176077 0 0 0
1238 0 2 0 6.406135184612271 15.611472157906054 5.681138489732633 1 3 0
142 0 1 0 4.552028477994409 9.7520370452492 13.498640463217384 -1 -1 0
944 0 2 0 -4.391404405080004 8.141029275720346 11.202341341470325 0 -1 0
254 0 2 0 4.845993271053721 20.952705211638175 -0.2392612281249692 0 0 0
951 0 2 0 -2.238850420332784 9.654190696705774 4.7421628730903995 2 0 0
1162 0 1 0 1.1997116776929262 10.840721426565114 5.600094043540816 0 0 0
241 0 1 0 11.108745352095674 0.8253444485755801 9.20080577789119 -3 -1 0
530 0 2 0 4.044335257107238 1.475068073035665 12.018314812987553 -3 -2 0
420 0 2 0 10.269701552799944 -0.28528958070366706 6.164558257316667 0 -2 0
1278 0 2 0 8.640988119272594 4.637724740638496 11.965446783332808 0 1 0
393 0 2 0 0.5562521215341093 14.045059701397456 10.999032449426323 1 2 0
196 0 1 0 -3.383938668448167 7.019904698520165 14.777868907774645 0 0 0
764 0 2 0 -1.5907642027768913 14.16741948653808 9.095761716690905 1 -2 0
734 0 2 0 0.2839227149448006 8.972003531512987 4.428434971607135 -1 0 1
664 0 1 0 3.4738284158181294 -0.4271064868836394 6.599956115917207 0 1 0
1296 0 2 0 5.101425987194018 8.178162057894443 14.362527104687965 1 0 0
237 0 2 0 10.693931065979982 9.137177839183972 1.4258491226446428 -1 0 0
1449 0 2 0 3.9171080011023567 6.94417763486496 4.626130126726122 0 2 0
760 0 1 0 -5.158134209645993 12.272697877503568 12.353120938712065 0 0 0
1110 0 2 0 7.858408850393902 8.711124106815193 1.6783210077720527 0 -2 0
269 0 2 0 3.508098148082605 8.631963445908902 2.9410072792888435 1 0 0
637 0 1 0 2.9709596015113298 17.023338925889757 8.925964796060265 1 0 0
1165 0 1 0 6.832731837302774 4.5157688705042665 3.7052858413421 0 0 0
260 0 2 0 -1.3925088231127993 10.213144517540071 1.4652124551654113 0 -3 0
947 0 2 0 7.605415736380039 10.54271145694542 8.500916745463105 2 1 0
822 0 2 0 -1.01585263671861 5.988697386597522 9.322305581921041 -1 0 0
817 0 1 0 7.469455691894773 0.13746289455868022 10.383110016033838 -1 2 0
1204 0 1 0 -5.927297407399271 15.031377122999016 3.6216399763420872 1 0 0
1275 0 2 0 14.082312057081786 0.2804479526733985 4.522239890076124 1 2 0
913 0 1 0 1.79610076213283 10.009778106755775 11.647078304836691 0 1 0
1114 0 1 0 9.312734893858947 10.180903254457535 9.08169516974415 -1 0 0
480 0 2 0 -2.3773942489357136 11.836170947036301 9.867750667064161 0 -1 0
1214 0 2 0 -0.5582135938272722 17.523014354859853 5.1080002076905355 1 -1 0
1019 0 2 0 -0.6139557117326949 15.158266871744184 5.630777926352087 2 1 0
2223 0 2 0 10.958497239263167 -4.23267447439646 12.802976574076743 0 1 0
695 0 2 0 -0.7280331470072536 0.31556508095276703 11.111766120185344 0 1 0
1186 0 1 0 6.059521803712321 14.705930341116158 13.301426898246026 -1 1 0
1270 0 1 0 7.380530167176553 9.169441800533242 11.365029772885455 -1 -1 0
713 0 2 0 -0.2781837656049456 5.570787350585798 2.4122100507305313 -2 -1 0
1003 0 1 0 -1.7399562043210923 8.717470222824812 10.873576454116522 -2 1 0
1105 0 1 0 10.593602059867326 8.71645718961182 -0.32134606087118006 0 0 0
161 0 2 0 6.517802393856255 7.451879864457302 3.7421652280887896 1 2 0
82 0 1 0 0.22030518344399166 5.017316901307161 5.5214088021754915 1 1 0
503 0 2 0 9.040188408227966 1.5315307179948934 2.8200191649434947 1 0 0
251 0 2 0 3.5732310796442204 13.44204107245616 7.1684050754505275 0 0 0
478 0 1 0 -1.6121392334663753 11.45262935520792 10.338162872353909 0 -1 0
19 0 1 0 12.62507998538215 -1.5716675684158206 8.830190472007718 2 2 0
60 0 2 0 9.72661864996744 9.565450977835752 3.9411320472447624 0 1 0
270 0 2 0 3.267081865826169 10.177806956727833 2.8897560417773267 1 0 0
418 0 1 0 9.605044067139666 0.414382949571388 6.195251042979625 0 -2 0
586 0 1 0 4.9118244345021616 7.7759172114481 11.397402033822015 1 2 0
1151 0 2 0 6.862009554575946 2.979359823057539 11.788391181501716 0 0 0
204 0 2 0 7.771348965446343 3.221888133894642 13.558768918366471 -1 1 0
712 0 1 0 0.04903434313842554 6.4542403193166615 2.161807092509238 -2 -1 0
2443 0 1 0 2.532181929432758 5.730198805167087 0.6075633846169977 0 1 1
1241 0 2 0 8.119936262346574 8.04306680364687 12.668957841331835 1 -1 0
924 0 2 0 5.789529315091033 13.680446132533259 7.92576200454849 0 -2 0
1061 0 2 0 -0.8546436459314519 12.865487630096078 4.891029031408778 2 -1 0
184 0 1 0 -7.002407410490027 19.291896274968515 -0.1330552064441951 -1 -1 0
946 0 1 0 6.743341200896626 10.769004472709028 8.107697303924562 2 1 0
57 0 2 0 13.535600223257887 -3.9523055194524113 11.815135157637137 0 -1 0
125 0 2 0 6.9267072274934085 13.414352372669484 2.860519962716741 1 1 0
950 0 2 0 -1.1164517415174864 9.876757519780138 5.782420051053759 2 0 0
259 0 1 0 -2.3732800266657827 10.214415277889508 1.4523832053235313 0 -3 0
2365 0 1 0 3.7587325217329433 12.176033809285089 -0.6003208439124257 0 0 0
1074 0 2 0 -0.4307980638015587 5.477037521597587 14.945094420314394 -1 1 0
1218 0 2 0 0.5945090862032565 15.410165801209509 2.383684619430772 0 -1 0
56 0 2 0 5.401092345801203 16.30595728704755 12.460337162030571 0 -2 0
1206 0 2 0 -6.497998382549562 14.76072017210058 4.346911782837118 1 0 1
454 0 1 0 1.8800287115753807 7.02388782323974 11.158024131371164 1 1 0
805 0 1 0 3.0954087266979857 9.195806260867789 6.598993549344708 1 0 0
889 0 1 0 6.91638279769112 2.4140108727442837 6.953857848042023 -1 -2 0
1188 0 2 0 5.3403690193666185 14.2702316159513 13.760246045432485 -1 1 0
34 0 1 0 7.006957100297547 12.931174227044352 0.25915733008414255 1 2 0
2450 0 2 0 -3.2537185398261355 14.87515996633768 -0.1941549778365349 0 0 0
529 0 1 0 3.7205079042750935 2.2799590732592296 11.526675077473849 -3 -2 0
1277 0 2 0 9.742900694362389 3.5683823557418854 12.010521389894702 0 1 0
318 0 2 0 6.504406893699878 9.42499200149075 3.3990212328767386 2 0 0
894 0 2 0 -6.515954948932797 13.532612187826118 8.750773125998089 1 0 0
1280 0 2 0 3.4119652946330516 3.7825809544166376 14.539523830846832 1 0 0
694 0 1 0 -0.3134686597599889 1.0511768054182515 10.663542616138216 0 1 0
390 0 2 0 2.6171561331758593 4.767596161822209 8.850193693052804 0 3 0
864 0 2 0 -4.60431542403504 12.887739806899958 1.7825942235788212 2 1 0
360 0 2 0 0.9544526035161978 11.578946511633072 14.79736934650742 1 3 0
421 0 1 0 8.526408297249821 3.9590150459733984 1.4966658120813863 -2 -2 0
1377 0 2 0 -4.5200049278119625 17.728586865048715 3.4920780031130834 0 -1 0
408 0 2 0 5.924539092687032 -2.875262985182049 9.42256867994941 0 -1 0
831 0 2 0 9.994614556932207 -2.5915378235209308 9.732584530870334 1 1 0
91 0 1 0 5.496351655317508 1.2661854346240047 2.9050328247256547 1 1 0
2444 0 2 0 1.7264100615534101 5.779730646824305 1.1616612735878509 0 1 0
1447 0 1 0 3.3411882308333363 7.028392388593355 3.8189127005540406 0 2 0
1181 0 2 0 2.504281254442963 8.769712386216465 -0.6928481315830209 0 0 0
410 0 2 0 -1.4073616589588422 13.119757442329059 0.979144862345197 1 -1 0
1205 0 2 0 -5.275314506386508 15.690460214116605 3.971547199312419 1 0 0
311 0 2 0 1.3005926683624214 3.253786048181932 0.7384545573838734 -1 2 0
2511 0 2 0 1.4069446788911832 16.915120891295302 6.059245746834944 0 0 0
524 0 2 0 -0.05171157766477452 6.1807386746183255 11.658100038330943 1 1 0
1049 0 2 0 7.790802320117431 14.991920292165723 3.651753635179251 1 0 0
969 0 2 0 11.609891889602467 -2.1649348342033234 7.093738451452415 0 1 0
835 0 1 0 7.47274867721379 0.27957128579922585 14.726421777505085 1 0 0
5 0 2 0 -3.828208756059485 17.211908506656666 6.868753592488219 -2 -1 0
1167 0 2 0 6.00608165742359 4.766622161646095 3.213889109033777 0 0 0
141 0 2 0 9.054778444615314 6.3193554155318115 6.074538978339452 0 0 0
238 0 1 0 0.4520234391379413 19.381368233524295 3.1093642904568775 0 -1 0
1240 0 1 0 8.58386406118781 7.575506708139842 13.373057242595351 1 -1 0
1180 0 1 0 3.1533976426443777 8.252901726753635 -0.14566041380734684 0 0 0
973 0 1 0 13.203048993795946 0.675129421301774 7.035319271652929 -2 -1 0
731 0 2 0 4.292530658884156 3.5817738852161067 4.617691869758679 -2 -2 0
1077 0 2 0 4.021688552813045 16.717300743291574 1.3900007918042094 0 -1 0
52 0 1 0 7.531472357369979 5.811878702753198 10.92357870971077 1 -1 0
1279 0 1 0 2.4826155480338685 3.7208764874227827 14.184337123292485 1 0 0
55 0 1 0 5.21683394532431 16.874978815514226 11.677167975472658 0 -2 0
1035 0 2 0 5.5415103540066815 3.7776512733139986 6.44089189722415 0 -1 0
562 0 1 0 9.779567871619417 -1.1253415651387204 13.99886609088117 -1 -2 0
791 0 2 0 11.173321715472824 4.302979683978393 9.7701459223445 -1 -2 0
135 0 2 0 1.4207082769488504 15.111587190688574 13.992378478946716 1 1 0
28 0 1 0 -1.4718555466876415 18.505960311673242 0.9682526553074864 1 0 0
800 0 2 0 1.2183595357828334 4.304160073008106 2.676640070015644 0 0 0
730 0 1 0 3.8233058019712827 3.029903699080419 3.9618503604036412 -2 -2 0
725 0 2 0 -2.6363905418190408 6.623787155850582 4.648848138646402 1 2 0
399 0 2 0 12.753276018960177 0.06269139428038706 12.280828402221333 2 -1 0
220 0 1 0 9.977941709098026 6.614191952765463 3.1062733777751768 2 0 0
1042 0 1 0 2.2504141577198253 -0.6925135996057592 11.70983006321878 2 3 0
2221 0 1 0 1.0213837375065042 16.696480042863996 13.071248412280942 0 0 0
1033 0 1 0 4.942017691056577 4.455954593940632 6.115789922989515 0 0 0
316 0 1 0 6.805295281796299 10.287696834813177 3.7332495443092357 2 0 0
2403 0 2 0 -4.744331407128948 15.213001047726774 8.080319275876793 1 0 0
146 0 2 0 4.085397401586203 4.908482910531428 1.1912531562513158 0 0 0
353 0 2 0 3.4935305033431217 -0.532337810395036 10.327155034794602 1 2 0
198 0 2 0 -4.073040423857689 6.388005674370324 14.536498178551756 0 0 0
1075 0 1 0 4.8628603214415245 16.287877726731686 1.7384120647260586 0 -1 0
1231 0 1 0 2.0227590192629843 -0.982127937649536 14.388235037472286 1 2 0
349 0 1 0 1.3100888854518287 14.136533566957494 3.4387774775924536 0 -1 0
1109 0 2 0 8.845323113339262 9.702862954275417 1.0448244623501088 0 -2 0
870 0 2 0 3.9696870867444405 15.055917266513994 10.793839163731135 1 -2 0
252 0 2 0 4.303606005320262 13.946265988638542 5.8269653208040655 0 0 0
423 0 2 0 7.95896327402708 3.919064578561834 0.7579423572474302 -2 -2 0
1294 0 1 0 5.011682121751875 7.327333881285307 14.83314742407316 1 0 0
162 0 2 0 6.067689134508421 7.637889431464396 2.243800435467198 1 2 0
272 0 2 0 4.184241565886236 19.60959248706738 4.043352533999383 1 1 1
276 0 2 0 1.6176483337359198 16.03767893836371 10.022416880833397 1 0 0
1242 0 2 0 9.339414535525524 7.28012278228137 12.875871429877206 1 -1 0
621 0 2 0 -2.6926087042919256 16.400160699427985 11.442675489918734 0 -1 0
1212 0 2 0 -4.353258632536381 10.288759213581697 4.268364801904521 1 1 0
1048 0 1 0 8.234434625093543 14.58177443941342 2.8969354644245886 1 0 0
389 0 2 0 3.941408201228917 4.806448662348972 9.665305383537826 0 3 0
705 0 2 0 9.701639528617262 1.7326068179811935 8.98886240688875 0 1 0
246 0 2 0 -4.198834486584632 12.910488148141571 5.914918778726169 2 -1 0
374 0 2 0 -1.247540469584996 14.609746156760384 15.14410349627009 0 -1 0
1128 0 2 0 -1.8462456307973256 11.532917578441083 12.071544881026805 1 -1 1
970 0 1 0 -1.0696379137937402 4.921646724537781 -0.4392351659866994 1 2 0
538 0 1 0 5.068154840783616 11.717073043881982 9.930393279913387 0 -2 0
937 0 1 0 -5.7023089064414805 17.46150094871334 1.4967640537908617 0 -1 0
2487 0 2 0 4.807084498427237 15.07133057292092 -0.30730714530873293 0 0 1
820 0 1 0 -1.1155056350524826 6.92103136191622 8.97215293643482 -1 0 0
1047 0 2 0 6.767865302414152 12.209230677023612 12.894680380675828 -1 1 0
471 0 2 0 12.274220716940093 3.1640526056999745 11.951119021387532 -2 -1 0
233 0 2 0 10.355431528186873 2.6803210782209064 3.986448602386657 1 2 0
309 0 2 0 2.069686572937542 18.03621329398182 0.7751729993541541 2 1 1
489 0 2 0 2.9384139233012023 1.6317015877543408 0.23145033174036245 -2 1 0
195 0 2 0 7.987619347402929 -1.5666643431305751 4.14668309585073 1 1 0
223 0 1 0 -0.3135176120424086 0.0001525397794299721 14.722816416129232 2 2 0
165 0 2 0 -5.238960987466951 19.653242721398943 2.8974078709498032 3 2 0
646 0 1 0 -0.8524301228424177 16.910502745169005 8.201721732376267 -1 -2 0
563 0 2 0 10.522259203192768 -0.5754266792496079 13.65262947114614 -1 -2 0
853 0 1 0 2.969449392912514 12.367132757453106 12.052160290582137 1 0 0
411 0 2 0 0.0278035950045697 12.633725013059971 0.9047624463735622 1 -1 0
860 0 2 0 -2.1204621257801826 2.672286832088445 9.439876960281685 0 0 0
273 0 2 0 3.4242041143785125 18.582173335958487 3.1269148303045986 1 1 1
358 0 1 0 0.18335102217538835 12.191742745073842 14.603715175404476 1 3 0
72 0 2 0 14.297050582088959 -2.300739297654115 14.710542085126585 2 1 0
178 0 1 0 11.653902250426569 -0.24393111426280067 2.2904095086482608 1 1 0
2583 0 2 0 7.745636212392806 5.329397232085364 7.160011667810458 0 -1 0
868 0 1 0 3.6813379190099567 14.288433937939406 10.260178841770033 1 -2 0
1591 0 1 0 10.864480430858224 4.969591506311623 14.408031814929247 1 0 0
1239 0 2 0 7.221881769625877 14.228265977503865 5.759463998205316 1 3 0
504 0 2 0 10.229076239712104 1.0384160153468258 1.9434847318684487 1 0 0
1150 0 1 0 6.951396243537477 2.700176185660838 10.833026897596987 0 0 0
810 0 2 0 -6.929352313905335 16.202253157301673 12.995706446773573 -1 -2 0
1055 0 2 0 11.992771522694936 4.789735504558664 2.1751396265870615 1 0 0
756 0 2 0 -0.47491827665199843 3.6242523112702743 8.438360362337031 0 1 0
422 0 2 0 8.99126011310433 3.0793806783984308 1.5178519479538939 -2 -2 0
359 0 2 0 -0.34676880652533953 11.850793339191796 13.912161923164794 1 3 0
968 0 2 0 11.977628019543827 -2.0058656067215597 5.622034829275064 0 1 0
984 0 2 0 5.1834845346032825 8.216468289049995 8.047174317247748 0 2 0
1046 0 2 0 6.0505117568268565 11.77656210934061 11.579809406333318 -1 1 0
1036 0 1 0 -1.667930785704283 3.5991837695131377 12.927359023598271 0 2 0
1282 0 1 0 6.091491441093588 -0.6405299963516906 6.516506064915878 0 -1 0
525 0 2 0 -1.1066657597296339 5.172980381355372 11.948798915707657 1 1 0
32 0 2 0 -3.5591386266084952 11.262392741519406 0.45168300882627244 -1 0 0
1187 0 2 0 6.660501804850762 14.981856091846575 14.017529805105907 -1 1 0
1056 0 2 0 11.79204191561792 5.309162289956234 0.7724903127737259 1 0 0
488 0 2 0 3.465377909341805 2.9555289854178732 0.8460806693440721 -2 1 0
134 0 2 0 1.031352900479821 13.774970016663286 14.83998228424713 1 1 0
780 0 2 0 -1.0624272222165119 14.02911188741894 12.687793142017432 1 0 0
1007 0 2 0 5.605778939579299 10.614081587252667 5.106117978130807 0 -2 0
1283 0 2 0 5.176201168022301 -0.4010751218593196 6.567983714647031 0 -1 0
626 0 2 0 -6.429766991080303 17.945797298199885 6.577061221712304 0 0 0
203 0 2 0 6.29731228355679 3.14356583959336 14.021011144155475 -1 1 0
1145 0 2 0 -3.3506836649332543 6.439563100954209 12.40984800379802 -1 0 0
978 0 2 0 6.669532361514277 14.157225062635932 11.740995115277743 -2 -1 0
523 0 1 0 -0.8730405500416671 6.097469310287798 12.092632094499352 1 1 0
243 0 2 0 11.40290995305022 1.4388469242998614 9.828963231647466 -3 -1 0
2315 0 2 0 5.349783214706152 3.2889626224900916 8.617519599027572 2 2 1
1182 0 2 0 3.24373425951479 8.738677564696772 0.6491390344497869 0 0 0
588 0 2 0 4.9828029102288935 6.855410846330351 11.48041518029159 1 2 0
145 0 1 0 4.767804619226936 4.247712965550939 1.2492470482766809 0 0 0
466 0 1 0 7.314009519351446 12.413333478438968 5.784400992382825 0 -1 0
1038 0 2 0 -2.3818538607935205 2.968343206091638 12.701199192808152 0 2 0
914 0 2 0 0.9824007029790758 9.902950471387118 12.219014130247885 0 1 0
330 0 2 0 4.722082296684526 4.010126329888144 11.9800631682008 0 0 0
836 0 2 0 7.363976496542017 1.1490228761378969 14.355179159584031 1 0 0
890 0 2 0 7.769873092966647 2.4996668440441336 7.399964954503792 -1 -2 0
638 0 2 0 2.449856091119063 16.832180587017604 8.1190249141705 1 0 0
815 0 2 0 7.420791677607499 2.2507996744247794 4.63592916414107 2 1 0
261 0 2 0 -2.5918226544027485 10.71722272142624 2.233695808666145 0 -3 0
767 0 2 0 9.271778800021057 6.959406436127592 9.089157971952144 1 1 0
1259 0 2 0 13.259777941531363 1.7922750465361295 0.39563972082923504 0 1 0
2582 0 2 0 7.150643201295987 6.679959331253642 7.885175053764483 0 0 1
546 0 2 0 4.2765906510051295 8.012057140146382 9.912314108115767 -1 -1 0
768 0 2 0 9.449150330121892 8.52700557217787 8.951413789661654 1 1 0
30 0 2 0 -2.068404052072771 19.246753859151784 0.6608189627066745 1 0 0
2557 0 1 0 -6.694421449719137 14.382048810960818 14.491218172383334 0 1 0
1051 0 1 0 4.7019250303802735 16.551618898717994 5.482711250990066 1 -2 0
133 0 1 0 1.6251200526878224 14.555197940893848 14.771372091115392 1 1 0
703 0 1 0 9.132298591822217 2.3999105772938343 8.614919657128855 0 0 0
1412 0 2 0 -5.154343190608745 13.666898248496443 14.902829684429639 0 1 0
83 0 2 0 0.6684520140499914 4.887930365879242 4.646205139083857 1 1 0
1557 0 2 0 -2.1326715282870468 16.013886445972794 7.6378885739673965 0 -1 0
253 0 1 0 4.192438553385135 20.493563481295368 0.2439471223089491 0 0 0
1044 0 2 0 1.7222354142756955 -1.0225655768216564 10.920328744230833 2 3 0
862 0 1 0 -5.47332621141177 12.824806179801977 2.1284506099201836 2 1 0
224 0 2 0 0.45837513295845705 -0.5873802313807932 14.754662162267945 2 2 0
61 0 1 0 3.9612615842209036 13.173288026786127 14.35474434944936 1 1 0
329 0 2 0 5.348963419234538 4.855624426637378 13.080013633409811 0 0 0
880 0 1 0 1.6411676884272437 11.91381144605104 0.9731329821526704 1 -2 0
47 0 2 0 -1.7066113915739465 7.268107352466583 1.6201916997575498 3 2 0
317 0 2 0 7.659533545464547 10.057804254760857 4.235103335245837 2 0 0
242 0 2 0 10.82178294095351 0.016072601585382262 9.637220936359547 -3 -1 0
221 0 2 0 8.982850144480032 6.671414316201242 3.170776079584644 2 0 0
733 0 1 0 0.7520731050961771 8.49781076073084 3.705374455559321 -1 0 0
2578 0 1 0 2.7922449690424958 11.678234709233497 3.7686655722823295 -1 0 1
564 0 2 0 10.141825785566164 -1.6825796002920272 14.697346048076199 -2 -2 0
921 0 2 0 -3.384338634298085 7.210857820639722 6.900249374144398 1 1 0
809 0 2 0 2.9084891804676336 -3.7450293093577334 12.692248922560452 -1 -1 0
308 0 2 0 1.790059893526516 17.13535975394172 1.9811132081334484 2 1 0
1169 0 2 0 1.497849760855831 -0.7063001654392473 8.923613348376225 0 1 0
1131 0 2 0 7.938350165632027 13.439716890005581 14.842908172179591 0 0 0
258 0 2 0 -0.12481168143327404 8.14189810556295 14.1796168631311 0 1 0
672 0 2 0 -2.2269593406865926 13.254522363667839 3.121570616339913 1 1 0
144 0 2 0 4.577307535181767 9.184990659821905 12.682954512009294 -1 -1 0
186 0 2 0 -7.802414729574541 19.592316717295883 0.3385320211638114 -1 -1 0
625 0 1 0 -7.316084308256141 17.744794201219623 6.372237855993949 0 0 0
130 0 1 0 -3.6799312844457686 9.52982645693493 13.764746533672167 1 1 0
159 0 2 0 -4.366281177270181 11.612744963539992 9.10017389962752 0 1 0
180 0 2 0 12.261281974929362 -0.3555377354930827 1.530232936586592 1 1 0
2198 0 2 0 10.995805246641021 0.6541922915541538 -0.2534720792825538 0 0 0
1272 0 2 0 8.07274215337937 9.179081505720454 10.698251449395967 -1 -1 0
2222 0 2 0 0.5184074934837362 16.40859727095928 12.290550678779386 0 0 1
271 0 1 0 4.185631090231328 18.69575906635727 3.744113519828817 1 1 1
472 0 1 0 5.728990188569533 1.6368386735103273 -0.030258849063013904 -1 -2 0
1665 0 2 0 -1.1668462661247023 16.154804420087427 3.449444712385799 1 1 0
1215 0 2 0 0.3055292671065964 18.75689347378826 5.6852957716213295 1 -1 0
295 0 1 0 -3.0507554502860836 16.096797304478905 1.2549882172715283 0 -3 0
1072 0 1 0 -0.8243731861862706 6.326690565082916 14.703713939788246 -1 1 0
807 0 2 0 3.2637290425311773 9.29080927442796 7.550286641852619 1 0 0
2559 0 2 0 -6.625845323582163 15.011880293796906 15.252248182053616 0 1 1
158 0 2 0 -4.5284202517912435 12.16650986424754 10.562931655819021 0 1 0
147 0 2 0 5.389329804422818 4.450071381028953 0.542405790785182 0 0 0
900 0 2 0 4.5829976900575655 0.49454774541895574 14.896660045304039 1 0 0
1039 0 1 0 10.745805791124969 6.754712501721679 11.915644834602004 -1 0 0
274 0 1 0 0.7802426823266764 15.74419677190808 10.456157416939314 1 0 0
1375 0 1 0 -4.283988774925618 17.06822753711385 4.136272373116711 0 -1 0
729 0 2 0 9.16992616810491 -3.873477309079165 14.442497436725631 0 -1 0
93 0 2 0 6.3094647108492214 1.0910239064805152 3.3470522284564437 1 1 0
500 0 2 0 -1.8922463764003388 11.038405933871395 7.500498065968749 3 2 0
842 0 2 0 0.8388291438321271 -3.428982460484841 14.497249305759876 1 1 0
544 0 1 0 3.833986970168771 8.296409121064618 9.06272097623659 -1 -1 0
1237 0 1 0 7.179245388868262 15.150868869464867 5.388413635823156 1 3 0
296 0 2 0 -2.5564318818399685 16.957487907499214 1.3203355396876169 0 -2 0
2307 0 2 0 -0.045900068675301324 8.077786450820383 -0.25229038268788073 0 0 1
427 0 1 0 5.596432724770286 16.60192211877171 8.403720954805632 1 1 0
649 0 1 0 2.5221941518357642 6.521534681592376 13.851259144547779 2 1 0
1096 0 1 0 2.070251863901535 1.9202413120801292 5.757859308221247 0 1 0
68 0 2 0 1.9202997291186668 4.2346460568077315 10.881753289281102 0 0 0
164 0 2 0 -4.2913662446845615 19.775132808901567 1.615340616792245 3 2 0
1210 0 1 0 -3.4978699935327464 10.738892775649397 4.126591404424946 1 1 0
648 0 2 0 -0.5224699022872616 17.41880018085478 7.385544883199078 -1 -2 0
216 0 2 0 3.075224160172967 2.1663955760791893 8.518930272678181 0 -1 0
297 0 2 0 -3.9877469472050224 16.395792843958457 1.260888970083366 0 -3 0
993 0 2 0 6.256289355548491 -1.45366589284651 14.558783707405746 1 0 0
1040 0 2 0 10.80579623226312 7.518316651978138 11.338557649340709 -1 0 0
175 0 1 0 2.389955184200649 -1.105823165786835 4.0716539269148315 1 0 0
149 0 2 0 9.19868660290143 4.078153433355753 5.68864384251631 0 1 0
1060 0 1 0 -0.8794204887042915 12.350712069986608 4.063525070120498 2 -1 0
755 0 2 0 -0.07185241083033006 4.126567948930678 9.800933883783838 0 1 0
17 0 2 0 5.057721345241621 10.272444973274846 1.6926381479599866 1 -1 0
234 0 2 0 10.136198795557236 2.094888170984038 5.31678446389464 1 2 0
882 0 2 0 2.07104979176064 12.080346226483794 1.8268226643299998 1 -2 0
469 0 1 0 11.527958965320966 2.582650469437108 11.667418228403765 -2 -1 0
250 0 1 0 4.345428270892128 13.421448109721439 6.639727448893406 0 0 0
327 0 2 0 15.22942785139675 -2.7994643599598867 11.97973011081542 1 2 0
2510 0 2 0 1.506789148980747 15.4610750591442 6.433771534660253 0 1 1
1216 0 1 0 0.24952559426391835 16.315495773148946 2.2489285427978687 0 -1 0
150 0 2 0 7.82228826130649 4.689325370051102 5.235510975570026 0 1 0
46 0 1 0 -2.6361071438781174 7.586061234417191 1.6039815402000204 3 2 0
131 0 2 0 -3.466944201209487 8.639730669682862 14.068279088863251 1 1 0
214 0 1 0 4.012924756722365 1.9463159899258895 8.672074469384293 0 -1 0
354 0 2 0 5.04059353529154 -0.5881509480282823 10.068104752146855 1 2 0
351 0 2 0 2.2775129465941344 14.063604523442443 3.6445496579453165 0 -1 0
923 0 2 0 6.298163636954371 15.039376400178694 8.300790322127247 0 -2 0
2330 0 2 0 9.628104815005058 11.966173304896046 1.9273654684021984 1 0 0
816 0 2 0 8.154072774190137 0.9303931400504954 4.9537302063489514 2 1 0
1004 0 2 0 -1.4504943797493566 8.34667209545221 11.759051183015277 -2 1 0