LAMMPS data file via write_data, version 23 Jun 2022, timestep = 173759000

2592 atoms
2 atom types

0 30.933001 xlo xhi
0 21.326696 ylo yhi
-0.7535062572039379 31.710739233975843 zlo zhi
-9.140633 0.985557242281694 -10.800430376221648 xy xz yz

Masses

1 1.008
2 15.999

Atoms # full

858 0 2 0 10.175567031047283 -0.8704938518168648 14.681476792715149 1 4 0
922 0 1 0 6.482266858433907 -4.040949291886929 11.57676031265762 0 -1 0
2547 0 2 0 8.227523634540939 10.24826032105089 11.566708538717553 0 -2 0
64 0 1 0 1.114004384405958 8.856834347971482 12.876771852314961 0 -1 0
5 0 2 0 4.162179605348259 14.417533024749721 13.673833355333873 -2 -1 0
338 0 2 0 2.7545951988245605 11.022005493074523 14.586537463435555 -2 -2 0
522 0 2 0 3.3852777297145367 8.328037472056003 11.295688954496514 2 0 0
689 0 2 0 -3.0042880617961973 17.294986312148943 5.820842163880609 -2 0 0
1296 0 2 0 4.37391972761253 8.847829203305302 14.137244239901564 1 0 0
1376 0 2 0 -4.957087813813405 11.987372594182576 11.033082223788796 0 0 0
548 0 2 0 0.02056673161499467 11.085002049239131 9.550100054384442 0 0 0
317 0 2 0 10.212828955533613 -4.519869519322805 13.687859500675868 2 1 0
302 0 2 0 -4.083808364690845 13.593466444708305 7.8279902461912645 1 0 0
1199 0 2 0 -0.8324063147763225 6.376151466640198 14.986533403842738 1 2 0
371 0 2 0 5.752611427192417 11.680231353393514 3.937001809265304 2 0 0
1187 0 2 0 -1.0010783680555246 14.118861167867776 1.3115482760147787 -1 0 0
1240 0 1 0 4.037015697656505 10.539501621123705 13.625551302179067 1 -1 0
990 0 2 0 1.637332073944572 4.7322268242381185 1.1444166127019682 1 -2 0
599 0 2 0 -1.6466550390316579 15.497498450334987 14.768642974137801 0 1 0
315 0 2 0 -2.0665343179085673 8.55295040415661 12.17251329820988 0 1 0
952 0 1 0 3.6254515882245313 3.5729685161642513 4.460903786191061 1 -2 0
747 0 2 0 2.9192599181911643 3.906119840804319 12.012438218121197 1 2 0
347 0 2 0 13.721484047632911 0.5625632591234035 0.16253142872578563 0 2 0
679 0 1 0 8.107018590090485 -2.8026750313199753 15.160484571387139 1 -1 0
1012 0 1 0 9.156487552730345 10.143840371525279 2.260631835457234 0 0 0
676 0 1 0 8.090095089002954 -1.4914199216419681 12.024515184841814 -3 -2 0
36 0 2 0 11.697810535278531 -2.697273556558874 13.035713981113128 1 3 0
2185 0 1 0 -3.1956561572702786 16.736849349344418 1.3534408722349327 -2 -1 0
198 0 2 0 -3.566757611165468 9.102556390522274 14.327215459027105 0 0 0
341 0 2 0 -3.788106562805206 9.956106663857158 7.506675239758625 1 0 0
1099 0 1 0 5.9266910729286195 10.547697769371723 9.530034401089246 -2 0 0
2341 0 1 0 2.8891561223480022 14.848626917004498 7.659329938797153 0 -1 0
774 0 2 0 7.690178540784484 14.97157320849424 3.764562828690634 1 -1 0
116 0 2 0 -1.0574075770311182 8.123717105958859 2.840208456618626 -1 -1 0
429 0 2 0 7.409516257839429 15.275387382636433 -0.2454322272716627 1 2 0
1481 0 2 0 6.160174542852479 2.3273387290009215 10.732784001448543 0 0 0
148 0 1 0 10.598743295600597 6.18227043949862 14.783750091210546 0 1 0
348 0 2 0 4.301800532899435 20.415281089026234 -0.39704910259758075 0 0 0
868 0 1 0 10.093350036120032 9.412162943704631 -0.13336251415316913 1 -1 0
879 0 2 0 6.098799835495308 14.130191844293861 0.7690416509817153 0 0 0
805 0 1 0 7.075525029185626 9.77020293894582 0.5734804341100928 0 -1 0
1460 0 2 0 4.065294142424986 2.3619356484785747 12.95579827959558 0 2 0
885 0 2 0 3.645187200240691 16.984843377602527 9.031534893104613 0 1 0
582 0 2 0 6.840377446351294 8.244504847453877 3.1399613943750233 1 1 0
1205 0 2 0 -2.554769461542589 19.059093275485143 3.980042692041078 1 0 0
1043 0 2 0 15.011791006497537 -1.6171821462174054 8.41278163291854 2 3 0
2546 0 2 0 8.956148023685406 11.406534133889537 12.381736627650234 0 -1 1
412 0 1 0 5.65579744240966 6.065784910320579 5.020171798878341 0 2 0
1629 0 2 0 -0.27113194756524117 13.771767813805322 6.040663446329706 0 1 0
552 0 2 0 0.9291403965504725 1.9943893358524178 7.198274424088903 1 1 0
512 0 2 0 3.903541605907773 9.215707822889325 4.520698242007835 0 3 0
830 0 2 0 8.53715238430699 4.543363480756304 12.758907718154088 1 -1 0
1157 0 2 0 -3.2475627350526453 14.399513602733819 14.076190932245908 1 1 0
2439 0 2 0 -2.7334291617488673 5.024421984953767 8.741937803851041 0 0 0
656 0 2 0 8.244478866390587 3.634437490424197 9.943057613955142 0 0 0
1239 0 2 0 2.2319607856783086 12.224185912561472 4.807487440004607 1 4 0
2187 0 2 0 -4.046493702235989 17.1019227639969 1.582270190803833 -2 -1 0
856 0 1 0 9.490739156970857 -0.47436056519985215 14.11607152739088 1 4 0
583 0 1 0 -2.618676485778803 13.996039674707145 1.8656999149058477 0 -3 0
271 0 1 0 -0.3359282764106969 12.994512677196727 14.544912716132234 1 1 1
272 0 2 0 0.2858659241435562 12.265276389801079 14.639185200600917 1 1 1
423 0 2 0 -1.2577078173584164 13.143098152904882 9.349599649283864 -2 -2 0
581 0 2 0 6.705187003317949 9.659362905805043 3.5692182549599254 1 1 0
538 0 1 0 -6.977219153823219 20.022691640138476 -0.22617096055287955 0 -2 0
257 0 2 0 10.151359573851638 4.434716554453642 5.58947322271293 -2 1 0
414 0 2 0 4.712688576137601 6.273453547719207 5.136173570033857 0 2 0
1215 0 2 0 -0.05702241913232342 6.557926729138285 10.420377894264647 1 -2 0
1171 0 1 0 12.83905509916059 -1.18122374611243 4.186670041944998 -2 -1 0
510 0 2 0 -0.6868296857133674 2.586738394382679 13.443233149426403 3 5 0
995 0 2 0 7.289930955226649 13.40553949196448 10.219275548887229 0 -2 0
729 0 2 0 7.135527232350219 0.9969175994895227 7.070436610877949 0 -1 0
109 0 1 0 -5.308117124867497 16.608379430353946 8.415115655914867 0 2 0
307 0 1 0 -0.797418982196305 15.992254462167164 7.614950443686794 2 -1 0
533 0 2 0 1.6496551673105941 2.564527415474749 9.40744192811831 1 0 0
259 0 1 0 7.113451504200694 1.0038287671905515 2.878364328467035 1 -2 0
2186 0 2 0 -3.0900901693835454 15.856105680272284 1.7459170189343785 -2 -1 1
777 0 2 0 0.9183423943350935 14.388512267012704 11.671359283986797 2 -2 0
169 0 1 0 1.5078390799743775 4.795778606819789 12.564914221138194 0 1 0
287 0 2 0 -1.4815987455215776 17.548335288196125 8.513249181438216 1 0 0
883 0 1 0 3.2605100575885455 17.564791946020062 8.30607765954755 0 1 0
870 0 2 0 9.920957025735571 8.461152736332243 0.09401412838248391 1 -1 0
634 0 1 0 2.9316794713975334 5.861470230571196 14.600328623229174 -1 0 0
390 0 2 0 12.464810177666063 1.807038587160292 4.069649862886257 1 4 0
260 0 2 0 6.252878434889801 1.0116779162023104 3.2841479269685925 1 -2 0
98 0 2 0 4.359571689488056 4.806426458423798 14.72740099899822 1 -1 0
2199 0 2 0 8.160127330702911 4.426982455526231 2.0026456386576035 0 0 1
551 0 2 0 0.5088683397205798 1.5579259985922196 5.75160240012359 1 1 0
34 0 1 0 12.367952987774672 -2.0444427805709493 12.725866009386255 1 3 0
572 0 2 0 7.203597177840222 17.423593852236923 2.887035878151126 0 -1 0
549 0 2 0 -0.4120157653431518 11.07742486461757 8.10307017944535 0 0 0
639 0 2 0 8.549346672823697 0.28188551611472557 3.433667264403155 0 1 0
518 0 2 0 8.20098731136314 9.744776183204888 6.9083855820479165 1 0 0
103 0 1 0 -1.4202786077780263 7.979698625634937 6.099230295878073 2 1 0
200 0 2 0 3.983398184180265 15.815921410712901 4.5806599866405335 -1 -1 0
326 0 2 0 3.8372047389542145 13.500618043966451 7.863672066214695 1 1 0
1628 0 2 0 -0.32680874419681766 13.23826666680535 7.4929392283847545 0 1 0
270 0 2 0 0.22312056791727292 15.898218370196473 4.559698457193765 1 0 0
214 0 1 0 0.2332579870143171 10.700604049461578 1.8909840470862496 0 -2 0
340 0 1 0 -4.438957221798717 10.463379376490538 7.02035583842333 1 0 0
1115 0 2 0 3.6883867182045704 8.749009456689846 -0.4087191022752163 0 1 0
1020 0 2 0 2.560372273301996 -3.5637848073688843 10.11854530854867 3 3 0
596 0 2 0 7.300173942853245 4.634641144442097 -0.10405690481682506 0 1 0
939 0 2 0 -8.26174673889186 18.979397291236115 3.9607478359214294 -1 -3 0
1214 0 2 0 -1.0613805925765543 5.818087815888898 11.29453358872873 1 -2 0
726 0 2 0 -4.076055858915892 10.406810169610507 5.011058761657933 1 2 0
55 0 1 0 12.082913718770941 6.552129434591466 1.426765542269584 0 -2 0
181 0 1 0 4.528094051947868 14.19632137395209 5.076171235779217 -1 -1 0
421 0 1 0 -1.2843565205793 14.101205605152341 9.38001993472822 -2 -2 0
356 0 2 0 -5.005427639711692 13.254701623838077 -0.04423567397876338 1 0 0
97 0 1 0 5.198536999928972 4.487718205201952 15.037795379099823 1 -2 0
742 0 1 0 7.901676205299649 6.536732606368245 10.431774076820624 0 0 0
303 0 2 0 -3.603092287186118 12.229021246975538 7.2238835509305925 1 0 0
76 0 1 0 -1.105642354282453 3.2804755112149695 2.798084792777464 1 1 0
499 0 1 0 13.62009242524039 -1.2051959960278502 15.083531226912184 3 2 0
355 0 1 0 -4.054993523944411 13.175167706947754 -0.2966207135876097 1 0 0
521 0 2 0 3.9989692555459886 7.187252457167448 12.1066548182615 2 0 0
627 0 2 0 5.344165777018272 4.244234304184725 7.75023222918885 -1 -1 0
728 0 2 0 5.969953814845799 0.039262458483357854 7.637020527261189 0 -1 0
1213 0 1 0 -0.21041161570277883 5.750574866068862 10.862618712488436 1 -2 0
508 0 1 0 -0.8122555149956132 3.520877268652347 13.24583580811318 3 5 0
2208 0 2 0 6.191760783852007 6.287653134217287 1.0343120891117656 0 0 1
758 0 2 0 10.460887134873945 8.493280463653111 7.655370439069671 1 3 0
1276 0 1 0 11.167311061761154 -0.4470469983684534 1.6526398940278026 1 3 0
1250 0 2 0 11.023491830223326 2.053503399933089 5.697973212910575 -1 0 0
1345 0 1 0 8.339842276513759 6.033131620250002 3.1362683065440335 1 0 0
2330 0 2 0 1.5398328621604933 12.307405445935597 12.013317714602744 1 0 0
804 0 2 0 -5.916557815101792 18.40126793639901 7.972667094998249 1 -2 0
573 0 2 0 7.35890789270573 16.3715470373962 1.8171927852959322 0 -1 0
1063 0 1 0 -0.0538219371898623 16.51626198531575 -0.594789601306782 2 0 0
924 0 2 0 -3.120155991481774 16.530201526791373 11.096043203003768 0 -2 0
1090 0 1 0 11.507613325920877 1.4282215449683004 13.616746455874415 -1 1 0
857 0 2 0 9.178880524990003 -1.1434899359117288 13.534842767591483 1 4 0
108 0 2 0 7.089479790624974 1.7912725747667002 14.254698651946493 1 3 0
439 0 1 0 4.007436438330623 11.524387466350362 1.590633087499426 3 1 0
491 0 2 0 -4.1941994416669175 20.301174701247152 -0.23010887908933564 0 0 0
173 0 2 0 -2.8427662402412532 10.6289919361899 0.5665010755485018 2 3 0
427 0 1 0 7.71755258648666 16.201808907757687 0.021734927329396747 1 2 0
185 0 2 0 -5.756078031104928 14.574618772817075 2.2630750563842605 -1 -1 0
661 0 1 0 11.102247367165266 2.199314217662235 10.057054051434207 0 -1 0
1067 0 2 0 0.8324597093052162 9.94308613803357 6.2307179112153666 2 1 0
2259 0 2 0 11.909044481515764 5.4585678857056665 9.120606096313843 0 0 0
256 0 1 0 9.67383672538315 5.246529661425118 5.359167774158723 -2 1 0
75 0 2 0 0.8013006002636104 14.58133128860694 14.5700799459314 0 -1 0
1069 0 1 0 -1.2473824119431187 11.591192270784196 4.082782647070522 1 -1 0
635 0 2 0 2.4147579416933214 5.577550604632542 13.793777543235208 -1 0 0
1294 0 1 0 4.343875764023462 8.132892044594954 14.74940046556041 1 0 0
877 0 1 0 6.791883521528877 13.765262686668121 0.19165739373407287 0 1 0
532 0 1 0 0.7803634920203348 2.81925394395138 9.048885237004772 1 0 0
951 0 2 0 -4.458932048468927 6.816879817193668 15.146773582554632 2 1 0
171 0 2 0 0.7730516828835525 4.336205719517924 13.003370951979658 0 1 0
162 0 2 0 4.8340051093979275 15.063642199070449 10.362190223677404 1 0 0
904 0 1 0 -2.7755502037136526 5.890037565336495 12.059751504929219 1 1 1
394 0 1 0 1.8255785455881495 8.626082188045693 7.434645241448184 1 0 0
942 0 2 0 12.953196101633496 0.029171102544384375 11.817070252137725 -1 2 0
2331 0 2 0 2.5998837670215886 13.1059461182276 12.88258620617989 1 0 0
241 0 1 0 5.8489960983856895 2.3626148708337333 -0.015637199735112017 -3 0 0
407 0 2 0 3.2249753679599076 11.353276534369744 8.393437579757084 0 -1 0
1273 0 1 0 -2.0578551538941605 15.052525244137692 12.921482774396125 1 1 0
1031 0 2 0 9.258460190268504 11.98049597058685 1.8311987390642757 -2 -1 0
262 0 1 0 0.6723374520292558 -0.6244702529681441 3.162618142844047 0 -1 0
1116 0 2 0 3.088244043165725 8.047218436132388 0.8892031818370436 0 1 0
2472 0 2 0 12.39605283440255 4.024750185950963 6.991732517633718 0 1 1
1070 0 2 0 -0.913793973136213 11.62629456638405 3.172456154696912 1 -1 0
743 0 2 0 7.996059888916194 6.212487437228977 9.569316036885235 0 0 0
441 0 2 0 3.530434867044508 11.863920372280505 2.2962645344994623 3 1 0
362 0 2 0 -5.919566671747189 12.272605749279851 6.307120911105953 -1 -3 0
149 0 2 0 10.163287093541065 5.9220107377092 13.9317488870346 0 1 0
991 0 1 0 5.871056081200376 -1.2855855631791044 14.78687786999673 0 0 0
823 0 1 0 -0.46088762573786723 0.858486866786242 14.332916569588201 0 0 0
746 0 2 0 3.680161712763677 3.1142935804355467 10.941848867538251 1 2 0
174 0 2 0 -1.4884754727589045 10.578603593800374 1.3239559413400346 2 3 0
264 0 2 0 0.04887100580383752 0.04264828006780763 3.5689792447464637 0 -1 0
137 0 2 0 11.181838738267338 2.8716835504375062 1.749781530255282 1 2 0
730 0 1 0 8.210800457132303 9.1810599279417 10.292215796172345 -2 -2 0
282 0 2 0 15.135618846771427 -3.1519492445700417 11.775916891166778 1 2 0
797 0 2 0 13.263394232897559 -0.7921336612512317 7.432946908674047 0 5 0
696 0 2 0 8.896306884540342 7.159509507278729 1.530815694209585 -1 0 0
686 0 2 0 7.038467176300247 11.310205104258365 6.4083014519251105 -2 -6 0
2413 0 1 0 4.678903960487238 8.572982219441695 8.14359461685319 1 1 0
1148 0 2 0 4.993825402468125 16.657288690692425 1.8324997739409086 0 -3 0
288 0 2 0 7.364331211652614 -3.317455291889968 10.029022408876548 1 1 0
2486 0 2 0 4.596820185875979 16.50216405529972 -0.0214913060709766 0 0 0
798 0 2 0 12.741186693790587 -2.13686925287175 7.351482852848719 0 5 0
953 0 2 0 2.7930902245371367 3.9799931060157743 4.5122210833524 1 -2 0
474 0 2 0 5.144194115775378 15.117652606644654 6.778809356262364 -1 -3 0
115 0 1 0 -0.35496806233543443 8.4928737665917 3.353231368561752 -1 -2 0
110 0 2 0 -4.826461175265158 16.5593779476452 7.600017337474336 0 2 0
252 0 2 0 -3.3808941783283406 7.356450904654718 2.388727318736967 1 0 0
73 0 1 0 1.3723800617059954 15.360004495945308 14.558355967653693 0 -1 0
1231 0 1 0 12.279460037046906 3.9802705340448767 2.3440138202321394 1 2 0
337 0 1 0 1.8935756422316978 11.142441842838785 15.070421774463878 -2 -2 0
678 0 2 0 7.66651302279066 -2.3691298848045053 11.874934424672638 -3 -2 0
1060 0 1 0 -5.515201913202533 18.623720815323434 1.6666737791746096 1 -2 0
959 0 2 0 3.9128041074774433 14.609036456044805 2.3037114054939476 0 -1 0
1251 0 2 0 10.290136499103257 1.5466688950174323 4.470882916352016 -1 0 0
650 0 2 0 6.387982108834178 15.195977582884474 13.012753024139917 2 2 0
45 0 2 0 -6.614124952942496 16.520273212825714 5.640133522289165 1 0 0
456 0 2 0 9.390103424096065 -3.4091551373633706 10.04977869332333 1 1 0
419 0 2 0 2.3705882954328032 -4.21273528276372 13.566866330404832 0 -2 0
803 0 2 0 2.8393482188844716 -1.4880360055877113 7.564369269891817 1 -1 0
325 0 1 0 4.325261733527849 12.642254108359886 8.059636954505512 1 1 0
269 0 2 0 -0.4705927635426823 16.29406200026654 3.248177530498472 1 0 0
998 0 2 0 14.236379370530743 2.5990661232897536 -0.6706955994950198 -4 -4 0
1191 0 2 0 7.271362305045053 6.248986736442208 14.935633014932987 1 -2 0
242 0 2 0 6.744465781249772 2.4206394193341727 -0.38985351522832323 -3 0 0
250 0 1 0 -3.3113558734230066 8.226745165116037 2.8731357200792043 1 0 0
651 0 2 0 5.7913629107257565 15.581089895606073 14.47938581534315 2 2 0
1256 0 2 0 6.577862965178162 11.620894095883898 12.293013494294398 1 1 0
455 0 2 0 10.195033614089041 -3.4393875318628373 11.357348761350114 1 1 0
595 0 1 0 7.017488801186261 5.522681200011366 -0.3733151454835031 0 0 0
580 0 1 0 6.587111768612074 8.832696559998416 3.8799842393984605 1 1 0
734 0 2 0 10.306880580446151 8.55066974977422 5.013842519829767 -1 0 1
611 0 2 0 6.006931970275298 6.029650738008911 12.652998253216042 -1 -3 0
56 0 2 0 11.12205150095077 6.762466637588581 1.50081456900917 0 -2 0
222 0 2 0 -4.426565751543941 10.250948097496066 12.678690239365253 3 0 0
473 0 2 0 5.536729218315084 15.453918030359228 8.191378947919638 -1 -3 0
507 0 2 0 6.637735927561309 4.067147649110505 13.772827789635405 -2 -2 0
196 0 1 0 -3.4357055980714 8.386897757679705 14.963929431472797 0 0 0
923 0 2 0 5.8179561279000795 -3.4478935948553944 11.854020772425265 0 -1 0
336 0 2 0 5.495133414165542 0.5084129219781026 11.969221758028823 0 2 0
1033 0 1 0 0.5891381521432749 11.08249305982684 11.482244326702864 -1 -1 0
556 0 1 0 -6.620234091878627 15.255021109683854 14.49077277975548 0 -1 0
570 0 2 0 -5.520790653876489 14.28248370679829 5.414997709405397 0 -1 0
243 0 2 0 5.804567602522175 1.442157779826737 0.23777733446878202 -3 0 0
1083 0 2 0 -2.5654767589205365 9.780939628362493 10.658072500735408 1 -2 0
316 0 1 0 10.157057830846519 -3.5841384346260883 13.407492424761626 2 1 0
1172 0 2 0 12.830065978688266 -0.3901227421751452 3.6509286047790717 -2 -1 0
46 0 1 0 -1.3997187854502477 6.597963025733202 0.7501299450894112 3 2 0
2234 0 2 0 -1.4083013175547585 20.44178691951592 0.30548723885238394 0 -1 0
1295 0 2 0 5.268894143497177 7.83340536891036 14.791749810256173 1 0 0
145 0 1 0 5.776075676895977 -1.1436857236175086 9.17599151962018 0 -1 0
2198 0 2 0 8.927513875100193 3.2227988180986094 1.4038913574652487 0 0 0
1136 0 2 0 2.493835403893326 -0.73595447189388 14.780747984607292 0 3 0
802 0 1 0 3.289019669921665 -2.0105069545644527 8.263585100369882 1 -1 0
1237 0 1 0 2.395067735848012 12.175665711686321 5.730512745024793 1 4 0
346 0 1 0 13.567723708641019 -0.3820567236080086 0.39715862484305076 0 2 0
727 0 1 0 6.198542183424292 0.743240771022414 6.963914625380805 0 -1 0
147 0 2 0 6.5452288729375505 -1.7749792246487064 9.072165504581989 0 -1 0
361 0 1 0 -6.005182192917356 12.524812446965207 5.3775428301056465 -1 -3 0
500 0 2 0 13.192118193235531 -1.3827726691683044 14.24029636917278 3 2 0
960 0 2 0 5.233607981869622 14.489421834132315 3.0242734997789213 0 -1 0
703 0 1 0 -1.7143602669955782 6.227255083699638 8.307643980320568 0 0 0
351 0 2 0 10.576062440259353 1.4157986604103272 -0.4061776068085892 0 -1 0
1267 0 1 0 2.5682054368457017 18.038784008125752 2.7333061117460624 2 1 0
1206 0 2 0 -1.5745419906392149 18.958438099032428 5.284455465429699 1 0 1
557 0 2 0 -7.182660401636187 14.471458097101237 14.59981765975655 0 -1 0
1198 0 1 0 -1.207406626606669 6.99968394758385 14.345228095858273 1 2 0
1242 0 2 0 3.564070422909223 10.240023236125314 12.805806824128595 1 -1 0
221 0 2 0 -4.429825835104814 11.103521560354896 13.950484027579733 3 0 0
467 0 2 0 4.969582694318153 1.8796306691985332 7.080046250263302 -1 -1 0
826 0 1 0 2.081349472414012 -0.5865963090839963 6.238739895319264 1 2 0
308 0 2 0 -0.6708716358154081 15.370546573732533 8.324159641785467 2 -1 0
461 0 2 0 1.092259828514177 8.012572863744891 2.6279700075144357 -1 -1 0
999 0 2 0 13.244091420213454 2.936261328194341 0.6576404003454919 -4 -4 0
2545 0 1 0 8.10976455638226 10.85904103665322 12.319597450198406 0 -2 0
462 0 2 0 2.626480956306157 8.007231832969477 2.7749058839480543 -1 -1 0
511 0 1 0 3.9185952877642736 8.476571360497141 3.8612749791310375 0 3 0
1176 0 2 0 3.421530218593976 10.81625564901984 6.133739726826335 -2 -2 0
828 0 2 0 1.1499409232198339 -0.7637508347137589 6.274141167727179 1 2 0
638 0 2 0 9.994174224063974 -0.22239295529839986 3.2214982142075557 0 1 0
862 0 1 0 1.1569376250815884 16.81872709387777 5.741103207923839 2 0 0
2481 0 2 0 0.9952044405372898 8.996145067286328 -0.5065746783830742 0 0 1
44 0 2 0 -6.378506551314495 17.992651178733293 5.585874589617128 1 0 0
1175 0 2 0 4.059915162622671 9.349785614104599 6.7100772321183175 -2 -2 0
386 0 2 0 6.231490721621393 8.197605131224405 7.382916875461932 0 2 0
759 0 2 0 10.46984672877101 7.4860909349855165 8.740249350431101 1 3 0
2415 0 2 0 5.09001152801085 9.125343664931023 8.877215752741906 1 1 0
1614 0 2 0 3.1500452754604953 10.543857723227834 10.272879909200903 0 -1 0
986 0 2 0 0.877863971292533 18.06475118228278 2.2456266290751277 1 -1 0
466 0 1 0 4.474027334598534 2.6858516810502358 7.0666313828950145 -1 -1 0
1032 0 2 0 8.2309726489976 12.967337908775953 1.1177069119794352 -2 -1 0
2487 0 2 0 4.133406465002124 15.053449201427613 -0.4738666447427759 0 0 1
853 0 1 0 -1.7568392880127541 12.391478357053582 12.331977451551301 1 -1 0
1459 0 1 0 4.104535802513435 1.4396357417116512 13.250963987908184 0 2 0
136 0 1 0 10.43242971564318 2.4177929148190564 1.313522343550932 0 2 0
585 0 2 0 -2.891099223654107 13.420234975719506 1.1006072158304756 0 -3 0
767 0 2 0 11.16994573699892 -0.40951036189549317 7.2747979635623885 0 0 0
534 0 2 0 0.1695127000986773 2.7325786013896405 9.791786041175275 1 0 0
294 0 2 0 7.9728255213802965 3.094123945137568 5.775725154426608 -1 -2 0
168 0 2 0 3.0174522001493163 6.537583965397357 10.089084679876738 0 0 0
806 0 2 0 6.911839979123093 10.644046169476683 0.18648695667248705 0 -1 0
2233 0 1 0 -0.7415746068386417 20.314687418461645 -0.3738510154328852 0 -1 0
389 0 2 0 13.644680285216925 1.7214450078576304 3.089409185991088 1 4 0
39 0 2 0 5.456721381099248 17.53293574206228 4.498997642353234 -1 -3 0
687 0 2 0 5.588227628718081 10.954511606556395 5.930780838325469 -2 -6 0
153 0 2 0 10.715268142384227 4.294184566142863 12.330070319494276 1 0 0
1255 0 1 0 5.841000787023742 12.161251753845576 12.6748941875341 1 1 0
47 0 2 0 -0.6600449123666079 6.086571202414539 0.6140614664809192 3 2 0
2414 0 2 0 4.48573363841166 7.732545519491441 8.59622075813553 1 1 0
988 0 1 0 0.8953703822313746 5.340189660843323 1.32820893005796 1 -2 0
229 0 1 0 -5.455826445987624 19.32516480553828 4.550103967946226 -3 -2 0
122 0 2 0 4.659694307053926 -1.7022161422003443 13.234565819406845 0 -2 0
406 0 1 0 2.506013492724536 10.932269590939413 8.85608009128629 1 -1 0
993 0 2 0 6.113516109519746 -0.29937102006887617 14.941333394365417 1 0 0
773 0 2 0 7.88606921946107 13.671259386842806 4.512813932175327 1 -1 1
1137 0 2 0 2.7529419425458883 0.14275275912099517 13.544698148359265 0 3 0
2479 0 1 0 0.16657315628466698 8.562770504532303 -0.7119159360614005 0 0 1
733 0 1 0 9.950941471601064 8.194739112618677 5.8349720735467745 -1 0 0
197 0 2 0 -2.6000359484591065 7.9283724683406165 14.764161802274236 0 0 0
514 0 1 0 8.215304021684366 6.026735983898675 7.566852936556538 1 0 0
1197 0 2 0 11.062645643617637 6.948759070988295 10.663608749921027 1 0 0
681 0 2 0 7.3482868584710666 -2.406484292093795 14.730666469607526 1 -1 0
301 0 1 0 -3.3351492036978243 13.117284924001948 7.471171465789807 1 0 0
1055 0 2 0 6.907752828652032 13.043375478800236 14.079923802584394 1 0 0
775 0 1 0 0.2266928198233501 15.012795878337261 11.282423106996431 2 -2 0
695 0 2 0 9.15497274854423 6.310541829356801 0.22296947612272966 -1 0 0
1168 0 1 0 0.8619058853398218 -1.1642816275461403 11.558408568849593 0 1 0
107 0 2 0 8.022866910455233 0.6041443085101958 14.618070669424363 1 3 0
37 0 1 0 5.999465010199655 18.321001506597042 4.376309302597249 -1 -3 0
460 0 1 0 1.888168549984186 7.630725143395774 2.2659836735489787 -1 -1 0
725 0 2 0 -3.022177168054609 11.100894594440948 4.148354411469479 1 2 0
329 0 2 0 8.844339122597084 9.336501296629015 13.165587957402082 -1 0 0
93 0 2 0 3.417877728279115 1.0689252792782016 9.79990072751314 1 0 0
1592 0 2 0 12.232643905227247 1.815782648221841 15.222007168253702 1 0 0
1506 0 2 0 -4.406223495418714 8.374412143347813 10.928843740232725 1 -2 0
2207 0 2 0 5.317018653483712 7.455614622733846 1.3427858858379809 0 0 1
231 0 2 0 3.1846041971608576 -1.3070866609761804 5.0275159701910965 -3 -1 0
567 0 2 0 0.9554631827611182 4.77911395500116 8.366081332627363 1 -3 0
1054 0 1 0 7.427190118120205 13.187952116917948 14.882379393867343 1 0 0
1061 0 2 0 -5.503342696924531 19.04909157416571 2.524075034695261 1 -2 0
1489 0 1 0 -2.273108543994866 19.24389551803576 2.1676696213975974 0 -1 0
1612 0 1 0 3.6022248875536342 10.08059800067122 10.993016939335838 0 -1 0
117 0 2 0 -0.662224538180828 8.487666375094427 4.335540539033471 -1 -2 0
550 0 1 0 1.2219083616880522 1.9355921199987902 6.27388736441702 1 1 0
878 0 2 0 6.43782870172076 13.025652162976467 -0.34986638561632727 0 1 0
637 0 1 0 9.369779476190976 0.17737276457787532 3.869780923927368 0 1 0
2197 0 1 0 8.039411953454156 3.624689298934481 1.4692669470676138 0 0 0
92 0 2 0 3.8216203178661474 2.2315732568718665 8.701370597144829 1 0 0
454 0 1 0 1.0797233560742658 17.566271247639673 10.43976050313845 1 0 0
731 0 2 0 8.93341206848373 9.03411362739915 9.670076582305425 -2 -2 0
77 0 2 0 -0.35052265106419656 3.801092010532004 2.5722592226076 1 1 0
1062 0 2 0 -6.33549914748158 18.15135392060263 1.7432673440351807 1 -2 0
121 0 1 0 4.553436698948801 -2.158679663863916 12.373303744768897 0 -2 0
31 0 1 0 2.2341619015880743 15.166061200077277 2.2095816837616247 -1 0 0
333 0 2 0 9.063496191382113 11.960954069568992 9.026938554792078 -1 0 0
38 0 2 0 5.32961470493991 19.03742377246214 4.343732419030455 -1 -3 0
387 0 2 0 6.5226672734691356 8.265446985760184 5.878203867979252 0 2 0
1268 0 2 0 2.7042906073602913 18.910929287891594 3.1883945829763283 2 1 0
605 0 2 0 -2.5597853156873027 13.794839992813685 6.028512961794962 -1 0 0
688 0 1 0 -3.2791313974001777 16.673416813263778 6.469587957943501 -2 0 0
170 0 2 0 1.0015769330925752 5.115527976759059 11.78302713279716 0 1 0
610 0 1 0 5.490810486051096 5.997517595020439 11.814330882013353 -1 -3 0
553 0 1 0 4.473481395830839 13.598942792769328 10.784308415422034 3 2 0
106 0 1 0 7.253438265015018 1.1058613477455959 14.982314539983838 1 3 0
161 0 2 0 5.194301090459937 16.583981864028242 10.617433444719643 1 0 0
41 0 2 0 1.9288413608771633 13.431688587603329 2.853651842865027 1 2 0
636 0 2 0 3.164416076639609 6.766586377718445 14.351351094497495 -1 0 0
757 0 1 0 10.4824979700769 8.447058307682454 8.63453588192363 1 3 0
216 0 2 0 0.08973185047795065 9.901100892461594 2.378141440219634 0 -2 0
864 0 2 0 2.0833417535882104 16.623666158380125 5.5605472378423055 2 0 0
492 0 2 0 4.400247850586757 -0.30595967448112904 1.0566827615123378 0 1 0
1065 0 2 0 0.001475273287673282 15.58985441095545 -0.33381372062582315 2 0 0
167 0 2 0 2.6909942468663828 6.047965091041455 8.53030987365179 0 0 0
408 0 2 0 2.3140017725139725 10.162216115220476 8.271529437447821 0 -1 0
184 0 1 0 -5.620958277927165 15.469942127884341 2.6744281171167055 -1 -1 0
1122 0 2 0 9.16927616114648 8.604509991482452 15.06788723523739 -1 -1 0
1147 0 1 0 4.797430762880193 17.4494247989493 1.341468355509995 0 -3 0
655 0 1 0 9.010836837745392 3.744885503491927 9.33743514490467 0 0 0
1279 0 1 0 2.6918870169009925 3.3431730084462283 1.2315732057702309 1 0 0
1480 0 1 0 6.603355688626854 3.1982378917863774 10.620195625398111 0 0 0
1223 0 2 0 -4.341288913954849 15.663812689219348 9.51630941406277 3 0 0
614 0 2 0 -0.4739073833127083 8.719524287140525 10.088252792978635 0 0 0
584 0 2 0 -2.6433781810437065 13.450817372847068 2.6683540931966343 0 -3 0
388 0 1 0 13.111891700545915 1.169478086118123 3.64652790354031 1 4 0
1207 0 1 0 1.9797450230683682 10.542823804722696 -0.001854706197526701 3 4 0
2258 0 2 0 10.39803089487361 5.1073585842191935 9.225168256510269 0 0 1
497 0 2 0 -1.2597969425672346 3.7137079893719953 11.217990190341187 1 2 0
42 0 2 0 1.3530265180221928 11.975553806085141 2.7492001652930442 1 2 0
328 0 1 0 9.081100955745772 8.418198803756272 13.356152246563122 -1 0 0
1222 0 1 0 -3.8090505166526607 15.178940495934757 10.109415067081573 3 0 0
906 0 2 0 -2.376386754789271 6.163313352877039 12.923185719702417 1 1 0
796 0 1 0 12.558091528343104 -1.319385558091037 6.910249293443496 0 5 0
1200 0 2 0 -0.4593469649226455 7.3418652738003 13.858307209713756 1 2 0
506 0 2 0 6.880972436872482 3.067569385228097 12.455948600248709 -2 -2 0
138 0 2 0 10.443165084338132 1.553235837009642 1.7509182420524985 0 2 0
1186 0 1 0 -0.10121128442603258 13.879599432594183 0.9162066099551709 -1 0 0
111 0 2 0 -6.153890815104544 16.21937283229758 8.204189032981521 0 2 0
1204 0 1 0 -2.4697782475350203 18.736074769992676 4.880586098234576 1 0 0
2329 0 1 0 2.0906738886951732 13.149297223785442 12.09157313668256 1 0 0
1346 0 2 0 7.523366723430941 6.106436595248141 3.6756820412852322 1 0 0
1347 0 2 0 9.046519480388866 5.8537720951920065 3.7566219525543003 1 0 0
989 0 2 0 1.294357036830774 6.163598455820317 1.7504038397617805 1 -2 0
186 0 2 0 -5.525010707855063 15.427639401921716 3.6501890378076833 -1 -1 0
935 0 2 0 3.2399344813103528 -1.147297949936398 9.830551758849516 0 4 0
1082 0 2 0 -1.982211552773153 10.715910233360894 9.51649379422314 1 -2 0
40 0 1 0 2.1007752261310175 12.521505545193085 3.103146753030466 1 2 0
881 0 2 0 8.853733840408424 2.675844983332107 7.843201475137381 1 -1 0
251 0 2 0 -3.1051637588977536 8.89387178750793 2.1533025528429532 1 0 0
201 0 2 0 3.3382889402625135 17.166389337676243 4.068927126807951 -1 -1 0
2343 0 2 0 2.9919157715114 15.837874590678846 7.751467423884083 0 -1 0
413 0 2 0 5.614845080493806 5.073220438670621 5.054470826487293 0 2 0
505 0 1 0 7.1871353642493885 3.328734672335748 13.387857040851745 -2 -2 0
1135 0 1 0 2.1207719682303434 -0.4996998740422578 13.916828329171201 0 3 0
91 0 1 0 3.5432107007383973 2.019367226542611 9.625787262731674 1 0 0
360 0 2 0 -6.554966443504011 14.014836398210406 11.502532768533397 1 3 0
958 0 1 0 4.842774964286292 14.577982086665916 2.14595105944163 0 -1 0
2367 0 2 0 3.8969823196460003 12.58476616478367 0.06527664472788719 0 0 0
166 0 1 0 3.39177859502931 6.221606662504705 9.231277406341205 0 0 0
372 0 2 0 6.528067779411405 12.765033137601023 3.079850737434255 2 0 0
48 0 2 0 -1.89636549187681 6.190060054399032 1.4684513918893018 3 2 0
496 0 1 0 -1.4132631165314193 3.0259097388215377 10.525120771542413 1 2 0
786 0 2 0 5.818402462742384 20.028644388286967 1.2986043379002647 -2 -1 0
1071 0 2 0 -1.6772988057071512 12.509506860162817 4.33814600665528 1 -1 0
568 0 1 0 -5.318792146269738 15.205191681216531 5.4786998414077885 0 -1 0
880 0 1 0 8.709196687904319 2.1268996146252888 7.078462722669428 1 -1 0
625 0 1 0 5.696076030735357 4.745676984103205 8.500379627497855 -1 -1 0
1169 0 2 0 0.3034564381040073 -1.9585465737081007 11.764937612712318 0 1 0
1101 0 2 0 6.807955941381105 10.188001904520886 9.730002284833283 -2 0 0