LAMMPS data file via write_data, version 23 Jun 2022, timestep = 23002000

2592 atoms
2 atom types

0 30.933001 xlo xhi
0 21.326696 ylo yhi
-0.859082436835795 31.81631538752725 zlo zhi
-9.140633 0.9919674555381706 -10.870678007726694 xy xz yz

Masses

1 1.008
2 15.999

Atoms # full

680 0 2 0 0.14636391965515536 0.41717748206404903 4.1392532333143555 1 1 0
807 0 2 0 11.54261760426036 -2.5370301830214714 11.154662146132084 0 0 0
730 0 1 0 -2.165611618415122 12.068113043498109 8.687514236667946 0 -1 0
701 0 2 0 7.655685325926703 8.191419962277175 15.282367991160143 0 0 0
1056 0 2 0 1.4602332689296336 2.1493537810143866 7.250604773292293 0 0 0
62 0 2 0 0.6801798612754 10.894409298690924 9.289788616639406 1 -1 0
399 0 2 0 -3.4384516203970605 12.11905327694575 10.084182090235638 2 0 0
1049 0 2 0 3.628392362867573 -4.026697139638926 15.365015576698937 1 1 0
1229 0 2 0 9.153506532672948 2.0066909249016653 11.76313599506017 0 0 0
1261 0 1 0 11.008758387149342 7.499723315489838 4.097168022228018 0 0 0
956 0 2 0 -0.9059779460074977 14.28067711956999 3.98129587254882 0 -1 0
662 0 2 0 0.45510968177812133 1.0743302556129732 12.892100880368679 0 0 0
342 0 2 0 3.164994389109507 -2.8451831214516736 13.847739777835516 0 1 0
1233 0 2 0 -6.350061972086691 15.017566918037295 1.0468929439616679 1 0 0
64 0 1 0 4.20652455886843 2.1991656838525055 5.056951468536962 0 -1 0
376 0 1 0 8.172659157592495 -4.264851272010048 13.367523868225627 0 1 0
9 0 2 0 0.7480028790608719 13.204979768479621 7.771998516406567 0 0 0
541 0 1 0 7.039215536542404 11.797186301301696 14.221718148947739 0 -1 0
2366 0 2 0 3.9162808822195214 14.26143353123638 0.22839594956813425 0 0 1
2510 0 2 0 10.355509095496199 0.4899742485957012 0.21944883877131982 0 1 1
2567 0 2 0 1.9998758279859756 -2.3667471930936164 9.874989549503683 1 1 1
1060 0 1 0 -4.583331577889912 14.054745382848578 4.243112512620559 2 0 0
737 0 2 0 4.037232342360958 15.080950414847319 6.542258677688562 0 0 0
690 0 2 0 0.28373098571597116 16.495389770483573 11.947540721884526 0 0 0
487 0 1 0 13.939200668017572 0.5683463671770719 5.914057586045445 -1 1 0
512 0 2 0 -4.469058685593121 8.015681882967293 10.79061309698478 1 1 0
975 0 2 0 -3.930423865168898 15.317948989358479 9.03473403364217 0 0 0
296 0 2 0 8.528379917784504 4.555351978408919 1.6992082788903975 0 0 0
642 0 2 0 11.442828255973783 1.645360374481358 7.911314705475803 1 0 0
738 0 2 0 5.030906214675738 15.288324229561638 5.336290767044506 0 0 0
1198 0 1 0 1.3337411044406147 6.391423469929641 4.339823070378551 1 1 0
146 0 2 0 2.867253684949088 7.601836909003975 -0.34978988133782785 0 0 0
1280 0 2 0 8.753987352549675 5.261067062264513 4.180621950398071 1 0 0
15 0 2 0 4.111001056193493 5.241608335969971 3.7024120055423113 1 0 0
251 0 2 0 9.91208531217521 3.79931566331856 10.725618566943345 0 1 0
38 0 2 0 2.749335770667365 8.645593382590876 7.607680269769073 1 0 0
1033 0 1 0 -2.497819879121895 10.488811045484264 2.1578519029905343 1 1 0
2403 0 2 0 0.6964142334384305 11.188478428873411 2.0343025512242465 0 0 0
1091 0 2 0 2.1209322294590196 12.843300539844478 1.1234291579435924 0 0 0
466 0 1 0 -0.7057309310908481 4.1304430225889 -0.19704643888671447 1 0 0
97 0 1 0 8.75123725213668 10.874266538883766 11.681867982464542 0 -1 0
1104 0 2 0 8.5852993956214 14.085915107778348 2.858811452202272 -1 0 0
1180 0 1 0 3.663112646745561 11.094792128764313 -0.48389834906004964 0 0 0
1159 0 1 0 7.975385276574637 5.083151447154016 13.366081752779941 0 1 0
791 0 2 0 1.687773651684302 5.007984382727473 10.65012201891386 0 -1 0
1027 0 1 0 1.0353234441853725 -2.224083040597283 11.201809145243063 1 1 0
1031 0 2 0 1.2377144489281542 15.849662780846872 14.129615643515189 -1 0 0
684 0 2 0 -3.2196542139212814 14.434355989955298 6.927156197118188 0 -1 0
691 0 1 0 -0.6880762491428887 5.507186711794031 13.604606695051281 1 0 0
620 0 2 0 -4.23579412414536 12.844286410543827 14.574587323045794 1 0 0
1183 0 1 0 8.700809529194041 11.675659546797378 0.8113493618443919 1 0 0
733 0 1 0 0.6942574685763299 18.41708487876671 -0.32459571346934357 0 0 0
445 0 1 0 4.804974395115969 -3.6050239887603746 11.544207339536428 0 0 0
214 0 1 0 1.7670747502365525 6.959183888906249 10.387356060929871 1 0 0
383 0 2 0 7.507633492340219 1.4563477152823716 3.962436808959313 0 0 0
239 0 2 0 1.643997765036077 -0.294205230811701 0.498369085903962 1 0 0
1170 0 2 0 -0.9298467242007765 2.207872988069256 14.416391184805883 0 0 0
788 0 2 0 -1.2052065352588706 1.300775812684667 7.05274004189462 -1 0 0
1134 0 2 0 -3.2808957055783425 11.399154554615306 -0.7066557411950196 1 0 0
98 0 2 0 8.692112577818579 10.49137047546711 10.725595955500763 0 0 0
490 0 1 0 7.851573495250827 15.812808415025252 0.5841125140064236 1 1 0
308 0 2 0 6.901044022840235 3.151249094429102 -0.5228763827283802 1 0 0
337 0 1 0 -4.04242861269885 9.397788113996544 8.241964125166428 1 -1 0
799 0 1 0 10.632381144402371 1.0620300154069082 4.868914228431593 1 1 0
47 0 2 0 -1.0276764784423904 13.521552914164623 11.744370490612086 1 1 0
1211 0 2 0 6.465254591223963 7.841186030084299 0.04551869120349472 1 1 0
359 0 2 0 9.92859069377918 4.826130572670715 7.402884383680233 0 0 0
1098 0 2 0 13.518387136204778 1.5163630022154324 3.466498544235175 0 0 0
360 0 2 0 10.019035817226905 3.3339031163274524 7.234741689092877 0 0 0
603 0 2 0 0.10280807348948115 19.73735450243608 2.6139727255775025 0 -1 0
340 0 1 0 2.958954837914969 -2.0066214493930654 13.413824418066117 0 1 0
66 0 2 0 5.112039886780146 2.4056001214589173 5.313021125899379 0 -1 0
1191 0 2 0 6.869262817880272 5.8728134677528185 14.989033582598104 0 -1 0
1008 0 2 0 -6.85320497618276 17.25989124185237 0.10446584089145816 0 -1 0
1448 0 2 0 3.1798815667824005 10.876387613144619 4.931346734744443 0 0 0
375 0 2 0 6.508035284921433 16.06404784325104 3.4107274624190627 0 -1 0
1057 0 1 0 10.798209951809133 1.2020488610780173 11.582013430749369 0 2 0
314 0 2 0 3.024519752759316 1.087302800297218 -0.6572275084973382 1 0 0
641 0 2 0 10.837313974934382 1.6000406859159582 6.449372133801619 1 0 0
300 0 2 0 -0.2827672862163535 15.74220291160089 1.3960679702737746 0 0 0
1142 0 2 0 -5.085668587662705 13.465047750890202 2.582739389306934 1 0 0
317 0 2 0 2.212280010793464 1.0835044885005756 3.364749832155945 0 0 0
222 0 2 0 -7.494944576909821 17.416992503657788 5.261249147510029 1 0 0
670 0 1 0 6.573019689233824 17.48190813142468 8.544895823518294 0 0 0
1141 0 1 0 -5.256478857562919 13.532411367438815 1.6575478748495045 1 0 0
14 0 2 0 2.738074483951595 5.261934593015604 4.251498147095679 1 0 0
747 0 2 0 -0.9703858487161043 9.394680987804476 12.013946304543076 0 0 0
1185 0 2 0 8.787799063999733 11.040999650074058 1.4960246281822314 1 0 0
309 0 2 0 7.492069353369498 4.302311200055905 0.13953793314973018 1 0 1
181 0 1 0 2.8769400595274144 1.9458012865836896 14.18947874762688 0 0 0
138 0 2 0 2.695304695364405 12.097859919646655 8.592025417378226 -1 0 0
806 0 2 0 12.02158418109133 -3.3832089826154617 9.886871269525122 0 0 0
1044 0 2 0 6.312860600985396 0.8967171633814859 10.274592420267222 1 2 0
599 0 2 0 11.239526766634324 0.7624847521509102 14.609104194773213 0 0 0
1227 0 2 0 2.8473037686238634 14.407553288842315 4.425177463879182 0 -1 0
1132 0 1 0 -4.033289154519525 10.824711371651293 -0.551798892346621 1 0 0
1051 0 1 0 0.4825155497785343 14.385419108350794 14.436530949224908 0 -1 0
2438 0 2 0 8.40740785851173 -0.6245842121676279 14.945259001450644 0 0 0
1268 0 2 0 2.9900068025753295 0.4893034252415731 9.960279605845214 1 1 0
580 0 1 0 8.882057137902208 9.920439594491354 9.206595852477125 -1 0 0
978 0 2 0 0.02629388559853474 8.59281637757165 8.591155413281315 0 1 0
1252 0 1 0 4.65010926260825 0.08153094809600869 12.567264554744249 1 2 0
692 0 2 0 0.04654582913873767 4.905692379766887 13.60602906875997 1 0 0
4 0 1 0 5.238660427174461 -0.7496666830490399 7.552292953073637 0 0 0
366 0 2 0 15.307382620534774 -4.580653488790987 15.240357381502704 1 1 0
448 0 1 0 3.9219475757042033 -0.9927551238269485 5.048745089721729 0 0 0
671 0 2 0 6.670087849070699 17.38123903092869 9.501583609616109 0 0 0
683 0 2 0 -1.6975297408912606 14.147124725282072 6.902785415944979 0 -1 0
382 0 1 0 8.042930193876662 2.251968897032436 3.9214381662530293 0 0 0
898 0 1 0 9.471278226406541 -0.23767682280543623 9.255601237457018 1 1 0
397 0 1 0 -4.187944728356703 12.104368096395662 10.726561431171067 2 0 0
973 0 1 0 -3.419528271926074 15.728212233976196 9.709952176036722 0 0 0
1009 0 1 0 -1.5105819936052831 5.179801077530626 2.2563766203029316 0 -1 0
184 0 1 0 5.21220665932846 19.539340196945066 4.232136257935157 -1 -1 0
990 0 2 0 5.053083448503411 5.175929497032508 12.104020412457125 1 0 0
2365 0 1 0 4.720651657408871 14.500779209454695 -0.24526971140448783 0 0 0
1222 0 1 0 -7.114887195030112 14.495617235887291 14.703066520199515 1 -1 0
1147 0 1 0 -4.252136166584058 7.399920988880795 14.821114193242087 0 0 0
700 0 1 0 7.319117837878607 8.929153407029236 14.741305350112407 0 0 0
895 0 1 0 -2.895858530074565 5.096806100059814 9.454804337203177 0 1 0
137 0 2 0 2.201312789923042 12.738995063423385 9.894329055655486 0 0 0
1449 0 2 0 2.796309732260119 12.366778819212954 4.52758637083244 0 0 0
145 0 1 0 3.3437667909952657 8.166803782302447 0.3211889674138739 0 0 0
287 0 2 0 4.429450088895034 6.064877855211903 14.913938781201065 1 0 0
1061 0 2 0 -3.9906313098950714 14.752152675760502 4.026982271896738 2 0 0
11 0 2 0 1.8259949763729146 -0.3897684349383739 6.936091296666742 2 2 0
953 0 2 0 12.962351935677443 2.0144882454134323 9.147318207785615 1 1 0
312 0 2 0 -3.353721754014581 15.241456305089041 13.432220060597828 0 0 0
664 0 1 0 10.896102408956441 6.38707075166767 7.742968194800207 0 1 0
1029 0 2 0 0.30736209831978517 -1.5812177620594712 11.285544034980722 1 1 0
674 0 2 0 5.226325154605869 7.194904492307567 4.96017905434358 1 2 0
377 0 2 0 -1.7057420526310065 16.34530809877534 13.55367187505132 0 0 0
1020 0 2 0 -3.0206050426231075 12.001225426090045 5.64877215227308 0 0 0
1077 0 2 0 -1.5175962371654215 18.419868739507052 5.047921876124119 0 -1 0
488 0 2 0 13.28747522841822 0.03242500835364259 6.348051255366061 -1 1 0
577 0 1 0 6.442639488544662 8.87838534835067 8.76553704189358 0 1 0
1096 0 1 0 12.756521911137565 1.2472041994582703 2.9524926022795137 0 0 0
2293 0 1 0 3.932126950791077 9.344050538434356 15.367947980030756 0 0 0
1158 0 2 0 -1.705920175311873 18.879715452939983 1.4413697943009764 0 -1 0
697 0 1 0 4.15100389990543 11.602366138529307 2.1186660819313814 0 -1 0
323 0 2 0 7.520228820487335 11.777021175358083 7.7950421743249905 0 0 0
859 0 1 0 8.635790851059328 2.4033944027323315 14.831898364185822 0 0 0
1048 0 1 0 3.6910061718403324 -4.478449031208441 14.53043639871408 1 1 0
1047 0 2 0 10.031093696898658 4.817033390822323 13.476439538132501 0 1 0
1094 0 2 0 -1.0878903086187368 5.836816693781065 11.787047307211823 0 0 0
2306 0 2 0 0.759713098880404 10.50857945094798 -0.19857295641515116 0 0 0
909 0 2 0 8.796986070294082 8.899223242206215 13.823541862878294 0 -1 0
234 0 2 0 4.482089418167 18.677816227740887 5.758849344178551 1 0 0
550 0 1 0 5.887830308653169 6.268559255000506 9.1764303564117 1 1 0
409 0 1 0 -5.682748951142022 9.566545829791576 13.408443362603677 1 -1 0
707 0 2 0 3.170312182658664 3.664652271878474 -0.7052747963748489 1 1 0
1269 0 2 0 3.5718271016640815 -0.8807059307550649 9.633713771469344 1 1 0
480 0 2 0 5.960702677225074 1.5133090476266577 0.8847947793322697 0 1 0
1263 0 2 0 10.329874960922254 6.857755081110893 4.181269536756791 0 0 0
1084 0 1 0 -2.5443332247096127 9.630851422192624 14.638250052131616 1 0 0
183 0 2 0 3.179032708588624 1.175066460434076 13.709008210258785 0 0 0
570 0 2 0 3.8679942563663556 19.524615679148603 1.196786291976231 0 0 0
275 0 2 0 7.0027929416405295 1.2137489204816685 14.524472392702268 0 0 0
407 0 2 0 3.9572853446085805 2.440818061491935 1.8681285524281903 0 0 0
656 0 2 0 13.124059471245637 -1.6314062678427907 14.192436595563025 0 1 0
779 0 2 0 6.273812037026781 10.58071877920375 3.0845734470221884 -1 0 0
473 0 2 0 6.885608737114454 -1.270123900802199 10.002586908137165 -1 0 0
805 0 1 0 12.258855229155673 -2.678155913011412 10.473496661535682 0 0 0
1265 0 2 0 2.109862708664651 16.282466156892344 8.255034042047498 1 1 0
778 0 1 0 6.84045002297883 10.183307416333497 2.389308487085024 -1 0 0
1075 0 1 0 -1.2966537944194294 18.992753877682897 4.290254485311778 0 -1 0
558 0 2 0 8.473119008166275 7.324004862379306 5.4415208140971805 0 1 0
322 0 1 0 6.888697707423402 12.460729051262932 8.053018669186145 0 0 0
553 0 1 0 0.6463438798550819 9.886515156625515 3.1869947858367995 1 0 0
215 0 2 0 0.8386907865873678 6.9122011591318415 10.064645347492252 1 0 0
1224 0 2 0 -6.340294695325626 13.852663736751163 14.748058526431262 1 -1 0
1016 0 2 0 11.272990956710187 3.8583651186733707 1.9191048579376835 0 1 0
83 0 2 0 0.7488918293650462 -3.9321418330396947 15.162264358397763 0 0 0
128 0 2 0 9.408441472678598 10.207193976437754 5.42122027385165 0 0 0
783 0 2 0 3.890389305747367 5.105186877979968 1.2062655351001506 0 0 0
1069 0 1 0 3.9896778938488917 12.219918125889986 13.142592549291942 0 -1 0
676 0 1 0 1.5554018966836707 19.66788317423555 3.6906131433413867 -1 -1 0
987 0 2 0 0.28288717466910496 17.660338148636708 9.748805983062722 1 -1 0
1161 0 2 0 8.22615193011573 5.74712060388743 12.696101603282232 0 1 0
95 0 2 0 14.188672057018184 -2.585810506324065 12.87384375815312 0 0 0
1278 0 2 0 5.673736560029121 18.56213886963509 0.5301498845192818 0 0 0
1242 0 2 0 6.11646992615756 13.648480977954318 0.7493272623585281 0 0 0
371 0 2 0 12.53115049846989 -1.8466355924930569 7.218632748171373 1 1 0
232 0 1 0 4.393366716020596 18.012936057130236 6.485299735399484 1 0 0
224 0 2 0 5.8096924286385185 14.75756554459415 8.08958557135658 1 2 0
408 0 2 0 4.7618669735000845 1.6376207401720286 3.00008761284751 0 0 0
140 0 2 0 13.69120031923761 1.0091016485169397 1.2595531475958968 0 0 0
12 0 2 0 1.6261401353096765 -1.8754850892099708 6.441914607018391 2 2 0
555 0 2 0 0.3204820915945695 10.44415446805347 3.906597615477213 0 0 0
2 0 2 0 11.77389519084062 8.20478250059591 0.3844162110212137 0 0 0
759 0 2 0 -5.278112365901258 17.27947369309629 6.2616051638034005 0 0 0
1251 0 2 0 1.9111943840743644 7.505887393683897 1.594361593278094 0 -1 0
559 0 1 0 -4.828612977083687 14.355220467994352 7.513874367249967 0 -1 0
952 0 1 0 12.45358536005397 1.2284110139512108 9.403435972183274 1 1 0
452 0 2 0 -0.061241094149942554 16.456597484645293 7.005772513027919 1 0 0
565 0 1 0 0.3531175927876917 10.544847335640892 12.79662109024126 1 -1 0
1279 0 1 0 9.548844606697745 4.75098792554397 4.395780114904683 1 0 0
557 0 2 0 8.554657194712988 8.256013544979746 6.609918409410961 0 1 0
1070 0 2 0 3.6343908009653108 12.521645051898233 14.007974258390101 0 -1 0
7 0 1 0 0.1658824765321184 13.400350817694797 7.006808561516431 0 0 0
736 0 1 0 4.107063693675942 15.337409608978918 5.580356412465926 0 0 0
274 0 1 0 6.612408087055333 0.4006857485772928 14.289944969234773 0 0 0
481 0 1 0 -1.6749063282050964 6.0460410764159 5.96101972348867 1 1 0
1040 0 2 0 3.243841971451314 1.3221264702980986 8.0517270884367 1 0 0
1015 0 1 0 11.009224174938835 3.2200673440263556 2.650078831004296 0 1 0
954 0 2 0 13.12600509107027 0.5397711090436075 9.318027320993606 1 1 0
1032 0 2 0 2.6792449320338947 15.96279247188983 14.668774714031015 -1 0 0
1253 0 2 0 4.122373325402305 -0.7159472688947015 12.796752201194632 1 2 0
395 0 2 0 6.1804509341294445 4.346210099134128 5.440841663221492 1 1 0
1039 0 1 0 2.842709757116637 1.0977315710985582 7.187475070430253 1 0 0
567 0 2 0 0.09594093929419684 11.489082449247242 12.824310765479243 1 -1 0
1074 0 2 0 5.353640320345028 2.779520751510857 12.49403888808425 0 -1 0
657 0 2 0 12.02053131959294 -2.0896244768338486 13.16203548064598 0 1 0
543 0 2 0 7.215310224788031 11.013373662060847 14.724824578518028 0 -1 0
913 0 1 0 5.257327559640673 8.697898748026866 12.94292120513245 0 0 0
511 0 1 0 -4.007069684357198 8.838101013377734 11.025662261104376 1 1 0
1172 0 2 0 2.3802341311376907 3.462554965979815 13.672915093752376 0 0 0
150 0 2 0 9.651892306736425 -2.542061685383483 6.9861888708810165 1 2 0
2186 0 2 0 -1.538275298883368 7.694609447482266 0.23855418166389009 0 0 1
5 0 2 0 4.882575865139503 -0.3504149753762853 8.358883778750688 0 0 0
392 0 2 0 5.949529853807863 -0.18929124598158364 2.8306361149124206 1 2 0
545 0 2 0 10.725046476077791 -0.8019374303689375 12.24102355495021 0 0 0
457 0 1 0 5.655945462042853 9.899091755614041 6.578737208765183 0 0 0
458 0 2 0 6.369567034696521 9.46302034353452 6.9725563275278155 0 0 0
459 0 2 0 5.412830392746446 9.30920593643433 5.865697005718684 0 0 0
1230 0 2 0 7.629125784416943 2.159302069620076 11.71353056255412 0 0 0
449 0 2 0 4.657314054895131 -0.9279761104123116 4.449097215503402 0 0 0
297 0 2 0 7.840189164176541 3.6365288927441286 2.7857467184042326 0 -1 0
1160 0 2 0 7.332348533858049 4.562254011815199 12.883585664568367 0 1 0
594 0 2 0 -5.3922775080735255 15.134881022593971 12.161529325706669 1 0 0
99 0 2 0 7.949023414378672 11.301740923890748 11.955293692212068 0 -1 0
63 0 2 0 -0.3119732390450083 10.021140091583602 10.122285760873686 1 -1 0
119 0 2 0 3.8888577265039337 11.932653262695172 6.6525569538437175 1 0 0
286 0 1 0 3.5130153996636473 6.2872750132060755 14.794320112199895 1 0 0
494 0 2 0 -0.07330549863694968 5.728127505666361 8.10548540666798 1 0 0
976 0 1 0 0.09601739962954203 7.7644092102972415 8.144176560804967 0 1 0
424 0 1 0 5.194080031288649 10.34155788471083 10.351149462125482 1 0 0
790 0 1 0 1.8618513783448751 4.086262951119865 10.855509596029504 0 -1 0
955 0 1 0 -0.6128990653564907 13.366509289085249 3.830236838402355 0 -1 0
1228 0 1 0 8.401282803418281 2.472535834846945 12.2046409401764 0 0 0
744 0 2 0 -6.649123560386596 17.17325559146045 8.550891031877482 0 0 0
1277 0 2 0 6.340818805915782 19.815344196296195 1.2118063738525877 0 0 0
579 0 2 0 6.28995348260864 7.957753921825779 8.874664231985413 0 1 0
786 0 2 0 13.21995957819004 2.4466873436232017 6.14804472231794 -1 0 0
305 0 2 0 2.964796449711353 3.175367425270126 9.788061812408095 0 0 0
865 0 1 0 -6.663731488429392 16.375968529572567 11.714060554376719 -1 0 0
598 0 1 0 11.115625818542288 1.6061259675412227 14.169534951851723 0 0 0
934 0 1 0 3.217643443975258 16.396815338172456 2.253016100553475 0 -1 0
1167 0 2 0 -4.732642337340106 20.68675812174987 0.7953370144131322 1 0 0
886 0 1 0 -1.935555792342598 8.936637844156534 6.60710861121218 1 0 0
945 0 2 0 -0.42204139407436314 0.8172958592477642 1.1814888303048634 0 0 0
1184 0 2 0 7.811489149348574 12.026907226714705 0.9052825763988825 1 0 0
79 0 1 0 -6.915329478385637 15.695057797944605 4.603944172655175 1 0 0
425 0 2 0 5.5500202872869115 11.2083952817748 10.435681113965751 1 0 0
367 0 1 0 6.1113681903836286 11.799993428129447 4.728031467921887 1 0 0
977 0 2 0 0.6081936470543841 7.97499521118584 7.395501893557173 0 1 0
1045 0 1 0 10.963170401457567 4.991213892614917 13.622553646300041 0 1 0
600 0 2 0 10.235973159612096 1.917042494646326 14.523961206028995 0 0 0
1073 0 2 0 5.072754045498926 3.406886019600085 13.831958949959857 0 0 0
276 0 2 0 5.888680031382513 0.7379141563845844 13.683239691561315 0 0 0
402 0 2 0 6.046626117457398 5.23682757397676 2.167641123551355 1 2 0
2509 0 1 0 11.204586458642728 0.33055169018019925 -0.29374685377042997 0 0 0
384 0 2 0 7.730238641798122 2.8168607853810954 4.636289821067743 0 0 0
544 0 1 0 10.600989492783244 -1.7353489235672237 12.451056960830126 0 0 0
76 0 1 0 9.282551266597459 5.947599000531389 0.9557230882637113 1 1 0
899 0 2 0 9.329685050070445 0.13621610368503845 8.397724058169292 1 1 0
1095 0 2 0 -1.551297162724901 5.843755246857086 10.332337556851295 0 0 0
673 0 1 0 5.379244557869828 8.010254401140646 4.447122972833532 1 2 0
842 0 2 0 8.00041404847661 1.1614074375588936 6.509893833254342 1 2 0
581 0 2 0 7.999086854043055 9.581170434904616 9.02258350937028 -1 0 0
1115 0 2 0 1.9304443701069585 3.483531080235558 1.875172798621572 0 1 0
596 0 2 0 1.16112444412047 1.991004788394168 10.673744435166435 0 1 0
279 0 2 0 3.279360381873735 10.311541837784269 3.1217641614264253 0 1 0
472 0 1 0 7.2385899104611635 -0.5771817308170348 10.597039856791023 -1 0 0
2486 0 2 0 5.202128337303742 16.45104583098427 -0.28685518373178887 0 0 0
546 0 2 0 9.848539181865805 -1.8473118456867637 13.059458200753426 0 0 0
1249 0 1 0 1.355581656729863 6.713530356757782 1.6047004321844462 0 0 0
451 0 1 0 0.8294049261686691 16.013056637944338 6.934060474105603 1 0 0
593 0 2 0 -4.081345813328832 15.490597847068607 11.388336625819582 1 0 0
860 0 2 0 8.533343289198452 2.525657610408782 13.859201692569174 0 0 0
65 0 2 0 3.863577349286032 3.1188926733630806 4.8875401201081745 0 -1 0
905 0 2 0 -1.9040074078637859 8.212142591490208 3.049394606382686 0 0 1
238 0 1 0 1.0171002790441805 -0.46155978251695695 1.1947690429311115 1 0 0
782 0 2 0 2.3928537715415596 5.452538023752836 1.0423455928871332 0 0 0
542 0 2 0 7.122785196995211 12.592835819759788 14.785312465780931 0 -1 0
428 0 2 0 -2.31644450519191 13.442146279581618 0.56232542133192 0 0 0
1059 0 2 0 11.154135496144125 1.512738621725605 12.431233490920114 0 2 0
278 0 2 0 2.320858092533035 9.210651804653615 3.5566410557862804 0 1 0
869 0 2 0 5.47955723531477 6.177612125745877 7.146978616081155 0 -1 0
1018 0 1 0 -2.675007280947675 11.669216872543538 4.790238810595415 0 0 0
640 0 1 0 10.619889594033133 1.679589387619111 7.391568655687262 1 0 0
896 0 2 0 -2.895715274897479 5.248014479516229 8.466174173166184 0 0 0
373 0 1 0 6.139707860611718 16.36517117411987 2.5756310418726325 0 -1 0
1046 0 2 0 11.508054260187306 4.45487109898644 13.02090480684927 0 1 0
539 0 2 0 0.8867435383080235 10.63524289080541 14.665665546622309 0 0 0
249 0 2 0 7.138622431320104 7.652441804060569 3.746821388407474 0 1 0
1041 0 2 0 3.3505654675767103 1.4944497602746192 6.440443344009144 1 0 0
1266 0 2 0 3.4591182007358405 15.756931840592328 8.717213070405483 1 1 0
732 0 2 0 -1.719191302969859 12.828690960066298 9.048852419945645 0 -1 0
2566 0 1 0 2.72735297699239 -2.417081679522088 9.217761606330624 1 1 1
264 0 2 0 6.509684998823747 13.219108800190877 9.81412516518658 0 -1 0
696 0 2 0 11.910590428769357 4.494517671238403 9.181161251854613 0 0 0
888 0 2 0 -1.1362870427247578 8.668782680632754 7.123206006781109 1 0 0
67 0 1 0 0.07154700534904057 4.043576251227251 4.7683593769292125 0 0 0
1028 0 2 0 1.4134261542625453 -2.232808528475794 12.069213271731172 1 1 0
963 0 2 0 3.270554472224346 5.362114769494793 6.2960244749069485 0 0 0
668 0 2 0 3.4099659230916526 13.320499481655204 11.737959465263085 1 0 0
2185 0 1 0 -0.6303102482848506 7.440687218803552 -0.06990382134542472 0 0 0
861 0 2 0 8.371965666966677 3.206178549966231 15.349140235631506 0 0 0
887 0 2 0 -2.631328021176859 9.071204596278413 7.338316047806616 1 0 0
757 0 1 0 -4.69282873858323 17.79346984660446 5.678279541097522 0 0 0
606 0 2 0 2.4237167077839143 16.770831340187943 3.803431970533561 0 0 0
1165 0 1 0 -4.363872947213038 20.297959827380037 1.593133858130988 1 0 0
792 0 2 0 2.1366649096446317 4.083248739822061 11.786223889720725 0 -1 0
605 0 2 0 1.4078692288518564 17.85784563150486 4.270284539488207 0 0 0
1120 0 1 0 -3.528725591215934 8.965519280419919 4.367996940623266 0 -1 0
1179 0 2 0 13.475766794556685 -1.3270566911734951 10.096132722824242 0 0 0
661 0 1 0 -0.49323617799722635 1.2866731514611276 12.86023955986471 0 0 0
495 0 2 0 1.2892012605629692 5.2074361458232366 8.038147793487925 1 0 0
311 0 2 0 -2.584139388515166 14.851625261719407 14.746706936009796 0 0 0
69 0 2 0 0.29188678805377 3.4145015797504614 5.504531533216862 0 0 0
378 0 2 0 7.73688218940793 -3.434941019223624 13.075243059004896 0 1 0
1090 0 1 0 2.4628819916031848 13.77065464114794 1.0473461525784515 0 0 0
866 0 2 0 -6.1162313747167145 17.17256226814164 11.460393758068319 -1 0 0
467 0 2 0 -0.6079558735013262 4.558330609242027 0.6675353790242204 1 0 0
307 0 1 0 7.180003733187769 4.063599486456245 -0.7467999147785169 1 0 0
248 0 2 0 8.119300970476186 6.935095336989349 2.6966343558109287 0 1 0
1210 0 1 0 5.906297793094084 7.952084087495651 0.8883101206835251 1 1 0
745 0 1 0 -1.2880789664140715 9.074010923240394 11.159074710377395 0 0 0
1053 0 2 0 -0.054788027367137226 13.97633694162824 13.74265280867848 0 -1 0
915 0 2 0 4.687720207326531 7.969748825422566 12.711859996655257 0 0 0
1017 0 2 0 10.731998220955964 3.744087657129141 3.4556053821685904 0 1 0
369 0 2 0 5.148047832272232 11.914275884252248 4.589653005309773 1 0 0
1240 0 1 0 6.4732879313146725 13.12464185965703 1.481969385888514 0 0 0
78 0 2 0 10.209077326200891 5.832001190646049 0.7649086919437897 1 1 0
689 0 2 0 1.5768828527002403 16.083057952595347 11.172698438259275 0 0 0
1223 0 2 0 -6.731947112544706 15.427440944275359 14.592667140844101 1 -1 0
48 0 2 0 -1.8185643582527886 12.6817698441983 12.79189572567905 1 1 0
450 0 2 0 3.7914016273503317 -1.9580457386628571 5.177562776519627 0 0 0
985 0 1 0 9.184948323723797 -3.1448820977691643 8.964213492870396 1 0 0
1181 0 2 0 4.554480506473361 11.148694518883712 -0.8314849640573008 0 0 0
532 0 1 0 7.566524815469542 15.23378849151958 7.478694809091415 -1 -2 0
731 0 2 0 -1.3689059992891266 11.482024021264891 8.746739917816074 0 -1 0
900 0 2 0 10.186617853976479 0.2564243431378652 9.63046748338515 1 1 0
868 0 1 0 6.136547216909277 6.2690903245957195 6.4368785234828865 0 -1 0
1247 0 2 0 -2.6328020601840185 11.080495523202949 13.646390242865795 0 0 0
1296 0 2 0 7.130502777494295 14.337208759256704 4.612988635829821 0 0 0
910 0 1 0 -0.32688359928189237 8.169953726769366 14.658233907458184 1 1 0
10 0 1 0 1.6598772542745592 -1.301100922985523 7.239778311516384 2 2 0
1072 0 1 0 5.5424324277141555 3.587527783904622 13.024437667498923 0 -1 0
522 0 2 0 12.408482973169248 5.898905296491333 0.8259727934710912 1 0 0
127 0 1 0 8.452931142971668 10.059166584541195 5.564229789293535 0 0 0
401 0 2 0 5.472306439994759 6.622817077750584 2.014916553837366 1 2 0
52 0 1 0 -2.1199609448288945 17.25197961494171 6.594443943071295 0 -1 0
1267 0 1 0 3.84391349433633 0.003912726209284401 9.907051071341245 1 1 0
935 0 2 0 2.769373334266936 16.60431148469621 1.4181844025454517 0 -1 0
867 0 2 0 -6.860220073436728 15.835948306307497 10.891561948716495 -1 0 0
313 0 1 0 3.101267313449614 0.1486412268812992 -0.465258623707876 0 0 0
1010 0 2 0 -1.7950411905738206 4.669462277996658 3.049773175065739 0 -1 0
801 0 2 0 9.906191008691733 1.4010607356476934 4.35847708258868 1 1 0
988 0 1 0 4.667930355144209 5.970903079456498 11.698455912229283 1 0 0
1099 0 1 0 1.9906853583694766 7.990566374919138 13.121539552478815 -1 -1 0
247 0 1 0 7.9332282784897785 7.051009065095641 3.6673444896211835 0 1 0
61 0 1 0 -0.08812286950331788 10.292651154257868 9.225903609197227 1 -1 0
648 0 2 0 -5.5770802196825215 19.25326058418415 2.5739572741977024 -1 -2 0
1274 0 2 0 2.8576518465525704 16.608169776810445 12.693574544843075 1 1 0
6 0 2 0 4.790446737291218 -0.6201697126310681 6.692806336693663 0 0 0
796 0 1 0 10.507470421495475 7.962878507573581 9.898264726783793 -1 1 0
2402 0 2 0 -0.2307880926571484 11.885475258189508 0.9589091545366122 0 0 1
961 0 1 0 3.2688122733818354 5.461818995526784 7.247636927923576 0 0 0
667 0 1 0 3.3595217606736805 13.695049605326014 10.844545450900684 0 0 0
582 0 2 0 9.437983378144724 9.210993292103417 9.398535276527104 -1 0 0
1275 0 2 0 3.5905522976393787 17.043699540242404 11.370044915525025 1 1 0
230 0 2 0 7.288257938467477 -3.0118144029772496 8.850754550569553 0 0 0
798 0 2 0 10.779106341221995 7.374359795820361 9.177680468531829 -1 1 0
1248 0 2 0 -3.3184847837723717 11.640986313095251 12.319148180448972 0 0 0
554 0 2 0 -0.018340097711274594 9.241020209107544 3.0127166831184615 1 0 0
446 0 2 0 5.054244452022961 -2.816461811713501 12.134351390995004 0 0 0
962 0 2 0 3.10200357430556 6.379831133539754 7.458902297810228 0 0 0
1116 0 2 0 1.0364727165188927 3.1628811618962547 3.086363136937603 0 1 0
252 0 2 0 9.822612550933975 5.263234861329106 10.357643024360168 0 1 0
391 0 1 0 6.23745865366487 -0.22001728755402006 3.720200390351189 1 2 0
1264 0 1 0 2.7323790016678697 16.342256050582517 8.96872628389746 1 1 0
341 0 2 0 2.4823433631662644 -1.4451984586247124 14.048195724418031 0 1 0
1171 0 1 0 2.136807922223327 4.3923248123135785 13.380449450800592 0 0 0
1055 0 2 0 0.47267508507646244 3.2852317466270646 7.735890814314109 0 0 0
1254 0 2 0 4.67702163293583 0.08205352979833691 11.597481073389973 1 2 0
655 0 1 0 12.833816664649987 -2.3540601224089275 13.640297698002772 0 1 0
1200 0 2 0 0.8867428827936924 5.537255800101811 4.662024588145861 1 1 0
1085 0 2 0 -3.2363690139324914 8.970140049526702 14.815116524855664 1 0 0
906 0 2 0 -1.0659799981219293 7.441423976000926 4.09567252137719 0 0 0
453 0 2 0 1.192287363488119 16.11883008240701 6.01988092213786 1 0 0
374 0 2 0 6.527389138731359 17.22700460346274 2.4153220639406077 0 -1 0
547 0 1 0 -3.4797857611946426 14.461575695129616 -0.1760778973872923 0 -1 0
1103 0 2 0 7.540903684947399 13.026045658588151 3.3615897868104234 -1 0 0
601 0 1 0 -0.34685394614951115 19.91466466515808 1.7179345675619828 0 -1 0
994 0 1 0 8.301878435928515 6.537936111359652 11.003670597137605 1 0 0
619 0 1 0 -4.8116019896151 13.0349534781517 15.318764729264 1 0 0
702 0 2 0 6.560016643042126 8.676890398178134 14.246565938317195 0 0 0
338 0 2 0 -3.955017846519901 9.409168058137535 9.193020583922332 1 -1 0
1042 0 1 0 6.113585511015358 1.8484543729149037 10.272690845635621 1 2 0
299 0 2 0 0.5584426416447066 16.473855052196985 0.3307943170038752 0 0 0
841 0 1 0 7.91552730471369 0.3648958369168369 7.0311455822503515 1 2 0
225 0 2 0 4.671861622012143 13.623781920398631 7.981294846618054 1 2 0
223 0 1 0 4.847998363286833 14.582935356976561 8.075402412464486 1 2 0
1043 0 2 0 5.2066184008790914 1.994677391415057 10.02586445281856 1 2 0
551 0 2 0 6.411251285561602 5.47270350762297 9.054032671369242 1 1 0
646 0 1 0 -6.0825670246348205 18.491594195157685 2.6903118573849105 -1 -2 0
129 0 2 0 7.869035590152054 10.659384866263569 5.101623727622178 0 0 0
330 0 2 0 -0.5170753873347282 14.98356158097471 10.459118785924632 -1 -1 0
576 0 2 0 3.1836146430049856 10.912631740724743 12.363838101010726 1 1 0