LAMMPS data file via write_data, version 23 Jun 2022, timestep = 15593000

2592 atoms
2 atom types

0 30.933001 xlo xhi
0 21.326696 ylo yhi
-0.7970126622976768 31.75424561298925 zlo zhi
-9.140633 0.9881987977457298 -10.82937840141949 xy xz yz

Masses

1 1.008
2 15.999

Atoms # full

227 0 2 0 13.83111238158544 -0.33154907283733537 2.9197082224723 0 0 0
1173 0 2 0 0.1421053272987235 5.488003373100184 14.524922506945058 0 0 0
449 0 2 0 4.430541618901783 8.024977244177911 7.032786353506259 0 0 0
80 0 2 0 7.327140819814691 0.4531541960375334 3.807374257303537 1 1 0
831 0 2 0 8.637599475044508 -4.113759266522129 12.596929994575914 1 1 0
1111 0 1 0 6.631316664764757 11.08064312995863 13.030043772128169 1 -1 0
700 0 1 0 8.182048181217585 8.350578650583266 14.511528483622655 0 0 0
2221 0 1 0 8.156714248496499 7.311784793514323 -0.5991446203043005 0 0 0
895 0 1 0 3.322326205890864 11.991923783208401 2.5667277544714766 0 1 0
930 0 2 0 -1.452434240879303 7.849754461588989 5.191200839164958 0 0 0
963 0 2 0 -6.287244109658305 14.18009951730876 7.33371097238892 0 0 0
551 0 2 0 3.3606046085673267 0.3986933871804199 9.830146015252515 1 1 0
1222 0 1 0 -0.8549954522768626 2.345802776377109 3.332918206029313 1 0 0
146 0 2 0 3.798049562151739 7.530206296888635 -0.6170824806476501 0 0 0
423 0 2 0 6.724572814564636 8.222871787132487 8.821943113314225 0 -1 0
376 0 1 0 6.192154014682313 -1.3673241282475739 6.1441084538535256 0 1 0
17 0 2 0 4.917834391835095 9.847109948817785 10.814035062044125 0 -1 0
1006 0 1 0 7.85580510443298 4.538547369139306 2.820133238501258 0 0 0
411 0 2 0 -2.3281937935821957 6.430292573569265 9.238659728848862 1 0 0
2450 0 2 0 -2.268595294956881 16.08419646587409 -0.7420597298750611 0 0 0
711 0 2 0 1.561343559133701 11.341640415975693 11.155567518950336 0 -2 0
614 0 2 0 8.228752924558668 9.70228186348911 6.243625199107495 0 -1 0
737 0 2 0 6.369738057915004 7.562782379330134 1.891797503518566 0 0 0
690 0 2 0 1.776789929853987 16.04870452339489 7.570834789753468 0 0 0
945 0 2 0 6.785790397131109 13.450541944172961 9.348258241652475 0 0 0
378 0 2 0 6.21409513656865 -0.8200680076660483 5.320051189767365 0 1 0
1021 0 1 0 3.010258535537555 2.15356167370997 10.228067179987868 0 0 0
422 0 2 0 6.603602030241164 8.938211694527777 7.514086691646092 0 -1 0
1217 0 2 0 6.066400881409592 -1.1321231040129658 11.885517669553492 1 0 0
738 0 2 0 6.807199280929313 6.99103123629515 0.5692790551006739 0 0 0
187 0 1 0 -2.9317863987472363 14.657586935699022 4.419265698526254 0 -1 0
274 0 1 0 9.506678549929097 -1.6327433944738368 15.43262044216605 0 0 0
861 0 2 0 9.678692037278822 1.6296824401801429 14.799974705604415 0 0 0
67 0 1 0 3.608464368003507 13.88372044480489 6.206426402576286 0 0 0
36 0 2 0 1.0155939084581433 8.511764023061227 8.033921188099733 0 0 0
41 0 2 0 7.522338032165596 4.647788214137103 7.4318265902560885 0 0 0
451 0 1 0 4.318828837196749 5.208048618689462 12.317660837058833 1 0 0
549 0 2 0 9.810531335139789 -0.6793033318190163 5.960635534548808 0 0 0
244 0 1 0 3.830312224470998 0.017105362068524477 -0.2743732478545876 1 0 0
1261 0 1 0 9.695355522873587 11.755588576621953 3.8038126871511206 0 0 0
215 0 2 0 0.038239837290866774 11.981328975674288 12.546278039700626 1 0 0
1275 0 2 0 4.461049805995513 3.988313841984371 5.217124001208151 1 1 0
909 0 2 0 5.7218657307902925 17.493095934316866 7.087135582489534 0 -1 0
1159 0 1 0 2.0664899349393853 5.1558195623821215 9.679328226066824 0 1 0
791 0 2 0 -1.6308526474544185 17.197843536178485 2.1201709414038596 0 -1 0
425 0 2 0 -6.316484870023342 18.893080487268715 3.110179452194064 1 -1 0
1212 0 2 0 5.732049817611125 10.722602972956361 1.6585524880084774 1 1 0
684 0 2 0 4.7880470757431475 4.015301511668019 13.26395786885441 0 -1 0
444 0 2 0 -3.5577292194671823 14.920553792795388 10.296158806637646 0 0 0
566 0 2 0 -1.4163920522460285 11.438921695004609 10.787901325571216 1 -1 0
264 0 2 0 -6.095508094831637 14.038208120194838 14.829797465298373 0 -1 0
112 0 1 0 12.494264598035844 -0.09737105552911052 10.150141310544646 -1 0 0
1062 0 2 0 6.914538777408353 16.50208273436021 11.834627276368028 1 0 0
214 0 1 0 0.9587375937748808 11.960489646020196 12.905095510699553 1 0 0
11 0 2 0 8.299255185558662 16.385890238379922 -0.008299313622770366 1 1 0
398 0 2 0 4.02160891259904 14.214970542197246 12.305756817105511 1 0 0
492 0 2 0 0.5694543568199074 12.114236519218839 5.890710588425206 1 1 0
424 0 1 0 -5.4084988089311485 18.551944671141968 3.286870542056307 1 -1 0
1411 0 1 0 6.446471470181272 7.591314453469581 12.509748204270657 -1 -1 0
452 0 2 0 4.358325777131463 4.719213877630029 11.508065919132928 1 0 0
637 0 1 0 -0.585262710461079 11.460321707696385 8.746074026110593 0 0 0
806 0 2 0 12.576648408333217 3.0657952983720262 12.854401738748471 0 0 0
525 0 2 0 7.390569891246266 5.14721766809574 13.742187930412392 0 -1 0
439 0 1 0 -5.343023082033958 17.311173782417185 7.3278511994195625 0 -1 0
10 0 1 0 7.8961992112177875 15.516928996401843 0.31573545252038016 1 1 0
342 0 2 0 0.1434451161685622 -0.1787901812458692 14.89065312318257 0 1 0
256 0 1 0 -4.2808851776303385 13.170479906737844 1.6989424956879309 1 1 0
294 0 2 0 1.7244200006409718 15.322279299991349 14.189975621614428 0 -1 0
155 0 2 0 7.098983514962254 4.08310621445608 0.9437394081243791 0 0 0
603 0 2 0 -0.5329525430171923 18.274860320222324 6.3519736145942876 0 -1 0
288 0 2 0 -0.03196729201568749 8.3727783807512 10.753830412832095 1 0 0
1203 0 2 0 -7.621693166014592 15.51301305065249 8.42229774732986 0 -1 0
366 0 2 0 4.267498986483312 15.587188999564574 10.351199331889719 1 0 0
523 0 1 0 8.239927098793508 4.946353319203665 13.325878939957988 0 -1 0
524 0 2 0 8.675354212221391 4.4621264139228645 13.989612863881035 0 -1 0
1026 0 2 0 -6.313327035723706 15.279488600695904 3.7653721289643727 0 -1 0
950 0 2 0 3.222524883533639 -1.86313091550743 9.683742066344271 1 0 0
315 0 2 0 5.711568256996331 1.8631340613461855 2.2019439441089004 0 0 0
1074 0 2 0 7.263458047070415 16.61024064817405 2.856698154276071 0 -1 0
904 0 1 0 -0.32899355856824203 3.6087062792325417 0.025327368481111834 0 0 1
986 0 2 0 3.600821381872193 -2.5404530917829327 13.664689986198109 1 0 0
485 0 2 0 0.27343698431524627 16.46303362730213 5.534496467596303 0 0 0
265 0 1 0 11.927950962233492 4.520772459511779 9.145003440577904 0 0 0
987 0 2 0 4.057695809507016 -1.2718541771373513 12.870129565882 1 0 0
27 0 2 0 1.493900385918208 6.272585601574383 12.904909973806541 1 0 0
103 0 1 0 -6.6300379167162635 16.28560480382514 11.309493967189717 1 0 0
1058 0 2 0 -0.7722749489977373 11.979961192727089 4.3032655585757915 0 1 0
1135 0 1 0 4.229429749393109 12.451648717902891 12.771682589031203 0 0 0
12 0 2 0 7.593447506291377 14.996951523557247 -0.43026199245538466 1 1 0
113 0 2 0 12.5085902529265 -0.5273507879903145 11.022432757754801 -1 -1 0
993 0 2 0 3.682386540601066 7.594117374883012 3.602095379945233 1 -1 0
1183 0 1 0 6.553676570115834 12.619819150082652 1.2334873840947918 1 0 0
1205 0 2 0 3.3188840602197893 8.63436013471931 1.579539332427645 0 0 0
788 0 2 0 1.7796843218713037 10.542505601724077 13.251446692570731 -1 0 0
582 0 2 0 12.437311984804944 -1.6520902143544196 8.978449468249313 -1 0 0
548 0 2 0 8.363623651712286 -1.0196420476647376 6.308668570553605 0 0 0
98 0 2 0 4.061192848195325 15.48329925673099 14.562713853921919 0 0 0
44 0 2 0 9.72341737212643 6.02266683157225 5.209230411047748 0 0 0
1268 0 2 0 -4.019815972690479 14.803951562606263 12.887709023280348 1 0 0
859 0 1 0 8.790803072003051 2.019818723236394 14.764920440067565 0 0 0
701 0 2 0 8.484712904849479 7.575270582406689 14.986082886698899 0 0 0
79 0 1 0 7.084721804957332 -0.46833555524288006 3.8418032931538955 1 1 0
498 0 2 0 0.7005012897797773 18.450433197076187 2.985177897060831 0 -1 0
3 0 2 0 10.309629732501538 4.474335773010798 8.752601882096865 0 0 0
472 0 1 0 1.7998371473387318 14.011006029349648 4.064708456724834 -1 -1 0
432 0 2 0 6.015325552199865 10.985206019475926 5.362297656779771 -1 -2 0
1 0 1 0 9.3843100201748 4.285230910262994 8.51134024493818 0 0 0
683 0 2 0 5.814378818992984 2.85290045348623 12.91638572180587 0 -1 0
382 0 1 0 12.25559057268939 4.772767557243454 1.9430280410435272 0 0 0
916 0 1 0 6.900479276998211 16.096865514947574 8.53669206280435 1 1 0
443 0 2 0 -3.0416347057546824 14.91901266950044 8.776142762980347 0 0 0
918 0 2 0 6.112376669693248 16.129797592871732 9.05629777225827 1 1 0
776 0 2 0 6.650824620559499 18.65936008503786 2.357197434157718 0 -1 0
204 0 2 0 0.9811314650381919 1.2633691207820807 7.577677904383014 0 0 0
675 0 2 0 4.383321985312943 18.07613470855097 4.814302165615629 1 1 0
1136 0 2 0 4.141597155036744 12.127344538325257 11.847758074633962 0 0 0
420 0 2 0 -5.461057922289297 10.762501983591145 8.187631209917416 1 0 0
232 0 1 0 -3.199621658813249 10.27152624840551 5.357539262562321 1 0 0
727 0 1 0 1.6203515740179664 13.564416689621211 10.015540953011904 0 0 0
313 0 1 0 5.097871233314325 2.0788062416780972 2.869889285175857 0 0 0
84 0 2 0 0.8184143915119375 -3.93418264516359 14.90497171421137 0 0 0
735 0 2 0 1.0421674401089138 18.026364057936394 0.4321221577729 0 0 0
200 0 2 0 4.0984197721395486 2.0610422915575866 14.207225042659203 0 1 0
668 0 2 0 9.814151716821055 1.2175831813567246 11.369237846495682 1 1 0
1042 0 1 0 -1.2806822290358535 7.341032708885645 12.160685112238452 1 1 0
567 0 2 0 -2.2887046534711657 10.617564744921262 11.606392543541691 1 -1 0
240 0 2 0 -1.339805343016494 13.299658978961794 6.554954249008638 1 -1 0
596 0 2 0 -3.667302625292764 13.585014479483753 6.528820704233532 0 0 0
1112 0 2 0 6.445298028742499 10.449186508938332 13.781107469918465 1 -1 0
2185 0 1 0 0.685821161884638 7.157809191720527 -0.521600400206349 0 0 0
159 0 2 0 -4.0528121632662755 6.170211412581607 13.433397575411682 0 0 0
632 0 2 0 5.804678312283746 3.2929823239320752 15.240234506019656 0 0 0
1242 0 2 0 9.542354848031433 12.146036630176829 0.5940338950176625 0 0 0
499 0 1 0 4.065960778376735 4.555531584155736 8.073671886970107 1 1 0
1254 0 2 0 -1.1752122067802113 16.314971397780035 9.436416477011685 1 1 0
554 0 2 0 8.857056455373847 -0.5834279503437103 9.146638957917414 1 1 0
1134 0 2 0 -3.9123560934169714 10.028545445514176 -0.12490104540647662 1 0 0
1216 0 1 0 5.856065666590758 -0.5112965963879734 12.604616179578619 1 0 0
266 0 2 0 12.030921663871686 4.509852881125987 10.118622461970585 0 0 0
547 0 1 0 9.121087826718826 -0.5303124573573847 6.623011268891503 0 0 0
85 0 1 0 8.59590140191672 7.876582090819552 9.791384959020505 0 0 0
1146 0 2 0 -1.1507709659232954 18.18541530533012 3.8190717558219474 0 0 0
985 0 1 0 3.266794556200118 -1.7750056571710053 13.165651456112439 1 0 0
558 0 2 0 11.008760589972583 0.4291798516651344 3.77136739737497 0 1 0
1276 0 1 0 5.973621825752179 18.622883700184527 0.8637586919338418 0 0 0
912 0 2 0 0.8609645838563676 7.561129273613043 15.083382347042994 1 1 0
815 0 2 0 1.7241088437825889 13.506532170992571 15.254640352893821 1 0 0
809 0 2 0 1.5733372825472807 2.9342722368264123 9.109813815837107 0 0 0
249 0 2 0 0.4840776873054545 0.6227340541268914 1.1235834052542597 0 1 0
42 0 2 0 6.066934805536879 5.2593759261736786 7.54784841491535 0 0 0
37 0 1 0 -1.7810776933733257 3.1615515094279423 7.177111401483063 1 0 0
1095 0 2 0 -3.715128591229385 6.015292523146398 11.324495094318285 0 0 0
905 0 2 0 -0.5593799564417735 2.6756271818145567 0.09708273708244175 0 0 1
149 0 2 0 3.060625635076261 -1.2307344819569315 6.227329046637016 1 1 0
563 0 2 0 0.9084397048922912 4.926090354383117 6.506939143466236 1 -1 0
395 0 2 0 3.0424481963612586 9.862370733822983 4.200958052167371 1 1 0
1066 0 1 0 11.55535168014134 2.021640200062084 8.072305004226967 0 1 0
965 0 2 0 7.6562697646030555 -2.368461347013794 11.604247140136938 0 0 0
600 0 2 0 12.17769368139221 1.2302980810065876 13.921810271760494 0 0 0
105 0 2 0 -6.216802686565305 17.075404129906826 10.865603568276484 1 0 0
226 0 1 0 14.157161515290433 0.17118929949213846 3.684052966553028 0 0 0
35 0 2 0 2.1792234575565006 8.624921910798033 7.067841427892652 0 0 0
1206 0 2 0 2.1761284080815435 9.180552047175992 2.522799544934616 0 0 1
1187 0 2 0 6.840882312263152 -0.9138663072410254 7.79180327154433 0 0 0
781 0 1 0 13.243204216350465 -0.011267350750894245 6.952990022543321 0 0 0
481 0 1 0 -1.0059748799964772 2.0433138416261745 11.513081837823297 1 1 0
40 0 1 0 6.799420010824888 5.077209197869905 6.912782623024882 0 0 0
810 0 2 0 0.5757605683898435 3.55684608929736 8.204748660373829 0 0 0
1201 0 1 0 -7.0439342233279305 14.912470035440158 8.890441483253634 0 -1 0
257 0 2 0 -4.411029652500757 12.927346214812221 2.632422303060872 1 1 0
486 0 2 0 -0.5075674734546529 16.239823021568167 4.305701746310058 0 0 0
1024 0 1 0 -5.691493248571394 15.817562324419017 4.289807266534757 0 -1 0
911 0 2 0 0.9233174111188092 8.64879542381994 13.950142916951407 1 1 0
540 0 2 0 2.959077801827349 10.036506243837401 15.030215581938494 0 -1 0
352 0 1 0 1.3623724628473854 6.1690337623988665 3.8322289923054766 1 0 0
545 0 2 0 10.760093711590132 -3.202418500877621 12.596642267840059 0 0 0
1197 0 2 0 10.481432455736122 -0.015262706834897166 13.312134191214355 0 1 0
413 0 2 0 14.537076043215313 0.29994970370298935 -0.313195808233045 0 0 0
1161 0 2 0 2.7490663374060818 5.884364522256638 9.82783594707606 0 1 0
442 0 1 0 -2.795290239317011 14.704657533504736 9.72990782835534 0 0 0
991 0 1 0 3.992729542498852 7.049856112948273 4.331803784301099 0 -1 0
556 0 1 0 10.515816740515247 1.1335252090091579 3.2373902545899425 0 1 0
884 0 2 0 3.3434307435717905 15.729093485254861 1.9182088559076647 0 -1 0
1181 0 2 0 3.9421289610992623 11.334905861360694 0.6995020633018911 0 0 0
1156 0 1 0 -1.8013222150895447 9.329186250277257 7.561020109008336 0 -1 0
646 0 1 0 1.8805938223687124 5.742507944042658 1.328854402167241 -1 -1 0
1023 0 2 0 2.561750182471891 1.9764829060359532 11.054797560567202 0 0 0
2198 0 2 0 11.7759748274264 2.475257089000426 -0.01915696082724727 0 0 0
1068 0 2 0 11.013205221463554 2.2820679000478608 7.320669675933928 0 1 0
804 0 2 0 6.183695974896782 13.466925698703358 3.01045004018302 0 -1 0
1143 0 2 0 1.3222246038534606 -0.8589899225078101 2.3886329401519704 0 1 0
1251 0 2 0 11.97233868038746 -1.3558946764088375 4.3447910677642945 0 0 0
1189 0 1 0 6.307053261152541 5.898978747369501 15.000085860234442 0 -1 0
96 0 2 0 3.142660461175341 1.0372737330564141 6.814568813098867 0 0 0
2474 0 2 0 7.722564781039427 1.0724329519161817 0.29046922183060686 0 1 1
565 0 1 0 -1.5922571652811888 11.285848839321345 11.695241387883023 1 -1 0
944 0 2 0 7.3139822101908525 13.436960151830402 10.86827735627012 0 0 0
1009 0 1 0 -2.9329943014707927 14.501153257274275 -0.6330679501508728 0 -1 0
197 0 2 0 -0.2682641330474526 4.645283893695038 12.271318116207238 0 0 0
578 0 2 0 2.680525028387206 19.00083654912965 1.6362028772776713 0 0 0
736 0 1 0 6.118292818824536 6.887615790361792 1.2469042194753222 0 0 0
1196 0 2 0 9.583227615903303 -0.9397393398321117 12.397447070913794 0 1 0
340 0 1 0 -0.5861087397859455 0.45361021836455695 14.600425971232884 0 1 0
95 0 2 0 4.065689034312097 1.8524361412848376 5.957524407223889 0 0 0
453 0 2 0 3.4577934465272846 5.7126403233593015 12.109522748157712 1 0 0
1177 0 1 0 6.145888835961342 -2.2406757167156504 10.54661563463026 0 0 0
183 0 2 0 7.892852180075966 1.957000508453615 12.78594923801554 0 0 0
550 0 1 0 2.847949092704288 -0.36764649210441513 9.466252784805986 1 1 0
992 0 2 0 4.955995664065871 6.896627955376556 4.125283009411097 0 -1 0
310 0 1 0 3.8016953919247753 -4.2769542276790355 14.594312944026745 0 1 0
1262 0 2 0 9.895296657924206 11.253332439749286 4.687335292289945 0 0 0
1178 0 2 0 5.1587482192947105 -2.4825394382399564 10.251807871547426 0 0 0
1230 0 2 0 6.771988407535064 -0.6272366262786884 13.97632563858348 0 0 0
399 0 2 0 3.01213685553427 15.350260404592841 12.544217191656871 1 0 0
913 0 1 0 7.711583816987736 8.711821317034579 3.2647316523949232 0 0 0
104 0 2 0 -5.9646998796652975 15.696880047539773 11.724521384074558 1 0 0
1126 0 1 0 -0.9882995514528143 4.985524162527449 4.529934448712874 0 0 1
18 0 2 0 5.2309614330150165 8.767968650621885 11.944239326791896 0 -1 0
850 0 1 0 -5.187501474578519 9.576428225347804 13.268051595869633 0 0 0
141 0 2 0 5.14998401488228 1.7359498356281233 7.769591594698852 0 0 0
1114 0 1 0 11.050238392833757 3.2653693389454395 5.393592275075891 0 1 0
731 0 2 0 9.776519302956864 -0.0835450330265669 1.8319256792248093 0 0 0
457 0 1 0 4.4153411351564555 4.6941445384083185 1.065357873342923 0 0 0
458 0 2 0 5.263937306897222 5.240605418769287 1.1086733140029719 0 0 0
459 0 2 0 4.422267423992148 4.176294856449014 0.2727451418426732 0 0 0
908 0 2 0 4.4802582269228095 18.41560313381291 7.5425252438709585 0 -1 0
783 0 2 0 12.749533114057007 0.750084534943452 7.240865719269076 0 0 0
978 0 2 0 1.5467768858727662 -1.8523417853854536 11.844646000781292 0 2 0
1160 0 2 0 1.5765294386336834 5.059028009328777 10.490645395259781 0 1 0
702 0 2 0 7.635341151306873 7.909109407276218 13.834751171291277 0 0 0
1137 0 2 0 5.086846722799671 11.958865290470508 12.99416753718257 0 0 0
599 0 2 0 12.180951212645027 0.4108963771862859 15.197423040349875 0 0 0
16 0 1 0 4.546552378807262 9.161539713100684 11.380173495155919 0 -1 0
613 0 1 0 7.262641572672946 9.735778973119556 6.098096242070001 0 -1 0
471 0 2 0 -3.6044099417422366 13.052965114082113 9.893377978177659 0 0 0
145 0 1 0 4.100144975478777 8.162288156534602 0.022783347422867806 0 0 0
1179 0 2 0 6.559749509082062 -1.7124298639662534 9.799709967562617 0 0 0
790 0 1 0 -1.524337027630412 16.628218902293753 2.950552671928158 0 -1 0
840 0 2 0 -3.5943410896159516 9.067622965122794 10.614591414426066 2 1 0
657 0 2 0 5.220285539691081 15.148540455761546 6.045501274835646 0 0 0
396 0 2 0 3.8355137478920747 10.522382150633188 5.2523628764412456 1 1 0
2366 0 2 0 4.26874890956935 14.051487496881606 -0.2836664624887506 0 0 1
733 0 1 0 1.205978621839584 17.836499272548807 -0.5154909400024945 0 0 0
198 0 2 0 -0.7958257377378087 3.848381769336688 11.14040959853447 0 0 0
1413 0 2 0 7.113046598629378 7.633615043764545 11.765313027720687 -1 -1 0
708 0 2 0 -4.2149295989226845 20.30970612436256 0.9086658982579836 1 0 0
917 0 2 0 7.557985938738545 15.515824887267778 8.922802068995859 1 1 0
1184 0 2 0 6.366938394003289 13.196229904222163 0.4794901741080211 1 0 0
428 0 2 0 8.809995463851452 11.022723530853401 9.729404221623405 0 0 0
258 0 2 0 -5.154124697339852 13.30273653171546 1.2878997183620555 1 1 0
50 0 2 0 1.7577269924663637 3.468928236031724 4.477528330936669 0 1 0
732 0 2 0 0.9565340835440946 20.80243772177472 0.33831373746109006 0 -1 0
1224 0 2 0 -0.3467604239967712 1.7954795157162768 3.9622705948799277 1 0 0
430 0 1 0 5.2158640846003355 11.523159484274956 5.600987821153369 -1 -2 0
2293 0 1 0 5.857823923709982 9.466442554383343 15.204783329083645 0 0 0
377 0 2 0 5.2630908362963895 -1.3939789410572763 6.514433235955506 0 1 0
2439 0 2 0 8.798060640812192 -4.5878181137060485 14.943427449659632 0 0 0
211 0 1 0 4.714213445547259 11.39394807145324 9.673882519783815 0 0 0
782 0 2 0 13.775769598924372 0.3600956051213169 6.22108937709708 0 0 0
728 0 2 0 1.5947418952368702 14.248767490057785 9.385179319388953 0 0 0
154 0 1 0 7.074194252185548 3.8444945881271186 -0.03491940798855697 0 0 0
1195 0 1 0 10.041759818227893 -0.06260878320819607 12.457189750582833 0 1 0
384 0 2 0 11.317833380514283 5.019829215017751 1.7743792653799537 0 0 0
544 0 1 0 11.072067458461547 -2.8714376851972063 13.453507654574251 0 0 0
76 0 1 0 1.0715690463082703 11.799068220568337 0.4307194097285869 1 1 0
2294 0 2 0 6.584374565140649 8.779701850353433 15.114240691699857 0 0 0
1010 0 2 0 -3.8995834557795326 14.578313961937834 -0.5669462670800187 0 -1 0
360 0 2 0 -3.6608648340237546 16.5512910815753 7.007827595026138 0 -1 0
655 0 1 0 6.179024942205848 15.30052089694782 5.9337075484955895 0 0 0
865 0 1 0 10.163059743939147 9.997780740915172 5.720963119855359 -1 0 0
698 0 2 0 1.99502939999235 10.926823467971921 7.748902743352673 0 -1 0
45 0 2 0 9.223516131061237 5.159913855274156 4.051964583866828 0 0 0
47 0 2 0 0.5596017364953153 10.572218727600134 1.8131446124454436 1 1 0
355 0 1 0 0.40545152923844713 15.123819602993036 0.046189307212949005 0 -1 0
1083 0 2 0 8.925056704174924 7.188782482434991 7.833720159105344 0 -1 0
546 0 2 0 10.370537260427072 -2.4503221131161825 13.958263040895439 0 0 0
1249 0 1 0 11.319209287543202 -0.8238142314298198 4.854696118092609 0 1 0
1038 0 2 0 10.856859321852319 6.713007446459695 10.400211549435316 -1 0 0
1252 0 1 0 -0.32262731872151207 16.539044860625275 9.091681465884838 1 1 0
966 0 2 0 8.975448026749005 -2.240698382630385 10.806751345149731 0 0 0
957 0 2 0 8.799070667269202 1.9052033671883455 3.9098285749752657 0 0 0
1211 0 2 0 4.8762937639379915 10.224320301337322 2.8122501436999316 1 1 0
746 0 2 0 -1.4966790080078458 5.530719652813994 2.671599812693157 0 0 0
1166 0 2 0 -1.4042906107297592 14.418954004202073 11.140550977440856 1 0 0
473 0 2 0 1.0699416887666915 14.560313058129935 4.350232708553999 -1 -1 0
1158 0 2 0 -1.5990026875606067 8.560008622528072 8.081800912703917 0 -1 0
234 0 2 0 -2.594470072466537 9.76532009020152 5.9624192158013285 1 0 0
130 0 1 0 0.7392630440805117 0.3991033211253081 4.591502112819805 1 1 0
286 0 1 0 0.849050270285225 8.297209174490241 10.421568453795489 1 0 0
1087 0 1 0 -6.849010232429096 17.70675762138721 -0.08755248230216439 0 -1 0
843 0 2 0 -4.361627122660786 9.849861258045168 3.0062521389946433 1 0 0
729 0 2 0 2.2516045943165257 13.81499428612908 10.670554842398204 0 0 0
239 0 2 0 -0.3122765514382256 14.301539082085725 7.012959195513672 1 -1 0
196 0 1 0 -0.4274574667336249 4.70037005238154 11.3289911003002 0 0 0
156 0 2 0 6.9709915938858655 2.8658154583594393 -0.05027227692634628 0 0 0
1065 0 2 0 11.012677279751962 4.641311281184579 12.387233416203875 1 0 0
789 0 2 0 2.951314868641844 9.652946085545576 12.663649953703764 -1 0 0
482 0 2 0 -0.06625557221998446 1.9311647200087991 11.691299210280073 1 1 0
1208 0 2 0 0.23903736722494856 -3.432730192326459 12.509132951555356 1 2 0
747 0 2 0 -1.3972968748565417 6.489666948865224 1.5739291985699122 0 0 0
301 0 1 0 7.776580454427239 5.1205333755019655 10.524793134939605 0 0 0
647 0 2 0 1.6492164357580814 6.025536682078065 2.234210245807013 -1 -1 0
34 0 1 0 1.365130391830142 9.072438180300963 7.354547697438658 0 0 0
479 0 2 0 8.962773884541964 5.386754038248305 1.523707484291125 0 1 0
303 0 2 0 8.382343295543679 4.883562718349578 9.774577797359393 0 0 0
305 0 2 0 10.4519610191577 7.109853754480555 3.247522954398499 0 0 0
441 0 2 0 -5.685868315504771 16.439657938769916 7.373093101418197 0 -1 0
318 0 2 0 0.3941487295336681 8.973936097082955 5.655193151020679 0 0 0
237 0 2 0 -4.885217441412953 9.961194725557181 15.26826455108173 0 0 0
730 0 1 0 9.419382302426513 -0.5673320326368531 1.0461907956765801 0 0 0
580 0 1 0 12.303430068434118 -2.5794441596024185 8.728354459237703 -1 0 0
1086 0 2 0 -2.605982795395345 9.063293621180442 15.136984329084163 1 0 0
2295 0 2 0 5.0609913841585925 9.06089256961079 14.898452644228513 0 0 0
792 0 2 0 -2.330598017430157 16.161992131656977 3.0590280717428047 0 -1 0
745 0 1 0 -1.6903578455457806 5.593583800546668 1.7372087556046516 0 0 0
1412 0 2 0 5.9400319717602805 6.798478245057208 12.297521463251616 -1 -1 0
674 0 2 0 3.6111474041556595 17.50058262224182 3.5848486171681486 1 1 0
1170 0 2 0 -2.1408656690051893 3.2507311400149046 14.992932726555996 0 0 0
181 0 1 0 7.229450638208808 1.8555978043040513 12.096468715677046 0 0 0
182 0 2 0 7.683458817916132 2.0675510568659874 11.268796738401921 0 0 0
14 0 2 0 -2.093640053433039 13.540232341915608 0.8115575692341184 1 0 0
15 0 2 0 -1.4255286012640218 12.877410755963465 2.084150544268869 1 0 0
1090 0 1 0 2.7142687080095143 13.934128135785581 0.31430496152507437 0 0 0
1073 0 2 0 7.771435054763068 15.419010935107021 1.9783307830079524 0 0 0
122 0 2 0 12.769585776260133 -1.8361141679213424 12.889773890039764 0 0 0
897 0 2 0 2.5401442609007003 12.307081838929577 2.110588724725853 0 1 0
248 0 2 0 1.7563958595909788 1.3242177276806626 1.6872570302266894 0 1 0
852 0 2 0 -5.3577345261531235 10.368956100133843 12.682091128489965 0 0 0
147 0 2 0 4.892229730693976 7.724288326700638 0.46284397118667253 0 0 0
749 0 2 0 -1.289960835496705 1.6392122331840562 8.421680489062993 1 0 0
469 0 1 0 -3.934782167363502 12.184942473295258 9.770251540482636 0 0 0
468 0 2 0 -4.3837505343079135 8.814699168964339 5.881341291729439 1 0 0
263 0 2 0 -6.096864209021442 15.505726174372677 14.662916228311431 0 -1 0
640 0 1 0 -1.3013548368794017 8.226770417469048 1.006702044479174 1 -1 0
78 0 2 0 1.0783833116730166 11.054767564655657 -0.23045517049219355 1 1 0
689 0 2 0 2.6230525711601924 14.89292026158226 7.2153689019390885 0 0 0
839 0 2 0 -2.551322893686605 8.506106200572436 11.706154876801305 2 1 0
48 0 2 0 -0.1802437608040832 9.221907357070808 1.8497808948475658 1 1 0
500 0 2 0 4.148608535702628 3.9304952068044914 7.291427760132654 1 1 0
667 0 1 0 9.494602752338103 1.9392604191608438 10.75389835933077 0 1 0
1186 0 1 0 7.232474487879566 -0.6502039767201118 8.63782556632562 0 0 0
448 0 1 0 3.5955132084164707 7.556879180536836 6.967016949918301 0 0 0
31 0 1 0 4.105626725159575 6.861193531508663 9.830948226350944 0 0 0
470 0 2 0 -3.187363613224976 11.58403850898318 9.60261417512161 0 0 0
1182 0 2 0 4.146274922525563 9.954540794330285 0.05191242923448036 0 0 0
802 0 1 0 5.501998319299326 13.63625578454485 3.69522839904383 0 -1 0
896 0 2 0 3.8200185483209377 12.740115439957162 2.9430641779817823 0 0 0
910 0 1 0 0.30397290337473254 8.140815840482297 14.545071561343706 1 1 0
714 0 2 0 7.409343998565663 7.340950948141085 4.414578430499733 0 0 0
586 0 1 0 -4.272374669326791 9.410523928002515 9.009021814489222 0 1 0
33 0 2 0 4.131328498991068 7.748065584963308 10.245031797526261 0 0 0
483 0 2 0 -1.2779651913420027 1.6964294148895016 10.687609773438492 1 1 0
1279 0 1 0 8.377289121202647 2.0545125032536804 7.3564220816264765 1 0 0
577 0 1 0 3.501114686264221 19.534926434197754 1.4115106521789405 0 0 0
1267 0 1 0 -4.437929604167992 14.393379565217497 12.075340072884849 1 0 0
142 0 1 0 8.927607175835114 10.078001996884783 11.511125003918467 0 -1 0
715 0 1 0 2.2988015046589076 2.997224975009005 2.4153886928393367 1 0 0
501 0 2 0 3.262179576148764 4.274559315251334 8.431193415426106 1 1 0
1064 0 2 0 10.510948908079435 3.2852294250128518 11.905559638292331 1 0 0
491 0 2 0 1.582855847047499 11.076301499715004 5.338428050441997 1 1 0
281 0 2 0 -0.5530674459920772 -0.43429761095665276 9.231388524373944 0 1 0
867 0 2 0 10.213695104928842 9.098614054231483 5.350737389978703 -1 0 0
247 0 1 0 1.4085318652710765 0.47630378592977474 1.385315976227858 0 1 0
706 0 1 0 -3.7409220411965305 20.04109427195755 1.6702260953663748 1 0 0
797 0 2 0 10.303610207760633 7.296735374650747 12.507772777705679 -1 1 0
798 0 2 0 9.368332991325113 6.148583057740321 12.963575345805882 -1 1 0
1272 0 2 0 0.26425901763382553 2.05479251502518 14.796398309895487 0 0 0
317 0 2 0 0.25872833874967527 9.300179138676066 4.185324716460862 0 0 0
656 0 2 0 6.461897624987215 15.3231421933963 6.862961969357368 0 0 0
962 0 2 0 -5.898700909224535 14.66043529870421 5.806101136660625 0 0 0
830 0 2 0 -0.4785474085385723 15.649285502927786 12.668013378861728 1 -1 0
358 0 1 0 -2.9521290415640307 15.897355922835734 6.9380209605961465 0 -1 0
427 0 1 0 9.050902143441315 11.069462888647102 8.74567787796913 0 0 0
230 0 2 0 -2.3919404348090763 11.600732733199871 14.419176908706904 0 -1 0
144 0 2 0 9.58241381991367 9.879689778224526 12.178915239417394 0 -1 0
1144 0 1 0 -0.43165726214341427 18.65371219060284 4.2500068911493445 0 0 0
474 0 2 0 1.4223092966554998 13.07459732215279 4.220312518454633 -1 -1 0
28 0 1 0 -6.098751277379044 15.155893354451935 -0.08309395757441518 1 0 0
94 0 1 0 3.657560108735026 1.8365717657884684 6.817789163415238 0 0 0
165 0 2 0 -8.140994550478224 18.303084557982213 6.160691332224056 1 0 0
2473 0 1 0 6.776442705164572 1.1005287519578881 0.3485067029066773 0 0 0
710 0 2 0 2.813734265899188 11.043793119972905 10.221412929826002 0 -2 1
140 0 2 0 5.858237177880419 2.360413010956245 9.03442146323537 0 0 0
276 0 2 0 8.713325280001527 -1.271614005050922 15.140184204252167 0 0 0
1171 0 1 0 0.7011225253261374 4.998437051418274 13.90528110819044 0 0 0
617 0 2 0 6.282244211748052 4.453170273288856 10.3035521099338 0 0 0
39 0 2 0 -1.1934368882882544 3.5861157094683596 6.574214190486805 1 0 0
841 0 1 0 -4.877736670711463 10.602566324329098 2.6720350894043547 1 0 0
440 0 2 0 -5.842782176126124 17.746232784016186 6.651061086934286 0 -1 0
669 0 2 0 9.828491491877763 1.6835419066834505 9.865443729691828 0 1 0
314 0 2 0 5.467204880991163 2.6862249258404063 3.4898249108156083 1 0 0
139 0 1 0 5.928154678032447 1.7043162371588774 8.337835640466485 0 0 0
808 0 1 0 0.8117852917345344 2.710844969530999 8.58622482324729 0 0 0
292 0 1 0 2.4964066056679353 15.908570159074031 14.178096272733752 0 -1 0
233 0 2 0 -3.395372442755801 11.16185572956167 5.754775721085826 1 0 0
601 0 1 0 -1.1807553550477288 18.018908734242522 7.047967387027949 0 -1 0
552 0 2 0 1.93799059355373 -0.29741733803571346 9.780302889577573 1 1 0
1253 0 2 0 -0.4955734812841222 17.284856722717702 8.502775171130672 1 1 0
225 0 2 0 -1.1918945283115567 -0.6719724981694211 12.654109567564674 1 2 0
1084 0 1 0 -2.0154468008305164 9.853095076761 14.928531631691149 1 0 0
490 0 1 0 0.7976957341007672 11.595771321598276 5.131250758573106 1 1 0
1007 0 2 0 7.340054215306674 5.268564801807313 3.303745856596425 0 0 0
1277 0 2 0 5.996948882326489 18.005426630877768 0.13031531712833178 0 0 0
961 0 1 0 -5.744740109880079 13.99226658599111 6.509042975740877 0 0 0
1145 0 2 0 -0.7433177865554264 19.578284951142205 4.183841769994508 0 0 0
86 0 2 0 8.890643546416142 8.561326050953525 10.432302747822398 0 0 0
648 0 2 0 2.857803293458944 5.7449824854699285 1.3117330761802153 -1 -1 0
618 0 2 0 4.97231780554801 4.230328525868754 9.459422274710247 0 0 0
581 0 2 0 11.805574478830353 -3.0158140230287556 9.468122762427631 -1 0 0
970 0 1 0 12.372231568231413 2.300434691582854 1.457991718384101 1 1 0