LAMMPS data file via write_data, version 23 Jun 2022, timestep = 204153000

2592 atoms
2 atom types

0 30.933001 xlo xhi
0 21.326696 ylo yhi
-0.7255315726333968 31.68276454940538 zlo zhi
-9.140633 0.9838587181004671 -10.781816751992078 xy xz yz

Masses

1 1.008
2 15.999

Atoms # full

1206 0 2 0 4.66008234442518 8.526542484208404 11.218156072839706 1 1 1
922 0 1 0 5.0757796628314376 -2.357187211389603 12.639690411253525 0 -1 0
568 0 1 0 4.613770617688099 5.89520111780687 3.968727582994439 0 1 0
64 0 1 0 1.8407472931738047 7.873826009663155 13.16072124951506 0 -1 0
197 0 2 0 -1.5447861935242309 7.015267026433462 14.683720278800452 0 0 0
684 0 2 0 -3.88015737960907 7.406814266773498 12.619213150926964 -1 1 0
1353 0 2 0 -5.589320909030317 14.909501919660126 8.507280551391302 1 1 0
177 0 2 0 7.989205366336159 2.2340937491251203 7.10539834191379 1 0 0
1067 0 2 0 -3.009310244084668 10.91929888482035 1.0793430856881834 2 1 0
174 0 2 0 -3.217426467584338 18.078280335944413 1.5499519673853546 2 3 0
1208 0 2 0 7.543727764686555 11.003464746658704 3.7306095560290355 3 4 0
725 0 2 0 4.720318073520805 16.303001272482753 10.873846872635124 1 2 0
322 0 1 0 14.694714173640278 -1.4705392680038845 9.642723270149755 0 0 0
955 0 1 0 5.740735730987763 -0.34101480194085826 0.8740756504879432 -1 -1 0
1204 0 1 0 4.01645797451219 7.762986910211815 11.294287858169389 1 1 0
333 0 2 0 2.9461788698075897 8.57486645160598 -0.26440486778992245 -1 0 0
742 0 1 0 3.9469719060622332 1.9562626085083838 9.893129317184261 1 1 0
992 0 2 0 5.822260847571986 -1.043419500480347 15.335771046344046 0 0 0
769 0 1 0 4.515586936361288 -1.1147444111133922 5.98026083807811 0 0 0
373 0 1 0 6.149875719176728 9.489890449827517 11.09446804886329 -1 -1 0
569 0 2 0 3.91530359928192 6.59712522940771 3.783941999901618 0 1 0
741 0 2 0 7.885993058181036 5.5838098393994375 9.68685844930674 0 0 0
557 0 2 0 -6.307377319162741 14.289026007551524 14.296700752043138 0 -1 0
1240 0 1 0 -5.10422723489146 12.424979967704353 12.210978101625757 1 -1 0
208 0 1 0 2.4216692085122338 1.5966099230254054 6.55746736810999 0 -1 0
627 0 2 0 2.180716132518164 10.590004225478731 11.308808175373015 -1 -1 0
36 0 2 0 12.625909991658315 -1.2803898297624694 12.41135687121004 1 3 0
502 0 1 0 -0.4398005876910293 2.493348729014351 10.043518419021025 0 0 0
198 0 2 0 -2.503893359140167 8.257473933231543 14.385709097330926 0 0 0
146 0 2 0 7.538511310947181 14.77794008006557 8.388442590054577 0 -2 0
484 0 1 0 -1.996883181124284 15.186899811419906 1.947785406990754 2 1 0
1115 0 2 0 10.578110090451599 7.062916414643962 1.0821060087545369 0 1 0
612 0 2 0 7.605267266611395 14.476490932243994 11.794258147241383 -1 -3 0
942 0 2 0 12.770771090511062 1.3349538608925342 8.541692382075746 -1 2 0
770 0 2 0 3.835979722768786 -1.1999109965828392 6.701763351303301 0 0 0
1019 0 2 0 -0.3074353799144708 4.862054012409601 7.317238369824903 3 4 0
1161 0 2 0 1.7205151935703258 -3.464667822062351 14.136272050149406 2 0 0
1137 0 2 0 3.3417394927225015 -1.3055213295104737 14.763542788435828 0 3 0
1 0 1 0 -0.8085005640164218 -1.4801245156526561 14.642807359745946 1 1 0
395 0 2 0 4.543877767922426 13.684000844870999 -0.6848292315778612 1 1 0
607 0 1 0 0.7247001890036738 -0.4939087277501849 1.3382020093437759 -1 -2 0
1460 0 2 0 4.903306502546571 1.096763433253214 14.327761085882042 0 2 0
1037 0 2 0 7.574514766663873 15.673661087865677 3.8678312737437635 -1 4 0
870 0 2 0 3.727225420421833 15.296618013089159 5.254906996710754 1 -1 0
2221 0 1 0 -1.7688247566032118 3.4848193952361637 14.845564296449073 0 0 0
664 0 1 0 7.9944267835109155 5.826345864562924 7.707117665331692 -1 1 0
329 0 2 0 9.318093746833625 7.4076736350323 13.449324689471265 -1 0 0
547 0 1 0 2.6329082535381474 12.183761159029642 3.8890787576958576 0 0 0
1629 0 2 0 -1.7750483458972146 12.303106474636754 12.067983757648042 0 1 0
1701 0 2 0 2.1605516130598175 19.23509316453646 0.7136282808209546 -1 -2 0
2186 0 2 0 13.616425654447534 -0.40654770953093977 6.238238543179014 -1 -1 1
940 0 1 0 13.420665662578523 2.0518760743393414 8.35319387906309 -1 2 0
1157 0 2 0 -2.3728312456204934 13.949852197640173 13.481283949685897 1 1 0
650 0 2 0 6.309198551872131 16.332153539224002 12.718424993207105 2 2 0
1078 0 1 0 -0.8083804187425451 1.8394166750905456 6.2465244737734675 -1 0 0
1490 0 2 0 1.6346706485765745 7.326711582115304 1.8008452633531822 0 0 0
2350 0 1 0 7.579540177732358 5.828950962752661 -0.4196861791946881 0 0 1
856 0 1 0 10.66162537155241 -0.25049907277601946 14.324129039563623 1 4 0
570 0 2 0 4.177341885616293 5.141434544129143 4.21454165029713 0 1 0
713 0 2 0 -0.9449907366380623 13.682072527326788 7.150325460765186 -3 -2 0
526 0 1 0 -6.780380533820157 14.478747679350988 11.438009630430564 0 1 0
581 0 2 0 9.147104449267973 13.2921582334982 4.716812918740985 1 1 0
127 0 1 0 0.6514027428317636 14.181950001637166 3.225583694684847 -1 0 0
1043 0 2 0 7.426875668562073 -0.005051257215210825 4.024206605847128 2 3 0
49 0 1 0 2.0961394785407337 -3.5703112886240507 10.088550111517964 -2 -3 0
1375 0 1 0 -0.3980386553167236 5.97458856902052 -0.3098784029170391 0 1 0
1699 0 1 0 1.772297066377387 19.859553278971795 0.08110774711903757 -1 -2 0
1165 0 1 0 7.326715212390585 11.17527659105508 1.3491048762977988 0 -1 0
510 0 2 0 0.324871458393315 2.09224200314065 13.377720561692774 3 5 0
218 0 2 0 4.730603813521377 14.25757246399132 2.128817938447564 1 1 0
693 0 2 0 0.10802176933245128 -0.41385475820849704 8.783908364363377 1 -2 0
106 0 1 0 8.438780837499944 1.1876618768436051 15.11586480515894 1 3 0
2299 0 1 0 -1.8286387013098047 17.422184724655395 4.943015332045285 0 -1 1
2403 0 2 0 -1.250926224932044 11.439308600267076 7.980626265488523 1 1 0
1351 0 1 0 -5.972291508661298 15.11498700063991 7.626986518230469 1 1 0
1489 0 1 0 1.093142268974492 7.650399723769724 2.5292728460135776 0 0 0
129 0 2 0 0.9964809775315303 15.074888420155643 3.1391228647548033 -1 0 0
169 0 1 0 2.1825264344412822 4.742485126674769 12.241039740813994 0 1 0
1521 0 2 0 -4.569051907344034 17.064650209307327 6.758652592460452 0 -1 0
2222 0 2 0 -1.7839427277297617 2.534232494024197 15.090876876088753 0 0 1
1211 0 2 0 6.497018923076898 18.907688338620037 5.327018624140521 0 -1 0
850 0 1 0 10.547988423215275 1.8285617288632565 5.3709286558557015 -2 -2 0
2401 0 1 0 -1.119528484158982 11.817736988970946 8.850702452155428 1 1 0
1292 0 2 0 0.49893486646153934 12.782914905037842 11.331731975398258 1 1 0
1075 0 1 0 6.31110425820174 3.6599790080915517 2.250268476926354 -1 1 0
73 0 1 0 2.3354337309824436 15.374851165925996 15.123575918812518 0 -1 0
991 0 1 0 6.615538712555147 -0.9628416483862585 14.72212023137796 0 0 0
34 0 1 0 12.966431670693641 -2.088162781853768 12.880677876854234 1 3 0
868 0 1 0 3.2269554455428264 15.847354445816427 4.6506144155848546 1 -1 0
679 0 1 0 8.875454914230549 -2.582164538784724 15.34026455997541 1 -1 0
784 0 1 0 7.448854632791644 8.096784802435712 5.639860122968805 -2 -1 0
816 0 2 0 -4.785403283883908 12.0430277520011 2.7891338247454436 2 0 0
1031 0 2 0 0.16135991246778678 3.2598287112502207 6.128862516990947 -1 0 0
859 0 1 0 11.910003494045906 -0.19682142849434392 8.706198090296661 -1 -1 0
481 0 1 0 1.3208699979216583 18.047298403972512 7.514748346849824 1 2 0
1628 0 2 0 -2.132772809783142 11.009169949608868 12.854142495585005 0 1 0
692 0 2 0 -0.025297028575017644 1.1341464369059704 9.030712924232523 1 -2 0
858 0 2 0 11.183715197507647 -0.6802773423127064 15.036302115138628 1 4 0
589 0 1 0 13.406480509440238 -0.014201056644608745 0.5703758630290305 1 2 0
661 0 1 0 8.779165563775173 8.631386591754495 10.020443302185083 0 -1 0
217 0 1 0 5.378495872121636 13.518535940805066 2.1808409722308477 1 1 0
1076 0 2 0 6.2472518917767825 3.292032583364855 1.3615792579172217 -1 1 0
786 0 2 0 8.387024252900405 7.932121433925211 5.885443110446565 -2 -1 0
946 0 1 0 6.810776343249365 9.607713071700603 7.920204653446133 2 2 0
789 0 2 0 4.82625645461206 14.545820395137888 9.478870002322402 -2 2 0
904 0 1 0 -1.9200733616687933 5.085029638062148 12.028779394712004 1 1 1
827 0 2 0 2.3324309196148683 8.042772812597347 3.5840534092557492 0 2 0
880 0 1 0 1.2360397508993495 -0.3723810091138646 4.760173697949548 2 0 0
1063 0 1 0 9.354210061882993 4.875858234981472 1.5560519658430714 2 1 0
954 0 2 0 6.389318868086367 -1.3888322031762355 6.960909371423242 0 -2 0
238 0 1 0 7.207479841406865 2.6871934869631553 10.944351578050917 0 0 0
735 0 2 0 -5.68412568605687 11.509636819758065 8.390014239005483 0 0 0
1107 0 2 0 0.6393611987053712 18.220618392721676 2.7385315005985 0 0 0
2330 0 2 0 10.313891784522099 -1.312234464671313 4.2829514876834685 1 1 0
1238 0 2 0 7.669171618361194 10.43041286676402 13.121130936955284 1 4 0
1173 0 2 0 -6.452595212773049 18.060450950723986 5.025248720683004 -2 -2 0
662 0 2 0 9.451223036245569 8.506778288671072 9.277578198935984 0 -1 0
210 0 2 0 1.993206796268411 2.1599994187805422 7.192684946716917 0 -1 0
1129 0 1 0 9.752110755528259 2.7893901056739208 9.980160749300808 1 0 0
508 0 1 0 0.13653718848673818 2.8121456521622887 12.768711465575008 3 5 0
796 0 1 0 -7.781666949220061 17.32462050302568 6.928831407414945 1 4 0
1260 0 2 0 4.518865065407557 10.298855347387704 2.524176576695415 0 1 0
545 0 2 0 -1.1832235633056785 5.299297016094686 3.901017265615925 -1 -1 0
728 0 2 0 -2.9934556038814 3.740675853509676 12.109436256738773 0 -1 0
175 0 1 0 7.762697765248479 1.3035173793559425 7.151430909054992 1 0 0
877 0 1 0 8.606108076899346 0.20808909260553665 1.215277894978385 0 1 0
521 0 2 0 9.59076386152391 5.01468292837474 4.470220643600026 2 0 0
1483 0 1 0 1.9992743240775972 13.087382186606854 9.032031920097067 -2 -4 0
119 0 2 0 5.969144810161215 5.860375327974217 0.6439214894101049 1 -1 0
924 0 2 0 4.65560495608003 -1.7668429829213017 11.973163831118958 0 -1 0
283 0 1 0 -4.720475119812886 11.49378740190356 15.131312116505445 1 0 0
857 0 2 0 10.202960577447751 -0.9543226282308304 13.748629428479072 1 4 0
108 0 2 0 8.237335159073895 1.9025569980898096 14.442517486713534 1 3 0
402 0 2 0 2.2067447257734507 4.091262426644082 9.271921525055607 3 0 0
399 0 2 0 3.057958493159623 15.22858687230801 2.9004687458984044 2 0 0
397 0 1 0 3.122812237654458 15.195030446010021 1.9532988151399593 2 0 0
1294 0 1 0 5.176937677095629 7.840793746346577 14.85537716566282 1 0 0
1011 0 2 0 6.3679094984083395 -0.9186149603931058 9.107736495315791 2 1 0
55 0 1 0 -3.858045845787629 11.669697841258815 9.783427295461104 0 -3 0
548 0 2 0 3.0613780231080456 11.640507274563198 3.236015651799348 0 0 0
1293 0 2 0 1.8173712838028098 13.355919264531948 11.846739855073409 1 1 0
478 0 1 0 -1.5284013538292935 7.347725868925217 6.443662146462508 -1 -1 0
1506 0 2 0 -0.8753882574454506 14.373917772086038 0.9254076735410501 1 -2 0
666 0 2 0 7.066366974824199 5.9497345709380784 7.569357366539135 -1 1 0
635 0 2 0 3.2015786898912 5.6673625421640255 13.744072685038603 -1 0 0
814 0 1 0 -4.376714932961568 11.913200120404378 3.65311586827157 2 0 0
2314 0 1 0 14.916901323811455 -3.687809359409689 11.888680267717621 3 4 1
2187 0 2 0 12.759075082288888 -1.6283615910057319 5.899476380963164 -1 -1 0
356 0 2 0 8.206986318124171 -2.830797677631446 12.60949007429022 1 1 0
171 0 2 0 1.5104346662103554 4.046627060237116 12.393186602960073 0 1 0
216 0 2 0 -2.2441557344102865 16.764249423477455 8.473911482238366 1 -1 0
779 0 2 0 7.009192232987231 12.841163672103566 7.226255844020565 0 1 0
533 0 2 0 0.21301851664066102 9.81369796801131 0.16709885060402763 1 0 0
867 0 2 0 8.633513686264957 0.2842099741332733 8.47630850740042 -1 -2 0
1159 0 1 0 1.1563416443562653 -3.2381199123838993 14.877476876697193 2 0 0
1270 0 1 0 4.204124965094244 11.601844817264306 6.032752832658354 0 0 0
1092 0 2 0 12.398631437062654 1.7717802437585313 13.00539304289698 -1 1 0
1273 0 1 0 -1.1383176402458162 15.093353794322393 12.875536420755271 1 1 0
576 0 2 0 13.994564404459814 1.887586270566295 5.087809916800564 2 0 0
980 0 2 0 3.649909013738025 12.485027871967254 11.87150768511103 1 1 0
1267 0 1 0 -6.650033446288206 19.543670905061873 -0.5045316688018844 2 1 0
1205 0 2 0 3.429629144577599 7.929118023600082 12.020458705874464 1 1 0
1255 0 1 0 9.591468291392315 8.063180596111124 7.478670464429637 1 2 0
905 0 2 0 -2.47212682410699 5.891582554931817 11.794471083482804 1 1 1
130 0 1 0 6.321791097083483 17.860190907870855 6.942083061557156 1 2 0
1263 0 2 0 2.1014566836145323 5.046394348820713 7.098298091613693 0 1 0
1153 0 1 0 -3.7120154451175376 9.030421531225713 7.24946721947015 1 -1 0
398 0 2 0 2.5077404497510023 14.55990042149446 1.5779095431825074 2 0 0
675 0 2 0 6.419489708911724 14.195599109702908 4.964136159710204 2 6 0
285 0 2 0 -5.442408190165939 11.834787926451781 14.542035452802747 1 0 0
314 0 2 0 6.296865799990301 17.130250659757433 1.9699424342520913 1 1 0
172 0 1 0 -2.358285656100226 17.798905429205664 1.253191714503146 2 3 0
1207 0 1 0 7.912160972791413 10.986531710331553 4.622036669612939 3 4 0
264 0 2 0 4.947424560713233 9.604888967335963 8.668929052201815 0 0 0
625 0 1 0 3.0891814853069057 10.82876338922069 11.173409899535853 -1 -1 0
1071 0 2 0 0.5390844055626738 -0.9787280209227771 11.94384399437696 1 0 0
881 0 2 0 1.491951975759393 0.2856869808022666 4.125894108602377 2 0 0
630 0 2 0 5.170552027167565 3.539738645983728 5.775578302447946 -2 0 0
1020 0 2 0 -0.5383783230205159 5.32077535308769 8.825646246867343 3 4 0
2479 0 1 0 2.7238935334607266 6.853487833459798 0.4647471980470128 0 1 1
413 0 2 0 5.791743643691424 20.56055633306081 0.5836499022161534 0 1 0
400 0 1 0 1.8860808354455691 3.317818797073879 8.765300522809712 3 0 0
865 0 1 0 9.25404566776636 0.1460630469644162 9.255453855619113 -1 -2 0
879 0 2 0 -0.06771566734112466 20.83192731090764 0.7151429584763669 0 -1 0
953 0 2 0 -1.8153875091459384 18.771292360667985 6.6593573409528775 0 -3 0
1505 0 2 0 0.46751074861741293 13.777132210019728 0.4455784657978581 1 -2 0
1242 0 2 0 -4.35468647446089 12.792082415016926 12.641716023533707 1 -1 0
503 0 2 0 -0.31892333283856406 2.710891786226009 11.010188096399856 1 0 0
646 0 1 0 -2.594169081391059 7.718758120142027 3.874786652201414 -1 -3 0
740 0 2 0 7.344437104687876 5.864923156589531 11.125123931612572 0 0 0
278 0 2 0 4.03328530210762 3.7716019894793584 1.2589877015092776 0 0 0
517 0 1 0 0.7303095828182647 4.113642786034368 1.4452782563897637 1 0 0
685 0 1 0 -3.980678186937263 13.333298232562601 -0.17631680254508986 -1 -6 0
1132 0 1 0 -2.565135834740109 6.376738249229507 1.4269094577983785 1 0 0
648 0 2 0 -2.5310107385428022 7.102134844155574 3.1284498173888653 -1 -3 0
1352 0 2 0 -6.659831824282353 14.37578539894598 7.537954139792541 1 1 0
430 0 1 0 5.960803819965339 4.021506176589037 8.976045914873547 -1 0 0
456 0 2 0 10.133029325433842 -3.320392527570853 14.324507814383594 1 1 0
419 0 2 0 -5.83589461060364 16.575160641662436 13.511518116711441 0 -3 0
1131 0 2 0 10.011756701267558 3.2749081927708916 9.181011920053423 1 0 0
124 0 1 0 0.45067954847886976 16.584142947045574 -0.12354541606986003 0 0 0
826 0 1 0 2.865898774593209 8.14691959605244 4.405492279172738 0 2 0
262 0 1 0 3.9882490151292544 9.335933623048591 8.645585748928847 0 0 0
649 0 1 0 6.692168157729829 15.44269540384201 12.93503093266411 2 2 0
51 0 2 0 2.389281222667448 -3.8493109344400973 10.993261539832057 -2 -3 0
277 0 1 0 3.2620190170023196 3.257240578551144 0.9952716096321046 0 0 0
186 0 2 0 5.435712935317086 4.943968293435533 12.079600574002573 -2 -1 0
1167 0 2 0 6.433352746936149 10.854670891483773 1.170688491571018 0 -1 0
455 0 2 0 11.105587238803752 -4.5559869730589355 14.13814365824516 1 1 0
747 0 2 0 0.2526650272442281 -3.001781401229004 11.766055895277635 1 2 0
609 0 2 0 0.8498199324841722 0.3711410037568216 1.856120470695687 -1 -2 0
866 0 2 0 9.433274532162994 1.016334278512181 9.570633355526462 -1 -2 0
330 0 2 0 9.912331093647742 8.787009177321394 13.122669826258488 -1 0 0
565 0 1 0 12.417651947266682 0.6491806043142878 2.945372018144004 1 -2 0
222 0 2 0 -3.8560132166868892 9.66616484777877 12.824689058867254 3 0 0
776 0 2 0 -1.5703085891181536 13.723743591343807 4.782526277972597 2 -3 0
507 0 2 0 6.666868757624828 3.6116818082095605 14.297170494864162 -2 -2 0
358 0 1 0 -2.098806771931324 13.604605187109348 10.912815293778813 1 3 0
923 0 2 0 5.659612253140124 -1.7796863763844462 13.191839898220575 0 -1 0
231 0 2 0 9.78012996815643 8.075428903770497 2.6482079123620865 -2 -2 0
1033 0 1 0 0.5943948955615667 9.78159025786854 11.466454745799657 -1 -1 0
86 0 2 0 10.89238321063581 8.349871598596948 -0.2592776604206797 -1 -1 0
346 0 1 0 1.8969175081713565 12.811762618986313 0.6787447828804023 0 2 0
860 0 2 0 12.277603807383759 -0.5800174873444557 7.848783041824575 -1 -1 0
981 0 2 0 4.112678458540348 13.640312733978455 12.708231073616068 1 1 0
461 0 2 0 7.583657550506354 6.188941468304737 4.55226761361132 -2 -3 0
1235 0 2 0 -1.2739456802721238 12.688186585782878 15.38205058797682 0 -1 0
852 0 2 0 10.18757025423068 2.460725839076282 5.969560206673105 -2 -2 0
739 0 1 0 8.142263879433026 5.9418149557022595 10.570615187274493 0 0 0
916 0 1 0 4.680411229630758 7.225103432721938 6.7916323776727205 -1 1 0
258 0 2 0 7.135720836071525 16.421259953648608 9.956874325179704 -2 0 0
683 0 2 0 -4.3170130576093255 7.117698135295807 11.163604422509069 -1 1 0
2329 0 1 0 10.376106757420423 -1.2188632393235153 3.3049276877934224 1 1 0
161 0 2 0 2.817261668009403 17.004078998045426 1.4927895453160125 1 0 0
605 0 2 0 8.370799163836544 2.0059157072470475 3.458715061436372 -2 0 0
952 0 1 0 7.343156692382842 -1.594294907000579 6.8917134420752015 0 -2 0
2301 0 2 0 -1.246074635186325 16.807668419447985 5.463328430594871 0 -1 1
185 0 2 0 5.375588495286336 6.533751634778177 11.976652025512367 -2 -1 0
380 0 2 0 9.407827324180683 -2.9353502002501366 10.317298264253504 -1 -2 0
57 0 2 0 -3.164953339245761 12.322936474592126 9.666485893282381 0 -3 0
932 0 2 0 5.793417569034146 15.907454874656608 6.581709237848868 3 4 0
78 0 2 0 -2.771291725084155 10.000922905276392 9.873747975337759 0 1 0
348 0 2 0 1.575929294074743 11.959436931447744 1.01486149001664 0 1 0
377 0 2 0 -2.6305192284632066 17.185061346858927 -0.43995410177872324 1 -1 0
209 0 2 0 1.7903186397934057 1.0692025136478858 6.0858987863176255 0 -1 0
882 0 2 0 0.33279422413299026 -0.22063541014842358 5.0630628204720916 2 0 0
1198 0 1 0 -0.164796588514192 6.05809215557507 14.070390880357692 1 2 0
935 0 2 0 11.32458441087281 6.5673150436052685 5.200243264574521 0 4 0
221 0 2 0 -3.69478848881245 10.397438527087704 14.072590908091598 3 0 0
528 0 2 0 -5.906369090208837 14.987557127414515 11.380190454811752 0 1 0
1082 0 2 0 -2.748970265540431 4.921239306464706 8.197096534952859 1 -2 0
726 0 2 0 4.0374904854467575 14.917921667778081 11.117059369732493 1 2 0
166 0 1 0 0.6684476232499579 11.231519370199498 5.29961182551382 0 -1 0
245 0 2 0 3.5384377967532465 3.9354157449411096 12.069785912637661 2 0 0
1224 0 2 0 1.3794215099763427 10.944016887266475 6.611399693637752 3 0 0
1114 0 1 0 11.16690595206975 6.855686019405988 0.4024193108433114 0 1 0
324 0 2 0 13.874489483558076 -1.9864828208453058 9.424639275334478 0 0 0
1210 0 1 0 6.591361760920887 18.932932299821108 4.319158219767982 0 -1 0
787 0 1 0 4.874043181247779 13.736075120665191 8.949007163490753 -2 2 0
1130 0 2 0 10.483370521809219 2.9754707893831998 10.622090236035127 1 0 0
1090 0 1 0 12.85772119297626 1.0022219233525647 13.431686666786549 -1 1 0
1269 0 2 0 -7.400066048766047 20.052679226050937 -0.1605557491109153 2 1 0
279 0 2 0 3.5769723767213226 2.5781792496039917 0.34079932055440953 0 0 0
593 0 2 0 0.34276965119262415 8.556029179461685 8.221067755924103 1 0 0
917 0 2 0 4.809755439528199 7.157237612344881 5.842745768778619 -1 1 0
979 0 1 0 3.6683529115483595 13.483068085025469 11.857247024241975 1 1 0
325 0 1 0 4.581797797253894 10.910687494934063 13.559925582461531 1 1 0
350 0 2 0 11.062795378965138 1.7490781831155906 -0.671211436897463 0 -1 0
251 0 2 0 0.919640566713234 2.1295188291017855 2.8741046743701526 1 0 0
463 0 1 0 3.514307567451022 -0.828576255186138 10.535003524903978 0 -2 0
586 0 1 0 -2.5845374385569246 11.44201845037675 6.51445949306993 1 1 0
1485 0 2 0 1.9020195380915734 12.279276755648622 8.433457362706084 -2 -4 0
205 0 1 0 -5.263395317029209 18.201947159836138 1.7596072457744802 0 0 0
1459 0 1 0 4.780037616862656 0.9452270978842856 13.40414225629384 0 2 0
829 0 1 0 9.914148192105982 3.9404516906642413 7.299830008032096 1 1 0
347 0 2 0 2.5778558809233747 12.706642254250077 4.405848872990337e-05 0 2 0
1209 0 2 0 7.400884823219793 11.519215813702223 5.245120788241301 3 4 0
261 0 2 0 8.95958929910047 -0.9740943503185568 6.236725029488952 0 -2 0
2341 0 1 0 6.84086262348956 8.439706943975018 2.217367980565385 -1 0 0
993 0 2 0 7.136399451693575 -0.23761757309742837 14.964149258046072 1 0 0
375 0 2 0 6.31263955640376 10.348564638554219 10.583991330209695 -1 -1 0
636 0 2 0 4.1355768168134786 6.184794181480538 14.847741819906785 -1 0 0
357 0 2 0 6.766165157418994 -3.044833104524607 12.343608487335699 1 1 0
355 0 1 0 7.573713441797501 -3.509519673504718 12.598450776238783 1 1 0
1166 0 2 0 7.31952546022072 12.023073520118807 0.9925723595612852 0 -1 0
153 0 2 0 8.870148659547539 4.369263052283139 13.15555025552058 1 0 0
1024 0 1 0 -1.584270901042495 19.744008088093185 3.632996264549618 0 0 0
629 0 2 0 6.429963547084426 4.354082603580949 5.502344550520458 -1 0 0
2481 0 2 0 3.675954570996495 6.571025752107431 0.4664401718269813 0 1 1
250 0 1 0 1.6956413084770137 1.5649341455070938 2.766407936232174 1 0 0
460 0 1 0 7.673624570610787 5.25813378483933 4.328162631892063 -2 -3 0
122 0 2 0 7.21414195638405 1.1296507947743608 11.385106500620967 0 -2 0
815 0 2 0 -3.686648549064395 12.554270204067613 3.7544154867458763 2 0 0
1296 0 2 0 6.100877449739037 7.611409703954754 14.511054820502679 1 0 0
665 0 2 0 8.32921178545375 6.661245807896361 7.550774697762046 -1 1 0
479 0 2 0 -2.3203399850780126 7.788662907160025 6.795160871433676 -1 -1 0
775 0 1 0 -2.4482168736617425 13.825957145330513 4.342524959375069 2 -3 0
359 0 2 0 -1.6937512776001629 14.22633683900397 11.574535526765139 1 3 0
379 0 1 0 8.772261216182125 -2.4640007896643032 9.679697287820822 -1 -2 0
388 0 1 0 13.06397604669979 3.23623043894049 5.758814690419791 1 5 0
588 0 2 0 -2.85159940919069 12.368215405372224 6.614756112039748 1 1 0
1065 0 2 0 9.399051425769922 5.639269250457964 2.1167361568541607 2 1 0
743 0 2 0 4.1291651488507055 2.483948660271688 10.64263512744988 1 1 0
615 0 2 0 12.481189994334908 6.051208692105674 2.3573749366102046 0 0 0
1700 0 2 0 1.0056131505743906 19.399921224679293 -0.3481720981016852 -1 -2 0
2307 0 2 0 0.058039373511140524 8.189514941925935 6.475974877159552 0 0 1
50 0 2 0 -7.525770148973981 17.016450866785167 9.659628506791238 -2 -4 0
712 0 1 0 -0.5463020639040225 13.711962602004828 6.27569594272272 -3 -2 0
676 0 1 0 11.688110080942444 3.141343718959684 11.993871097137134 -3 -2 0
830 0 2 0 10.462331895565294 4.56234604857167 7.88320187583531 1 0 0
214 0 1 0 -1.7298297052308225 16.55277692012947 7.699463052266024 1 -1 0
462 0 2 0 7.057804354982027 5.049142167910693 3.623370145121001 -2 -3 0
93 0 2 0 8.411543608904397 -0.7103119776046007 12.36529246571035 1 0 0
25 0 1 0 2.4758914645462418 -1.3408397952802242 8.007233995625377 1 -1 0
181 0 1 0 11.356729585388683 5.0625370451842535 9.241734382020798 -1 0 0
1261 0 1 0 2.18929138484094 5.912865314061257 7.499921932016914 0 1 0
392 0 2 0 3.9536397250128896 -0.03934268506844418 4.1200688227934545 2 2 0
215 0 2 0 -0.9916003399839858 15.96068758666452 7.985536393039164 1 -1 0
480 0 2 0 -1.3675574731127698 6.595798962350839 7.057394754872519 -1 -1 0
408 0 2 0 1.9613895050004504 16.833808381986035 10.805078052624214 0 -1 0
2378 0 2 0 -6.516858602304503 15.74707259496003 4.089890868443129 0 0 0
389 0 2 0 12.197602310528593 2.9345647625077547 5.499486262074999 1 5 0
948 0 2 0 7.065016467202352 9.162387550519778 7.066048022308982 2 2 0
2343 0 2 0 6.374343691105101 7.723313659312921 1.7867385929294204 -1 0 0
1044 0 2 0 7.098293095952254 0.8488859856724873 5.224576189160764 2 3 0
1105 0 1 0 0.4934941372207309 17.30560588437642 2.7621110904083768 0 0 0
1010 0 2 0 7.131672010583045 -1.9782134913328198 9.922560619727125 2 1 0
92 0 2 0 9.75918652783109 -1.1783448169896773 11.731045213287738 1 0 0
454 0 1 0 10.756486584314413 -3.71933670309423 13.72194157649755 1 1 0
152 0 2 0 9.190126199548558 5.157681777213909 11.941522175998355 1 0 0
2294 0 2 0 0.07530357454481224 7.504721878071651 -0.5858826550690961 -1 -3 0
2331 0 2 0 9.567018430203557 -0.810342848584579 3.0680991019668333 1 1 0
121 0 1 0 6.919232485706998 0.3515353298345234 11.907851006134477 0 -2 0
673 0 1 0 6.9838932323431875 13.968747002767408 4.217945344491412 2 6 0
628 0 1 0 6.062365234710161 3.716102913753753 6.143052745889578 -2 0 0
427 0 1 0 5.452689366975439 0.7294648772978181 7.998870375834519 1 3 0
861 0 2 0 10.935328485541167 0.011014734186646447 8.55719328080532 -1 -1 0
970 0 1 0 11.365426636349746 3.028543550788876 0.6926582589853305 0 3 0
1212 0 2 0 5.649382257974659 18.990089354175456 4.092437764413976 0 -1 0
272 0 2 0 0.9208380822775329 12.477652931175726 15.088288227133457 1 1 1
170 0 2 0 1.882953700743998 5.222252697344962 11.433049346393663 0 1 0
1190 0 2 0 7.921346717140002 6.39124937408407 14.745740221577682 1 -2 0
553 0 1 0 3.60473257679021 5.358006256518822 9.753907692147612 3 2 0
1239 0 2 0 7.5207193263829435 10.795944770726628 14.496862523908293 1 4 0
2547 0 2 0 0.4681011498764868 15.23671977881642 6.051714078752238 0 -2 0
947 0 2 0 7.484687204885946 9.405122686243116 8.588126475476045 2 2 0
944 0 2 0 -5.2183622932419995 16.469582663216872 1.5264448932334647 -1 -2 0
1376 0 2 0 0.08509287437312411 5.356176560854108 0.2791717099774318 0 1 0
595 0 1 0 -1.6956778749564139 10.323107718817662 4.05462440387214 0 0 0
219 0 2 0 4.898860584885909 12.722387722449298 2.0332414392259355 1 1 0
240 0 2 0 8.128836508697965 2.9689524052676823 10.698118440869775 0 0 0
1144 0 1 0 0.46676999200547226 5.81686719810849 10.351989155846194 -1 -1 0
997 0 1 0 3.842432681581141 3.2689958383761404 4.672845275965819 -4 -4 0
313 0 1 0 5.988570908599475 17.620334097847312 1.2011855818683987 0 1 0
1146 0 2 0 0.4398713846787312 6.783390042456807 10.089783712001264 -1 -1 0
539 0 2 0 4.016831551662481 17.068090299484727 9.122491472338442 0 -1 0
1116 0 2 0 10.81346444535322 6.0497128377356955 0.013011052194409789 0 1 0
1032 0 2 0 0.4867993154109744 4.521987995764365 5.325387808408836 -1 0 0
60 0 2 0 6.078428117911743 1.4419070421228437 -0.032926378629795194 -1 0 0
132 0 2 0 5.490778998540919 18.03548928428708 7.405190033634442 1 2 0
778 0 1 0 6.799557141903667 12.061468989124448 6.681610805532064 0 1 0
281 0 2 0 6.660983372091384 13.726837735614488 0.9806399603848914 1 1 0
647 0 2 0 -2.4001371160142306 7.122530860151258 4.60760963071057 -1 -3 0
1484 0 2 0 2.9051874897597774 13.137403857584966 9.43337212207673 -2 -4 0
326 0 2 0 4.138668959512459 10.73859749061356 12.710927468280955 1 1 0
467 0 2 0 -3.21780365360795 14.872171282257593 7.05437207386838 0 -1 0
107 0 2 0 9.25329076006102 0.7175636344263578 14.892057033904745 1 3 0
374 0 2 0 6.955539317082554 8.972656851509896 10.969510650043379 -1 -1 0
431 0 2 0 5.931856208343209 3.8617313093959247 8.032672529736049 -1 0 0
777 0 2 0 -2.9677828942975415 14.214046908600558 5.063747142936019 2 -3 0
906 0 2 0 -1.616707692374956 5.322347229126183 12.930080331131702 1 1 0
1195 0 1 0 -0.11790643788653243 14.776263637571526 9.201432575142057 1 -1 0
1200 0 2 0 0.4988437776215299 6.54754351864096 13.520077071493748 1 2 0
506 0 2 0 6.923087749707881 3.2862525531065128 12.766934888926707 -2 -2 0
331 0 1 0 3.2600167014940067 9.524748951143595 -0.3403755249494441 -1 0 0
599 0 2 0 -1.0386643824035162 15.594596732515258 14.91794978624532 0 1 0
1077 0 2 0 6.244183127751487 2.922935918881201 2.835594049680638 -1 1 0
1101 0 2 0 -7.994182286045298 17.99389782198317 2.9770513394074114 -1 0 0
1256 0 2 0 10.405575880278615 7.632420415486414 7.195756284709701 1 2 0
1008 0 2 0 8.226652254457205 9.073368283783921 -0.4883264867992899 0 -3 0
1191 0 2 0 7.258337494860011 6.229224618229506 13.310049475892605 1 -2 0
604 0 1 0 9.139998198133505 2.3151059467010837 2.9979714318166364 -1 0 0
466 0 1 0 -3.543885975136896 14.028491933041575 6.814463199940306 0 -1 0
246 0 2 0 4.335738266874007 2.763309572145875 12.715525261237659 2 0 0
785 0 2 0 7.510962246995617 8.827710230737438 5.02400546482277 -2 -1 0
824 0 2 0 0.09110594232185715 0.1808238259424373 14.815948949155135 0 0 0
252 0 2 0 2.248908982275137 1.9719969722765556 2.1522744143360995 1 0 0
2568 0 2 0 -4.185953819310247 16.329583286453186 10.157178978952512 1 2 1
2362 0 1 0 11.234320914785322 -0.28512887646623675 11.31301338264295 0 1 1
558 0 2 0 -4.815091823476304 14.406542005057936 14.119796661697148 0 -1 0
540 0 2 0 3.0318776029633976 17.810331709233093 8.141181401214215 0 -2 0
505 0 1 0 7.345165369171091 3.2688659721650914 13.680824437036982 -2 -2 0
1135 0 1 0 2.853551092813243 -0.8033341537289669 14.037331149482664 0 3 0
91 0 1 0 9.088860837553218 -1.3885101333014607 12.413394241459994 1 0 0
482 0 2 0 0.7152444270466237 18.24985023149901 8.272886183324642 1 2 0
606 0 2 0 9.337009416175805 1.605621432902387 2.363945353223252 -2 0 0
780 0 2 0 6.708954418858588 11.34728451815394 7.2749442182512585 1 1 0
1556 0 2 0 3.440243316351361 17.58784133476727 4.351338934260718 1 0 0
230 0 2 0 8.296714627435074 7.688934119987995 2.251992404104736 -2 -2 0
1136 0 2 0 3.5100704421922755 -0.1663550771471849 13.626248829957472 0 3 0
229 0 1 0 9.222621386307523 7.365586659434738 2.2531382518144643 -2 -2 0
1155 0 2 0 -3.5064233635037545 8.929713650353614 8.189950408954578 1 -1 0
2351 0 2 0 8.244426806128153 5.408122729912634 0.15630758159566516 0 0 1
1185 0 2 0 7.33824725676042 12.575299933396547 10.633133937463343 3 3 0
825 0 2 0 1.6451813631954295 0.3908858205406931 14.69611295648394 0 0 0
451 0 1 0 -6.134509687938658 13.042826877191285 5.425312447793862 2 1 0
1026 0 2 0 -1.82120895041657 19.460139446624694 2.723732620320483 0 0 0
591 0 2 0 12.972292787140448 0.2020305646764844 1.3999413104822058 1 2 0