LAMMPS (23 Jun 2022)

include procedure.lmp
echo both
include		in.partitions
variable        pid world 0
include		in.temp
variable	temperature equal 250
variable        tempDamp equal 0.100 # this is 0.1 ps
include		in.pressure
variable        pressure equal 6079.5
variable        pressureDamp equal 1.0 #this is 1ps

variable	barostat string	   tri
variable	direction string   z
variable	direction_x_bool equal 0
variable	direction_y_bool equal 0
variable	direction_z_bool equal 1

include		in.seed
variable        seed world 745823

units           metal
atom_style	full
box tilt large
read_restart 	restart.lmp.${pid}
read_restart 	restart.lmp.0
Reading restart file ...
  restart file = 23 Jun 2022, LAMMPS = 23 Jun 2022
  restoring atom style full from restart
  triclinic box = (0 0 -0.82640255) to (30.933001 21.326696 31.783636) with tilt (-9.140633 0.98998325 -10.848934)
WARNING: Triclinic box skew is large (../domain.cpp:224)
  2 by 1 by 2 MPI processor grid
Summary of lammps deepmd module ...
  >>> Info of deepmd-kit:
  installed to:       /u/sigbjobo/software/DEEPMD_FROM_SOURCE/deepmd-kit/install
  source:             v2.1.3
  source branch:       master
  source commit:      5a32c49
  source commit at:   2022-07-01 09:52:58 +0800
  surpport model ver.:1.1 
  build float prec:   double
  build with tf inc:  /u/sigbjobo/software/DEEPMD_FROM_SOURCE/tensorflow/install/include;/u/sigbjobo/software/DEEPMD_FROM_SOURCE/tensorflow/install/include
  build with tf lib:  /u/sigbjobo/software/DEEPMD_FROM_SOURCE/tensorflow/install/lib/libtensorflow_cc.so;/u/sigbjobo/software/DEEPMD_FROM_SOURCE/tensorflow/install/lib/libtensorflow_framework.so
  set tf intra_op_parallelism_threads: 0
  set tf inter_op_parallelism_threads: 0
  >>> Info of lammps module:
  use deepmd-kit at:  /u/sigbjobo/software/DEEPMD_FROM_SOURCE/deepmd-kit/install
  source:             v2.1.3
  source branch:      master
  source commit:      5a32c49
  source commit at:   2022-07-01 09:52:58 +0800
  build float prec:   double
  build with tf inc:  /u/sigbjobo/software/DEEPMD_FROM_SOURCE/tensorflow/install/include;/u/sigbjobo/software/DEEPMD_FROM_SOURCE/tensorflow/install/include
  build with tf lib:  /u/sigbjobo/software/DEEPMD_FROM_SOURCE/tensorflow/install/lib/libtensorflow_cc.so;/u/sigbjobo/software/DEEPMD_FROM_SOURCE/tensorflow/install/lib/libtensorflow_framework.so
  restoring pair style deepmd from restart
  2592 atoms
Finding 1-2 1-3 1-4 neighbors ...
  special bond factors lj:    0        0        0       
  special bond factors coul:  0        0        0       
     0 = max # of 1-2 neighbors
     0 = max # of 1-3 neighbors
     0 = max # of 1-4 neighbors
     1 = max # of special neighbors
  special bonds CPU = 0.000 seconds
  read_restart CPU = 0.031 seconds
include 	in.setup
variable	out_freq equal 2000
variable	out_freq2 equal 2000

timestep        0.0005

neigh_modify    delay 7 every 1

include         in.deepmd
# This is deepMD model

# create groups ###
#group ox type 2
#group hy type 1

mass 2 15.999
mass 1 1.008

pair_style      deepmd ../graph.pb
pair_coeff      * *

bond_style      none
angle_style     none
dihedral_style  none
improper_style  none
neigh_modify exclude none


neighbor        2.0 bin
neigh_modify    every 50 delay 0 check no

thermo          ${out_freq}
thermo          2000
thermo_style 	custom step temp pe etotal epair emol press lx ly lz vol pxx pyy pzz pxy pxz pyz

restart 	${out_freq} restart.lmp.${pid} restart2.lmp.${pid}
restart 	2000 restart.lmp.${pid} restart2.lmp.${pid}
restart 	2000 restart.lmp.0 restart2.lmp.${pid}
restart 	2000 restart.lmp.0 restart2.lmp.0


timer           timeout 23:50:00 every 1000
New timer settings: style=normal  mode=nosync  timeout=23:50:00


# Set number of time steps
variable 	nsteps_wall		equal	 6000000
variable 	nsteps_enhanced_coex    equal	20000000

variable     nsteps_enhanced_coex_upto equal (${nsteps_wall}+${nsteps_enhanced_coex})
variable     nsteps_enhanced_coex_upto equal (6000000+${nsteps_enhanced_coex})
variable     nsteps_enhanced_coex_upto equal (6000000+20000000)


# Set temperature for first step
if "$(step) < 1  " then    "velocity 	all create ${temperature} ${seed} dist gaussian"


# Always run thermo and barostat


######################################
# Run simulation with wall potential #
######################################
if " $(step) < ${nsteps_wall} " then    "fix             3 all plumed plumedfile plumed.equil.dat outfile plumed.equil.out"   "fix             1 all nph ${direction} ${pressure} ${pressure} ${pressureDamp}"   "fix             2 all temp/csvr ${temperature} ${temperature} ${tempDamp} ${seed}"   "run             ${nsteps_wall} upto"
if " $(step) == ${nsteps_wall} " then    "unfix 3"   "unfix 1"   "unfix 2"


############################
# Run enhanced coesistence #
############################
if "$(step) == ${nsteps_wall}" then    "fix             3 all plumed plumedfile plumed.start.dat outfile plumed.out" else    "fix             3 all plumed plumedfile plumed.dat outfile plumed.out"
fix             3 all plumed plumedfile plumed.dat outfile plumed.out

if "$(step) < ${nsteps_enhanced_coex_upto} && $(step) >= ${nsteps_wall} " then    "include         in.dump"    "fix             1 all nph ${direction} ${pressure} ${pressure} ${pressureDamp}"   "fix             2 all temp/csvr ${temperature} ${temperature} ${tempDamp} ${seed}"   "run             ${nsteps_enhanced_coex_upto} upto"    "unfix 3"   "unfix 1"   "unfix 2"
include         in.dump
dump            myDump all atom ${out_freq2} dump.water.${pid}
dump            myDump all atom 2000 dump.water.${pid}
dump            myDump all atom 2000 dump.water.0
dump            myDump2 all dcd ${out_freq2} dump.${pid}.dcd
dump            myDump2 all dcd 2000 dump.${pid}.dcd
dump            myDump2 all dcd 2000 dump.0.dcd
dump_modify     myDump append yes
dump_modify     myDump2 append yes

fix             1 all nph ${direction} ${pressure} ${pressure} ${pressureDamp}
fix             1 all nph z ${pressure} ${pressure} ${pressureDamp}
fix             1 all nph z 6079.5 ${pressure} ${pressureDamp}
fix             1 all nph z 6079.5 6079.5 ${pressureDamp}
fix             1 all nph z 6079.5 6079.5 1
fix             2 all temp/csvr ${temperature} ${temperature} ${tempDamp} ${seed}
fix             2 all temp/csvr 250 ${temperature} ${tempDamp} ${seed}
fix             2 all temp/csvr 250 250 ${tempDamp} ${seed}
fix             2 all temp/csvr 250 250 0.1 ${seed}
fix             2 all temp/csvr 250 250 0.1 745823
run             ${nsteps_enhanced_coex_upto} upto
run             26000000 upto

CITE-CITE-CITE-CITE-CITE-CITE-CITE-CITE-CITE-CITE-CITE-CITE-CITE

Your simulation uses code contributions which should be cited:

- USER-DEEPMD package:

@article{Wang_ComputPhysCommun_2018_v228_p178,
  author = {Wang, Han and Zhang, Linfeng and Han, Jiequn and E, Weinan},
  doi = {10.1016/j.cpc.2018.03.016},
  url = {https://doi.org/10.1016/j.cpc.2018.03.016},
  year = 2018,
  month = {jul},
  publisher = {Elsevier {BV}},
  volume = 228,
  journal = {Comput. Phys. Commun.},
  title = {{DeePMD-kit: A deep learning package for many-body potential energy representation and molecular dynamics}},
  pages = {178--184}
}

CITE-CITE-CITE-CITE-CITE-CITE-CITE-CITE-CITE-CITE-CITE-CITE-CITE

Generated 0 of 1 mixed pair_coeff terms from geometric mixing rule
Neighbor list info ...
  update every 50 steps, delay 0 steps, check no
  max neighbors/atom: 2000, page size: 100000
  master list distance cutoff = 8
  ghost atom cutoff = 8
  binsize = 4, bins = 11 9 9
  1 neighbor lists, perpetual/occasional/extra = 1 0 0
  (1) pair deepmd, perpetual
      attributes: full, newton on
      pair build: full/bin
      stencil: full/bin/3d
      bin: standard
Per MPI rank memory allocation (min/avg/max) = 7.311 | 7.311 | 7.312 Mbytes
   Step          Temp          PotEng         TotEng         E_pair         E_mol          Press            Lx             Ly             Lz           Volume          Pxx            Pyy            Pzz            Pxy            Pxz            Pyz      
   7748000   243.7934      -413.13117     -331.48159     -413.13117      0              7127.539       30.933001      21.326696      32.610038      21512.8        7840.083       7401.5172      6141.0168      188.89103     -579.39899     -929.11257    
   7750000   248.50748     -412.20983     -328.98144     -412.20983      0              5929.4095      30.933001      21.326696      32.529086      21459.396      6540.1914      4316.3775      6931.6595      8.4279438     -225.00265     -971.32598    
   7752000   244.29269     -414.81688     -333.00007     -414.81688      0              5088.8724      30.933001      21.326696      32.455646      21410.948      6454.1211      4471.3227      4341.1732     -503.79012     -3058.2635     -286.9911     
   7754000   254.32025     -416.24964     -331.07447     -416.24964      0              6941.3133      30.933001      21.326696      32.372933      21356.382      5817.8229      8542.8536      6463.2635     -505.37094     -1027.0266     -499.71603    
   7756000   247.67679     -414.21117     -331.26098     -414.21117      0              4028.8434      30.933001      21.326696      32.676715      21556.787      4934.6557      3325.7977      3826.0767      1588.1908     -1575.1785     -547.74537    
   7758000   249.9453      -411.66889     -327.95895     -411.66889      0              6611.3632      30.933001      21.326696      32.821178      21652.088      8195.2483      7720.01        3918.8313     -1142.7644     -1447.2719     -45.079631    
   7760000   250.271       -413.49747     -329.67845     -413.49747      0              4774.511       30.933001      21.326696      32.829011      21657.256      3788.008       6002.9715      4532.5536      1406.6714     -44.659986     -6.5840337    
   7762000   241.89517     -414.34932     -333.33548     -414.34932      0              5133.5971      30.933001      21.326696      32.819965      21651.289      4378.3775      4877.0151      6145.3987      1157.7086     -681.76148     -1360.9428    
   7764000   252.90129     -416.18324     -331.48331     -416.18324      0              5890.4777      30.933001      21.326696      32.606767      21510.642      6290.8928      6007.9537      5372.5865      1003.8184      815.1243       1468.2228    
   7766000   245.84858     -415.66056     -333.32266     -415.66056      0              5379.3794      30.933001      21.326696      32.555558      21476.86       4718.5857      6139.3228      5280.2296     -531.16339      1264.0864     -472.97385    
   7768000   248.39337     -417.00619     -333.81601     -417.00619      0              6173.6009      30.933001      21.326696      32.700297      21572.344      5055.8806      6368.9816      7095.9405      523.14928     -1210.2077     -948.78707    
   7770000   248.31911     -415.32849     -332.16318     -415.32849      0              7037.4248      30.933001      21.326696      32.607177      21510.913      7271.2974      8822.7826      5018.1943     -30.20949      -1792.1577     -638.60483    
   7772000   254.41219     -414.4981      -329.29214     -414.4981       0              5755.1712      30.933001      21.326696      32.685655      21562.684      5726.5091      4835.2228      6703.7816      481.38766      291.352       -1352.0243    
   7774000   254.79397     -413.00418     -327.67035     -413.00418      0              5096.4985      30.933001      21.326696      32.688319      21564.442      5020.4132      7651.5979      2617.4845     -636.15828      179.30102     -1263.134     
   7776000   249.13223     -416.2113      -332.77367     -416.2113       0              8635.2709      30.933001      21.326696      32.671078      21553.068      10516.447      8313.7461      7075.6193      1322.9699      828.32308      250.77162    
   7778000   260.8118      -413.38009     -326.03082     -413.38009      0              4834.8186      30.933001      21.326696      32.651386      21540.077      5931.8952      5757.0913      2815.4695      8.5296124     -54.043778     -540.37847    
   7780000   245.15398     -415.01011     -332.90484     -415.01011      0              6650.4131      30.933001      21.326696      32.655076      21542.511      7132.0177      5575.1955      7244.0262     -435.23596     -972.86047      870.64692    
   7782000   243.98253     -417.20766     -335.49474     -417.20766      0              4264.0043      30.933001      21.326696      32.667561      21550.748      4920.9696      2767.7674      5103.276       147.41631      496.7528       750.66913    
   7784000   245.59372     -415.20207     -332.94953     -415.20207      0              3698.0536      30.933001      21.326696      32.801034      21638.8        5209.2969      3599.8718      2284.992       303.25455     -967.42228      99.894966    
   7786000   256.78982     -415.42758     -329.42532     -415.42758      0              5531.5386      30.933001      21.326696      32.732107      21593.329      5756.522       5226.2153      5611.8785     -1212.2054     -289.1999       530.23343    
   7788000   250.15802     -415.94206     -332.16088     -415.94206      0              6015.5177      30.933001      21.326696      32.440562      21400.997      6626.4055      5022.5232      6397.6243      2512.357      -1132.1759      561.19428    
   7790000   253.00522     -415.32842     -330.59367     -415.32842      0              6025.2375      30.933001      21.326696      32.506365      21444.407      6990.1481      6656.282       4429.2825      145.70651     -288.22972      303.83489    
   7792000   245.1758      -415.30131     -333.18874     -415.30131      0              6208.8423      30.933001      21.326696      32.604216      21508.959      3933.7078      6473.586       8219.233      -533.18584      1249.5279     -904.85461    
   7794000   247.62065     -414.50841     -331.57703     -414.50841      0              5210.4438      30.933001      21.326696      32.815783      21648.53       5666.608       5707.1498      4257.5736     -443.07058      524.10145     -1754.4272    
   7796000   249.8396      -415.97391     -332.29937     -415.97391      0              6926.7287      30.933001      21.326696      32.704528      21575.135      6405.554       5501.1344      8873.4977      510.97522      284.47987      710.44097    
   7798000   255.5234      -414.40331     -328.82519     -414.40331      0              5646.2483      30.933001      21.326696      32.658534      21544.793      5547.7772      7274.6964      4116.2712      661.19004     -925.41507     -2211.974     
   7800000   245.78329     -415.23092     -332.91489     -415.23092      0              7500.6066      30.933001      21.326696      32.483303      21429.193      6534.9156      6899.6854      9067.2188      920.34536     -2621.2855      1168.2558    
   7802000   253.62201     -415.03074     -330.08942     -415.03074      0              7387.7394      30.933001      21.326696      32.465004      21417.121      5317.293       6293.6884      10552.237      791.99354      442.45892     -1652.2168    
   7804000   252.36446     -414.39107     -329.87092     -414.39107      0              7890.4531      30.933001      21.326696      32.501519      21441.21       9482.6144      7444.8366      6743.9084     -82.636368     -1213.4956     -831.98484    
   7806000   248.2672      -416.41279     -333.26487     -416.41279      0              4564.0851      30.933001      21.326696      32.503596      21442.58       4898.2126      4672.7466      4121.2961     -385.51138     -1380.9259     -330.75033    
   7808000   248.61127     -416.16205     -332.8989      -416.16205      0              5925.4218      30.933001      21.326696      32.761894      21612.979      5265.7919      6655.6288      5854.8446     -804.59835      711.89033      314.4029     
   7810000   249.72194     -415.26891     -331.63378     -415.26891      0              5967.5028      30.933001      21.326696      32.924526      21720.267      4925.8682      7620.2203      5356.4198      747.69686      1757.9889     -683.392      
   7812000   253.90003     -414.36744     -329.33301     -414.36744      0              8326.9452      30.933001      21.326696      32.595177      21502.996      9327.5239      7849.3868      7803.9249     -339.20275      2189.1819     -1155.3978    
   7814000   251.61083     -412.77143     -328.50368     -412.77143      0              6370.5746      30.933001      21.326696      32.720929      21585.955      6506.4563      6164.634       6440.6335      958.41246     -522.79148      2167.3767    
   7816000   247.18484     -417.20309     -334.41767     -417.20309      0              5468.9988      30.933001      21.326696      32.758808      21610.943      5035.8833      4555.9709      6815.1423      908.74294      23.112856      1373.0256    
   7818000   243.44692     -414.82289     -333.28934     -414.82289      0              7169.6389      30.933001      21.326696      32.633098      21528.013      6168.4505      6696.3222      8644.1441     -25.126012     -262.88393     -351.75891    
   7820000   253.48088     -412.68797     -327.79392     -412.68797      0              5069.6254      30.933001      21.326696      32.623662      21521.787      4135.7155      7512.4507      3560.7099     -161.63227      2256.8691     -187.25873    
   7822000   253.98071     -416.31474     -331.25329     -416.31474      0              6534.5093      30.933001      21.326696      32.701774      21573.318      5401.9764      8220.6078      5980.9436     -864.72397      1132.1967     -963.18076    
   7824000   241.49639     -413.33701     -332.45672     -413.33701      0              6598.0637      30.933001      21.326696      32.810908      21645.314      4788.8189      8690.0952      6315.2772      2358.1297      2055.1433      1004.2709    
   7826000   248.02261     -411.55137     -328.48536     -411.55137      0              4252.1354      30.933001      21.326696      32.934006      21726.521      3826.7476      5490.5953      3439.0632      714.62115     -29.688486     -420.92662    
   7828000   246.26674     -413.42294     -330.94499     -413.42294      0              7179.8892      30.933001      21.326696      32.703666      21574.566      6349.6399      8724.7765      6465.2511      719.79336     -9.9827787      213.85053    
   7830000   246.06797     -416.23406     -333.82269     -416.23406      0              5501.5628      30.933001      21.326696      32.751627      21606.206      5878.8548      4851.8521      5773.9814     -1262.6865     -220.16177      1426.4107    
   7832000   254.78583     -414.63798     -329.30688     -414.63798      0              6362.5002      30.933001      21.326696      32.673402      21554.601      5766.7071      8330.9051      4989.8883      178.48958      401.26635     -572.84408    
   7834000   250.21441     -415.22006     -331.42        -415.22006      0              5760.2171      30.933001      21.326696      32.59066       21500.016      5356.8742      3997.4894      7926.2877      724.90621     -378.91859      386.32641    
   7836000   247.07762     -413.51626     -330.76675     -413.51626      0              4343.0292      30.933001      21.326696      32.681165      21559.722      4156.9132      2451.3536      6420.8207      1710.7439      1565.2763      717.34397    
   7838000   241.20911     -416.63997     -335.85589     -416.63997      0              4550.411       30.933001      21.326696      32.721848      21586.561      3436.6509      3933.6458      6280.9363     -34.099263      1134.3599      125.10056    
   7840000   251.41022     -415.00451     -330.80395     -415.00451      0              6315.1071      30.933001      21.326696      32.595333      21503.099      4781.2474      6571.2582      7592.8157      2628.5761      8.6004159      454.85455    
   7842000   243.90175     -414.21493     -332.52905     -414.21493      0              6636.9149      30.933001      21.326696      32.535163      21463.405      6713.3032      5855.6264      7341.8149     -536.3816       837.84316     -1989.0877    
   7844000   248.89707     -415.85214     -332.49326     -415.85214      0              6511.9654      30.933001      21.326696      32.631955      21527.258      6433.8108      5411.8352      7690.2502     -197.81797      476.7093      -1177.6437    
   7846000   241.15939     -414.56608     -333.79865     -414.56608      0              5077.2991      30.933001      21.326696      32.855248      21674.565      4493.4021      5508.5374      5229.9579     -572.15356     -429.63223      1733.5558    
   7848000   251.52381     -412.94233     -328.70373     -412.94233      0              3917.5864      30.933001      21.326696      32.802915      21640.041      4566.2775      3860.8958      3325.5859     -777.15036      330.41831     -740.51687    
   7850000   252.66359     -416.25905     -331.63872     -416.25905      0              5397.127       30.933001      21.326696      32.844319      21667.355      7149.6579      4456.1904      4585.5327     -78.386773     -1648.4488      1188.1021    
   7852000   252.79405     -415.91511     -331.25108     -415.91511      0              5903.1942      30.933001      21.326696      32.564469      21482.738      5160.8983      6950.4928      5598.1914      927.24112     -368.39487     -325.97232    
   7854000   252.56304     -416.10279     -331.51613     -416.10279      0              5742.8461      30.933001      21.326696      32.746874      21603.071      5685.6899      4506.333       7036.5155     -508.48211      946.42118      1431.0768    
   7856000   252.0749      -413.99053     -329.56736     -413.99053      0              6579.0352      30.933001      21.326696      32.499339      21439.772      4682.1688      6611.8618      8443.0749     -1769.285      -178.85579     -844.71684    
   7858000   250.66153     -414.92747     -330.97765     -414.92747      0              5672.71        30.933001      21.326696      32.605585      21509.863      4216.0894      3431.4336      9370.6068     -995.36461      430.14949      1726.4435    
   7860000   248.72764     -416.99127     -333.68914     -416.99127      0              5945.8053      30.933001      21.326696      32.527979      21458.665      4984.9901      6877.6733      5974.7524     -576.20337      696.63476     -483.19705    
   7862000   254.83386     -416.38932     -331.04213     -416.38932      0              6082.6884      30.933001      21.326696      32.499103      21439.616      4230.8137      5805.8209      8211.4305      1023.2946      997.70486      542.2222     
   7864000   249.10941     -416.83656     -333.40658     -416.83656      0              4155.5057      30.933001      21.326696      32.761538      21612.744      1567.8032      6017.497       4881.2168      265.89192      946.56136      565.96645    
   7866000   244.18172     -416.0947      -334.31506     -416.0947       0              4574.8934      30.933001      21.326696      32.84005       21664.538      4664.6042      4477.7435      4582.3326     -325.11891      79.962673      860.15522    
   7868000   247.03435     -415.6306      -332.89558     -415.6306       0              4415.3112      30.933001      21.326696      32.723421      21587.599      2312.4106      5398.8881      5534.635      -376.09058     -146.64165     -20.182014    
   7870000   249.03905     -415.07543     -331.669       -415.07543      0              6393.9267      30.933001      21.326696      32.786496      21629.209      5976.6021      7783.7241      5421.4539      269.24776     -995.20859      302.59678    
   7872000   250.712       -413.77277     -329.80605     -413.77277      0              7344.5349      30.933001      21.326696      32.717569      21583.738      7827.2251      7604.1902      6602.1893     -2435.1057      1769.9995      431.16929    
   7874000   256.56443     -417.43075     -331.50398     -417.43075      0              6332.1845      30.933001      21.326696      32.801563      21639.149      5610.3519      6388.5304      6997.6711     -850.639        2125.1471     -1473.4824    
   7876000   245.67258     -414.52665     -332.2477      -414.52665      0              5031.0849      30.933001      21.326696      32.940197      21730.605      5101.9036      5300.0176      4691.3336      1079.7133     -405.07967     -333.45658    
   7878000   254.9689      -418.08526     -332.69285     -418.08526      0              6186.8616      30.933001      21.326696      32.89095       21698.117      4471.3933      7595.1576      6494.0339     -723.74693      34.372947     -1017.9454    
   7880000   247.94971     -416.12265     -333.08106     -416.12265      0              6821.4072      30.933001      21.326696      32.731699      21593.059      6586.6974      6838.0561      7039.468      -1085.7692     -858.34693     -565.14391    
   7882000   249.23019     -415.39456     -331.92412     -415.39456      0              5840.7453      30.933001      21.326696      32.79419       21634.285      6904.156       5769.8528      4848.2271      1031.0241     -787.1605       1339.8928    
   7884000   248.96059     -415.66256     -332.28241     -415.66256      0              6294.1699      30.933001      21.326696      32.584813      21496.159      4162.8519      7044.233       7675.4247     -95.013698      114.06366     -594.96536    
   7886000   250.90843     -414.30558     -330.27308     -414.30558      0              6637.5424      30.933001      21.326696      32.892989      21699.463      5123.0939      5639.2836      9150.2497     -349.2064      -1965.2193      848.48048    
   7888000   256.14995     -414.96605     -329.17809     -414.96605      0              4396.4832      30.933001      21.326696      32.964028      21746.327      5228.5262      3694.681       4266.2424     -1890.5421      312.72765     -64.453006    
   7890000   253.6088      -416.44889     -331.512       -416.44889      0              6816.6245      30.933001      21.326696      32.877748      21689.408      6074.4183      7067.1411      7308.3139      896.16505      1100.6989      297.18903    
   7892000   251.1208      -415.13972     -331.03609     -415.13972      0              4895.4608      30.933001      21.326696      32.950512      21737.411      4702.1001      5881.8359      4102.4462      528.38528     -538.21667     -2580.0497    
   7894000   255.66334     -416.88212     -331.25714     -416.88212      0              6571.475       30.933001      21.326696      32.835199      21661.338      6775.568       6361.146       6577.711       2243.0724      1504.0738      1150.1153    
   7896000   255.36218     -418.22523     -332.70111     -418.22523      0              5458.4798      30.933001      21.326696      32.701899      21573.401      4473.6028      4617.6706      7284.166      -263.94689     -143.52499     -466.69086    
   7898000   248.91494     -417.4711      -334.10624     -417.4711       0              7484.0391      30.933001      21.326696      32.737293      21596.75       6920.0109      8297.7902      7234.3162     -1706.2895      1216.1891     -133.91456    
   7900000   247.5595      -415.98005     -333.06914     -415.98005      0              4852.5913      30.933001      21.326696      32.673128      21554.421      4784.0841      3184.1386      6589.5511      214.18872     -666.03279     -1051.4724    
   7902000   258.96611     -417.24352     -330.5124      -417.24352      0              7983.8171      30.933001      21.326696      32.750848      21605.692      7972.1025      7215.8117      8763.537       146.13105     -1566.9859     -2013.6301    
   7904000   245.8241      -419.03898     -336.70928     -419.03898      0              5573.4576      30.933001      21.326696      32.682186      21560.396      8009.3993      3588.4121      5122.5615     -1379.3194     -1153.2658      549.45652    
   7906000   245.82036     -416.02051     -333.69207     -416.02051      0              5301.4965      30.933001      21.326696      32.58317       21495.075      3660.3829      6528.9542      5715.1523     -126.38752     -114.04826     -953.61203    
   7908000   251.82918     -415.62534     -331.28447     -415.62534      0              8469.8962      30.933001      21.326696      32.347299      21339.472      8345.2239      7258.4998      9805.965      -1039.279      -717.5515       642.27733    
   7910000   253.11577     -417.15999     -332.38822     -417.15999      0              6696.1213      30.933001      21.326696      32.506026      21444.184      6156.6819      7666.0348      6265.6473     -1764.8203     -1613.6139      1353.5516    
   7912000   251.87509     -415.81391     -331.45766     -415.81391      0              6873.4641      30.933001      21.326696      32.702759      21573.968      7628.2027      5743.1347      7249.0549      431.62581     -801.99098     -222.42309    
   7914000   249.22257     -414.07451     -330.60662     -414.07451      0              4225.9326      30.933001      21.326696      32.689947      21565.516      2504.6037      4858.7196      5314.4746      18.540222     -1194.7074     -232.58214    
   7916000   248.80012     -415.07425     -331.74785     -415.07425      0              6449.2758      30.933001      21.326696      32.783536      21627.256      5189.4881      6529.5331      7628.8062      1526.852       1536.4063      404.49281    
   7918000   254.00902     -415.78895     -330.71802     -415.78895      0              7440.6718      30.933001      21.326696      32.83151       21658.905      8271.5971      7646.8989      6403.5195     -1063.6107     -725.37808      679.7863     
   7920000   248.43205     -415.27631     -332.07318     -415.27631      0              6203.4752      30.933001      21.326696      32.780544      21625.282      7219.5007      4705.8403      6685.0847      413.1287      -458.26909     -1859.7707    
   7922000   244.94957     -417.15227     -335.11547     -417.15227      0              8065.0742      30.933001      21.326696      32.699806      21572.02       9267.0126      8929.2032      5999.0069      1169.5923      435.47157      705.94642    
   7924000   247.72688     -419.2371      -336.27014     -419.2371       0              3929.9799      30.933001      21.326696      32.887871      21696.086      6017.1         3676.3492      2096.4905      328.88324      436.85728     -1036.5697    
   7926000   254.45358     -416.62513     -331.4053      -416.62513      0              6126.6553      30.933001      21.326696      32.896204      21701.583      4276.8098      7753.7195      6349.4364     -688.41899     -723.87189      2581.7233    
   7928000   247.994       -415.89317     -332.83674     -415.89317      0              5580.1951      30.933001      21.326696      32.775809      21622.159      6387.3411      5940.1898      4413.0544     -468.34899     -155.62182     -264.10266    
   7930000   247.12677     -414.87531     -332.10933     -414.87531      0              5779.1241      30.933001      21.326696      32.621152      21520.132      6733.3405      6786.8241      3817.2079     -752.25103     -78.861317     -557.45794    
   7932000   252.56141     -415.19604     -330.60993     -415.19604      0              4640.5929      30.933001      21.326696      32.599441      21505.809      3824.4452      3463.813       6633.5205     -706.53517     -725.75107      492.07334    
   7934000   255.85052     -414.94125     -329.25358     -414.94125      0              6411.768       30.933001      21.326696      32.625158      21522.774      6549.9159      5388.6407      7296.7476      617.09806      389.37192      1803.9744    
   7936000   251.5705      -415.38555     -331.13131     -415.38555      0              5180.5416      30.933001      21.326696      32.677979      21557.621      4759.1722      4148.5198      6633.9328     -129.15175      508.57891      215.42019    
   7938000   250.97372     -412.76151     -328.70714     -412.76151      0              7159.7107      30.933001      21.326696      32.580486      21493.305      7510.369       5488.4757      8480.2874      2177.7521     -1195.9207      4.3551369    
   7940000   245.62998     -412.85771     -330.59302     -412.85771      0              5358.651       30.933001      21.326696      32.755159      21608.536      3560.3059      7519.8883      4995.759       65.742744     -996.00164      422.0999     
   7942000   249.40163     -415.58433     -332.05648     -415.58433      0              6612.1368      30.933001      21.326696      32.636212      21530.067      8502.17        4798.5015      6535.7389     -744.08577     -525.15309     -793.13174    
   7944000   250.85892     -412.52958     -328.51366     -412.52958      0              7027.2988      30.933001      21.326696      32.630012      21525.977      5865.4777      9209.4679      6006.9508      256.81927      1278.2561     -746.88449    
   7946000   254.58679     -415.0211      -329.75666     -415.0211       0              8010.4116      30.933001      21.326696      32.505414      21443.78       6809.0989      8730.3478      8491.7882     -271.94557      271.03         951.66332    
   7948000   253.18569     -416.47479     -331.6796      -416.47479      0              7134.2815      30.933001      21.326696      32.599641      21505.941      6537.424       6703.6702      8161.7502      4.6230532     -1259.555       1448.1482    
   7950000   249.75434     -413.99903     -330.35305     -413.99973      0              6106.0126      30.933001      21.326696      32.589527      21499.269      5500.1418      7722.1922      5095.7038      306.55501     -1240.8878     -340.74215    
   7952000   244.77838     -415.31013     -333.33065     -415.32198      0              6476.1601      30.933001      21.326696      32.593945      21502.184      5594.0027      6669.3216      7165.1559      918.8521       1469.0954     -1086.7906    
   7954000   241.85859     -416.0025      -335.0009      -416.01277      0              5570.1983      30.933001      21.326696      32.754326      21607.987      5235.8385      6040.5916      5434.1647      69.997824     -358.63103     -946.79641    
   7956000   249.15087     -416.67638     -333.23251     -416.64769      0              6573.2657      30.933001      21.326696      32.648035      21537.866      6509.8974      6739.2087      6470.691       939.29763      447.8177       699.05537    
   7958000   251.51403     -415.80335     -331.56802     -415.78298      0              4663.1434      30.933001      21.326696      32.752877      21607.031      4297.4702      2051.0424      7640.9176      1918.0744     -921.34817      427.77939    
   7960000   243.32761     -418.28882     -336.79523     -417.73217      0              7079.5106      30.933001      21.326696      32.441609      21401.688      7572.3669      7212.2396      6453.9255     -287.3286      -964.9844       84.554556    
   7962000   256.8482      -419.16585     -333.14404     -418.72063      0              4127.9222      30.933001      21.326696      32.506834      21444.716      6101.4698      3664.1123      2618.1845      271.12047     -2115.3914     -1521.0611    
   7964000   247.18196     -418.39445     -335.60999     -417.9561       0              4398.7018      30.933001      21.326696      32.441036      21401.309      3836.4314      4809.318       4550.356       204.26701     -249.47288      686.46567    
   7966000   251.50141     -417.52494     -333.29383     -416.99971      0              6168.6388      30.933001      21.326696      32.506988      21444.818      6149.0452      6503.7422      5853.1289      227.93168     -263.14215     -1343.9796    
   7968000   246.85712     -418.45798     -335.78231     -418.00831      0              6092.6138      30.933001      21.326696      32.357342      21346.096      6711.1709      5972.8295      5593.8411      292.53942      1192.3694     -1000.3421    
   7970000   245.93411     -420.93299     -338.56645     -420.42872      0              7402.6365      30.933001      21.326696      32.456295      21411.376      7215.0313      6571.8119      8421.0663     -329.56395      1092.5033      1169.9384    
   7972000   254.802       -418.04259     -332.70608     -417.50972      0              6625.1055      30.933001      21.326696      32.406143      21378.291      6442.6878      6053.9148      7378.7138      570.96704      685.16405     -9.4596195    
   7974000   245.57069     -416.88417     -334.63934     -416.46285      0              6183.9597      30.933001      21.326696      32.345288      21338.145      6752.4654      6736.1365      5063.2772      1168.0509      1582.5088     -759.2045     
   7976000   257.31009     -416.65483     -330.47832     -416.22749      0              4363.0184      30.933001      21.326696      32.489335      21433.172      5021.1026      3389.0444      4678.9081     -905.1913       701.72162     -534.80568    
   7978000   248.6838      -416.54518     -333.25773     -416.17415      0              6394.5471      30.933001      21.326696      32.303851      21310.809      7067.9771      5213.7547      6901.9094      199.73934     -24.356668      64.344253    
   7980000   251.46095     -418.05703     -333.83948     -417.61175      0              6539.5305      30.933001      21.326696      32.28252       21296.737      6722.8108      7501.3416      5394.4392      702.67668     -335.19964     -218.41948    
   7982000   253.85568     -418.49632     -333.47674     -418.16912      0              5055.1376      30.933001      21.326696      32.532147      21461.415      4701.2511      4895.0596      5569.1019     -1213.4942     -230.31955     -343.61956    
   7984000   247.33027     -417.99282     -335.15869     -417.62329      0              4927.1744      30.933001      21.326696      32.433032      21396.029      4078.5396      4939.2797      5763.7041      806.22433      1442.3391      127.94364    
   7986000   253.2625      -417.15004     -332.32913     -416.73552      0              3499.4742      30.933001      21.326696      32.265114      21285.254      2676.2875      4102.3548      3719.7801     -1494.0482     -1026.5279     -280.62751    
   7988000   244.61882     -415.06888     -333.14285     -414.76303      0              5814.0512      30.933001      21.326696      32.410449      21381.132      4119.4388      6014.9487      7307.766       128.9154      -475.30498      319.6622     
   7990000   253.9139      -416.59821     -331.55913     -416.23097      0              4736.2783      30.933001      21.326696      32.523391      21455.639      3593.9478      4125.8637      6489.0234     -828.39061     -167.84485     -662.04147    
   7992000   249.6457      -416.9678      -333.3582      -416.62822      0              6201.6135      30.933001      21.326696      32.468098      21419.162      5092.0088      6279.8496      7232.9822      778.60193      811.32971      646.46705    
   7994000   251.23346     -416.46991     -332.32854     -416.17261      0              3999.5331      30.933001      21.326696      32.528014      21458.689      5216.8035      4241.2406      2540.5553     -1213.0996     -44.231153     -1818.1276    
   7996000   246.80826     -416.41975     -333.76045     -416.11752      0              7257.609       30.933001      21.326696      32.430719      21394.503      7348.1942      6573.2127      7851.4201      124.8674      -536.45955      234.50752    
   7998000   258.44523     -415.40053     -328.84386     -415.13148      0              7290.3998      30.933001      21.326696      32.323409      21323.711      7239.7251      6330.4415      8301.033       362.85365      433.11282     -642.78573    
   8000000   245.87817     -417.57907     -335.23126     -417.30736      0              5176.8989      30.933001      21.326696      32.493452      21435.888      3041.1511      5983.6743      6505.8714      632.30592      258.07284      1404.9602    
   8002000   247.09516     -415.89507     -333.13968     -415.65565      0              5907.3829      30.933001      21.326696      32.537115      21464.693      5865.8004      7505.8069      4350.5415      424.14035      662.65887     -545.30548    
   8004000   251.98595     -414.195       -329.80162     -413.96231      0              6022.3703      30.933001      21.326696      32.72122       21586.147      5231.2277      8170.8602      4665.023       180.50048      8.2857565     -1035.316     
   8006000   250.60505     -417.59835     -333.66745     -417.36954      0              6378.3773      30.933001      21.326696      32.619725      21519.191      6680.2099      6104.1549      6350.7669     -1375.5932      47.447001      301.38861    
   8008000   245.87695     -418.33386     -335.98646     -418.13131      0              6502.6295      30.933001      21.326696      32.355939      21345.171      5778.2805      7207.9768      6521.6311     -1042.7801     -1506.2038      302.07084    
   8010000   251.44945     -415.09656     -330.88286     -414.87891      0              8237.9677      30.933001      21.326696      32.316315      21319.031      7506.5491      8302.3946      8904.9595      2305.183       881.41321      21.098306    
   8012000   248.00778     -415.31016     -332.24912     -415.12437      0              4252.6512      30.933001      21.326696      32.578929      21492.277      2911.7715      4689.8125      5156.3698      443.27282     -448.79529      1140.2802    
   8014000   247.23128     -418.52836     -335.72738     -418.35099      0              5524.6287      30.933001      21.326696      32.636893      21530.516      4330.5741      7493.9494      4749.3626      519.92239      176.94277      321.56301    
   8016000   244.69578     -416.10694     -334.15513     -415.92587      0              6493.5076      30.933001      21.326696      32.59602       21503.552      4938.48        7261.6066      7280.4362      685.43448      564.45085      681.25907    
   8018000   251.23387     -416.11611     -331.97462     -415.96257      0              5958.5237      30.933001      21.326696      32.72951       21591.615      5258.6978      5068.6597      7548.2136     -1828.3834      1668.8599     -1005.1853    
   8020000   250.79501     -412.87125     -328.87674     -412.71818      0              5987.4365      30.933001      21.326696      32.598929      21505.472      7498.3115      5203.8165      5260.1817      541.70443      653.73802     -666.10889    
   8022000   256.5427      -414.96917     -329.04968     -414.8502       0              5890.1443      30.933001      21.326696      32.609576      21512.496      4143.9591      7267.2775      6259.1963      1739.4521      913.90049      1591.2387    
   8024000   253.0141      -415.52597     -330.78825     -415.39596      0              6607.9795      30.933001      21.326696      32.562601      21481.506      6896.7046      7032.1333      5895.1006     -631.1713      -2604.1669     -1721.1263    
   8026000   247.22958     -415.39624     -332.59583     -415.29354      0              5584.1459      30.933001      21.326696      32.57733       21491.223      5755.7842      6123.6206      4873.0331     -204.21452     -1882.4804      363.11394    
   8028000   252.96326     -413.92588     -329.20518     -413.79972      0              5889.5254      30.933001      21.326696      32.6175        21517.723      4920.3556      5787.7831      6960.4375     -236.34506      102.64581      109.3621     
   8030000   253.91908     -415.33217     -330.29136     -415.23388      0              9042.286       30.933001      21.326696      32.522012      21454.729      6620.4873      10137.347      10369.024     -81.064078     -689.52049     -23.926612    
   8032000   255.3872      -414.41061     -328.87811     -414.31697      0              8686.2436      30.933001      21.326696      32.548         21471.874      8327.0767      8871.1693      8860.4849      1015.2037      676.05054     -176.30999    
   8034000   246.33499     -417.24615     -334.74535     -417.15281      0              5967.5619      30.933001      21.326696      32.406507      21378.531      7407.0981      3627.1147      6868.473      -482.41998      291.21591      866.34268    
   8036000   245.7128      -419.2476      -336.95517     -419.16719      0              6681.8706      30.933001      21.326696      32.602786      21508.016      5701.3243      7517.1218      6827.1657     -92.372733      512.42098      496.34287    
   8038000   255.38018     -416.52589     -330.99574     -416.45475      0              5436.5081      30.933001      21.326696      32.629272      21525.489      3073.5726      6450.0987      6785.8529      427.41499      629.03024      691.47587    
   8040000   250.87954     -416.29444     -332.27161     -416.23379      0              6228.996       30.933001      21.326696      32.815602      21648.41       6239.5161      7573.8431      4873.629       794.29989      983.6303      -227.04614    
   8042000   250.88374     -416.17308     -332.14884     -416.11788      0              5640.6852      30.933001      21.326696      32.630086      21526.026      8111.4789      2550.9         6259.6767     -1684.4374      52.625624      976.57348    
   8044000   251.55589     -416.03006     -331.78071     -415.96848      0              5744.641       30.933001      21.326696      32.591217      21500.384      5734.6564      5061.545       6437.7216      2276.5078      804.09049      410.77917    
   8046000   241.33721     -415.88358     -335.0566      -415.84591      0              5955.9104      30.933001      21.326696      32.539654      21466.368      5880.0309      5858.1519      6129.5483     -1535.4739     -554.63336     -962.47148    
   8048000   254.03827     -416.14977     -331.06904     -416.1123       0              5421.014       30.933001      21.326696      32.45573       21411.003      5176.9592      4831.3676      6254.7152      1003.177       1664.2433      2105.258     
   8050000   249.13458     -415.8077      -332.36928     -415.78519      0              7670.1919      30.933001      21.326696      32.537352      21464.849      8977.5055      7327.7296      6705.3408      340.91793     -204.84025     -20.443254    
   8052000   253.76561     -419.18328     -334.19387     -419.15885      0              7179.7799      30.933001      21.326696      32.459637      21413.581      5976.6188      7027.517       8535.204       831.29963     -368.26538      193.08218    
   8054000   247.45555     -415.09139     -332.2153      -415.08843      0              5930.6295      30.933001      21.326696      32.506811      21444.701      5184.2912      6165.5954      6442.0018     -293.3563      -698.38339      819.23651    
   8056000   250.3672      -417.23288     -333.38164     -417.20408      0              7174.0154      30.933001      21.326696      32.537573      21464.995      4726.188       7770.9366      9024.9216     -1382.2522      1035.0927      1260.3156    
   8058000   254.59793     -415.59243     -330.32427     -415.58234      0              4772.9147      30.933001      21.326696      32.609459      21512.418      4574.8682      4120.0181      5623.8577      593.82096      74.294893      698.72861    
   8060000   247.78426     -414.58812     -331.60194     -414.58161      0              6569.9116      30.933001      21.326696      32.567065      21484.451      7401.4085      7723.5767      4584.7496      598.30678      1446.5792      901.88469    
   8062000   249.31646     -412.81371     -329.31438     -412.802        0              4600.9509      30.933001      21.326696      32.660638      21546.181      5968.6961      4111.303       3722.8536     -437.35593     -177.26639      1503.7896    
   8064000   253.96225     -414.55391     -329.49864     -414.55001      0              6118.4773      30.933001      21.326696      32.58959       21499.31       6055.338       5567.0191      6733.0746     -128.04959     -459.3957      -80.544215    
   8066000   248.81165     -415.74009     -332.40983     -415.73576      0              5894.9067      30.933001      21.326696      32.41065       21381.264      3651.4622      6225.805       7807.4527      850.09868      1123.4932      58.99826     
   8068000   251.13121     -415.02226     -330.91514     -415.0129       0              6380.3592      30.933001      21.326696      32.31109       21315.584      5572.7486      6465.1919      7103.1371      722.6843      -1016.8203      1398.1927    
   8070000   249.78413     -416.7314      -333.07543     -416.68489      0              6129.6208      30.933001      21.326696      32.451503      21408.215      6303.2592      6277.5161      5808.0871     -2124.2768     -483.17424     -817.70886    
   8072000   247.1126      -417.44631     -334.68508     -417.40613      0              4549.4522      30.933001      21.326696      32.514738      21449.93       4590.3926      3295.1357      5762.8284      1155.9243     -628.41284      1859.0585    
   8074000   252.77762     -417.41929     -332.76077     -417.42401      0              5887.2773      30.933001      21.326696      32.663506      21548.072      5734.0152      5387.6052      6540.2114     -524.93136     -728.80313     -1612.1459    
   8076000   247.49346     -414.82643     -331.93764     -414.82623      0              4867.4845      30.933001      21.326696      32.337873      21333.253      4041.2955      5363.48        5197.678      -179.95396      632.17957     -290.47444    
   8078000   248.72291     -412.00651     -328.70597     -411.99898      0              6011.3914      30.933001      21.326696      32.384823      21364.226      5908.0678      7343.0777      4783.0289     -555.34623      632.60149     -1142.125     
   8080000   254.98077     -414.05076     -328.65437     -414.05947      0              5944.611       30.933001      21.326696      32.482598      21428.728      5572.2359      6737           5524.597      -859.94281      372.65447      284.97933    
   8082000   252.40435     -415.03562     -330.50212     -415.05128      0              7133.6725      30.933001      21.326696      32.586967      21497.58       7380.3981      6912.858       7107.7613     -14.94871       615.86611     -1064.5849    
   8084000   250.18486     -414.11427     -330.3241      -414.11055      0              3455.2475      30.933001      21.326696      32.609461      21512.42       823.78559      4581.5405      4960.4165     -490.29992     -474.55238     -284.07645    
   8086000   242.14264     -414.96881     -333.87209     -414.97589      0              7253.2818      30.933001      21.326696      32.438719      21399.781      8152.7812      8061.6503      5545.4139      2267.2438      885.97612     -1139.3769    
   8088000   252.71455     -414.74855     -330.11115     -414.76291      0              4645.7123      30.933001      21.326696      32.556178      21477.268      4792.5368      4919.6764      4224.9238     -1225.7444     -29.958724     -889.29516    
   8090000   250.90556     -417.23914     -333.2076      -417.24016      0              4626.604       30.933001      21.326696      32.6048        21509.344      4485.0317      4326.6594      5068.121       1123.7124     -64.436564      1513.8913    
   8092000   241.21793     -416.83271     -336.04568     -416.84778      0              5554.8594      30.933001      21.326696      32.604762      21509.32       5009.401       5685.8014      5969.3758     -723.78983      161.44143     -552.62628    
   8094000   248.52756     -418.02913     -334.79401     -418.04678      0              5416.5956      30.933001      21.326696      32.5916        21500.637      3958.0121      5104.0866      7187.6881      2227.6162      197.27424      1898.298     
   8096000   251.38028     -420.22586     -336.03533     -420.22079      0              6803.2861      30.933001      21.326696      32.475866      21424.287      6336.3539      6872.5478      7200.9566     -512.67491      524.77801     -1184.9133    
   8098000   249.63214     -416.78705     -333.18199     -416.81076      0              5588.7194      30.933001      21.326696      32.514703      21449.908      3091.8375      7015.6008      6658.7199      237.69904      1050.0841     -1555.4389    
   8100000   247.88935     -415.25874     -332.23737     -415.26251      0              7753.8057      30.933001      21.326696      32.563548      21482.13       9064.8208      7102.5192      7094.0772      892.54011      1073.8701     -1718.4236    
   8102000   252.84413     -416.95312     -332.27232     -416.96279      0              6837.096       30.933001      21.326696      32.520715      21453.874      8750.2234      5102.7608      6658.3036      328.95904      517.56663      64.197865    
   8104000   255.03753     -418.81369     -333.3983      -418.83205      0              6301.2682      30.933001      21.326696      32.464515      21416.799      4491.2881      7609.8927      6802.6237     -1246.2987      1395.0849      307.22459    
   8106000   246.80564     -416.61707     -333.95865     -416.63478      0              8068.387       30.933001      21.326696      32.590622      21499.991      7078.8353      8470.1956      8656.13        191.73105      1540.0634      1185.2415    
   8108000   252.51514     -416.01319     -331.44258     -416.04047      0              5619.8484      30.933001      21.326696      32.699605      21571.887      4711.3207      5731.936       6416.2884      737.88505      1210.3019      1102.2498    
   8110000   247.67228     -414.39025     -331.44157     -413.8169       0              7535.8281      30.933001      21.326696      32.604726      21509.296      8707.8336      7304.7203      6594.9304      2033.2543     -1022.851      -174.63026    
   8112000   249.40963     -410.11452     -326.58398     -409.51294      0              4437.0225      30.933001      21.326696      32.785265      21628.397      4412.4105      3583.8349      5314.8221      1807.5147      1211.3135      1017.7699    
   8114000   248.7256      -409.23447     -325.93303     -408.64119      0              5129.8272      30.933001      21.326696      32.74251       21600.192      4346.412       5650.5902      5392.4793      1301.0193      712.55187     -5.6003248    
   8116000   251.82829     -412.43497     -328.09439     -411.81216      0              5203.5221      30.933001      21.326696      32.465017      21417.13       4805.1064      3808.7465      6996.7135     -555.37181      196.4747       946.35596    
   8118000   251.30062     -411.97898     -327.81512     -411.39435      0              6680.5803      30.933001      21.326696      32.593159      21501.665      5155.515       7852.302       7033.9239     -380.22647      1541.2604      297.01354    
   8120000   250.97008     -413.57724     -329.52409     -412.99805      0              6367.6921      30.933001      21.326696      32.637629      21531.002      7281.31        6387.268       5434.4984      124.25864      401.54409      584.28536    
   8122000   252.83724     -412.85991     -328.18142     -412.25306      0              8014.1508      30.933001      21.326696      32.633495      21528.274      6940.1664      7628.528       9473.7579      245.78773      1354.6095     -53.245099    
   8124000   251.06245     -411.26388     -327.17979     -410.66845      0              6545.9134      30.933001      21.326696      32.645369      21536.108      7123.569       4857.9869      7656.1844      241.52218     -56.220163     -424.30417    
   8126000   248.34739     -413.24528     -330.0705      -412.65667      0              4602.2224      30.933001      21.326696      32.807621      21643.145      2443.0167      5418.0082      5945.6422     -867.77308      522.60797     -56.464332    
   8128000   241.86953     -414.83929     -333.83403     -414.2574       0              3929.694       30.933001      21.326696      32.639972      21532.547      3395.302       6367.7838      2025.9963     -1545.9347      2210.3012     -87.752569    
   8130000   249.35299     -412.53        -329.01843     -411.96191      0              4907.8078      30.933001      21.326696      32.773282      21620.492      4895.9878      5431.8072      4395.6284      2192.1581     -5.7618172      28.833338    
   8132000   249.13481     -414.10273     -330.66424     -413.53999      0              8131.9392      30.933001      21.326696      32.717465      21583.669      6780.0732      9136.8313      8478.913      -240.97249     -338.87409      13.967669    
   8134000   253.18058     -413.50364     -328.71017     -412.94909      0              6395.6674      30.933001      21.326696      32.745666      21602.274      5482.0229      6711.1639      6993.8155     -733.23721     -49.332118      507.26003    
   8136000   247.74863     -415.8183      -332.84406     -415.2695       0              4858.0788      30.933001      21.326696      32.627763      21524.493      4581.8749      5557.7305      4434.6311      789.22858      1179.7646     -1155.7129    
   8138000   240.60063     -415.89406     -335.31377     -415.33791      0              6824.0283      30.933001      21.326696      32.498894      21439.478      7759.6648      5367.6839      7344.7361     -1807.2883      1006.1076     -416.93568    
   8140000   249.43862     -415.18065     -331.6404      -414.63355      0              5544.3236      30.933001      21.326696      32.660591      21546.15       5692.9526      7631.2749      3308.7434     -71.810308     -920.66         1201.1245    
   8142000   252.79064     -416.28239     -331.61951     -415.76419      0              5898.5456      30.933001      21.326696      32.534333      21462.858      6473.4595      6181.5652      5040.612       1197.1561      947.50828      109.52503    
   8144000   241.80843     -413.30653     -332.32173     -412.79639      0              6930.6265      30.933001      21.326696      32.52013       21453.488      6658.0875      6834.0565      7299.7354     -16.166158      161.77214     -937.05657    
   8146000   250.06406     -414.66535     -330.91564     -414.18531      0              6991.789       30.933001      21.326696      32.574731      21489.508      5104.0103      8599.5399      7271.8167      1861.4227     -611.11524      132.82028    
   8148000   243.90256     -414.59336     -332.90722     -414.17706      0              8449.4464      30.933001      21.326696      32.602241      21507.656      8998.6802      8337.4197      8012.2393      260.24769     -218.66214     -904.63261    
   8150000   247.19977     -413.20808     -330.41766     -412.73783      0              7400.6786      30.933001      21.326696      32.666936      21550.336      8645.8171      6062.792       7493.4268     -1293.5614      951.91342      852.26651    
   8152000   250.13779     -416.76966     -332.99526     -416.26494      0              6755.1548      30.933001      21.326696      32.585742      21496.772      7205.3661      6179.1751      6880.9232     -174.69253      31.197618      791.19411    
   8154000   250.85448     -412.75966     -328.74523     -412.22913      0              4836.3319      30.933001      21.326696      32.603432      21508.442      4542.1407      4319.7396      5647.1154      2117.7077     -159.26611      1367.9132    
   8156000   251.89865     -412.48623     -328.12208     -411.96544      0              6074.8121      30.933001      21.326696      32.626846      21523.888      5525.6737      6641.6764      6057.0862     -454.32908      225.18684     -282.17725    
   8158000   250.6124      -414.70101     -330.76764     -414.21345      0              6835.5211      30.933001      21.326696      32.676417      21556.59       7183.4628      4910.5182      8412.5823     -387.99904      1602.2373      95.299298    
   8160000   251.19919     -413.99873     -329.86885     -413.52099      0              6793.1896      30.933001      21.326696      32.750906      21605.73       6530.0634      6390.9716      7458.5339      1037.9728     -832.99956      70.763677    
   8162000   251.61867     -416.25352     -331.98314     -415.78786      0              6619.5302      30.933001      21.326696      32.629006      21525.313      7851.6148      4788.2419      7218.7338      394.64773     -1025.4704     -90.210597    
   8164000   248.21525     -414.21277     -331.08225     -413.79749      0              6615.0717      30.933001      21.326696      32.832567      21659.602      5760.2519      8525.5341      5559.4291     -480.62152      2297.296       635.94665    
   8166000   249.7208      -414.59144     -330.95668     -414.08888      0              5710.2191      30.933001      21.326696      32.676503      21556.647      5073.169       6576.9422      5480.5459      713.1651       653.45184      254.79024    
   8168000   250.2001      -415.40574     -331.61046     -414.93422      0              4306.2099      30.933001      21.326696      32.654422      21542.08       5023.5386      3253.1421      4641.9492     -810.97095     -892.44148      332.40143    
   8170000   255.59098     -414.99522     -329.39446     -414.52754      0              5691.7754      30.933001      21.326696      32.759612      21611.473      5486.1709      5347.4893      6241.666       689.23479      2316.4524     -76.923395    
   8172000   248.37103     -415.80562     -332.62293     -415.41489      0              5843.5476      30.933001      21.326696      32.712579      21580.446      6815.8512      4286.8226      6427.9689      679.12216      1690.4879     -60.005604    
   8174000   251.02611     -413.71244     -329.64052     -413.23404      0              6134.6405      30.933001      21.326696      32.782279      21626.427      6817.9704      6162.3472      5423.6037     -1424.5214      1375.3759      69.353033    
   8176000   251.48854     -416.16031     -331.93352     -415.68742      0              4378.2867      30.933001      21.326696      32.88055       21691.257      5897.0845      5610.2688      1627.5067      1557.6191      609.50954      26.309953    
   8178000   249.1238      -415.09112     -331.65632     -414.64777      0              6026.4193      30.933001      21.326696      32.756774      21609.602      5685.8767      7089.9198      5303.4615     -139.68679      1835.7805     -420.01514    
   8180000   255.95053     -414.87938     -329.15821     -414.42739      0              7004.6693      30.933001      21.326696      32.686437      21563.2        7652.3988      7065.1527      6296.4564      1307.3957      243.13253     -597.24519    
   8182000   251.46229     -413.83408     -329.61608     -413.44035      0              6392.1072      30.933001      21.326696      32.697315      21570.376      4948.9412      9842.9157      4384.4646     -654.12645      974.03981     -738.22954    
   8184000   247.7821      -415.23696     -332.2515      -414.78972      0              7305.4374      30.933001      21.326696      32.665232      21549.211      4715.2218      9090.4814      8110.6089      1157.7638      694.26516      562.02503    
   8186000   246.53434     -414.4021      -331.83453     -414.01166      0              4389.4287      30.933001      21.326696      32.722401      21586.926      2072.9624      5393.102       5702.2215      1036.9128     -44.065348     -1593.2709    
   8188000   250.31497     -415.81389     -331.98014     -415.38455      0              6250.7889      30.933001      21.326696      32.611855      21513.999      7103.3178      4888.8811      6760.1677     -165.43071     -818.80272     -204.20161    
   8190000   251.69361     -416.58397     -332.2885      -416.16918      0              6688.2569      30.933001      21.326696      32.670098      21552.421      6639.8583      6324.9129      7099.9995      221.09533     -405.81293      1811.6405    
   8192000   247.12343     -415.16517     -332.40031     -414.72277      0              4755.3993      30.933001      21.326696      32.86421       21680.477      5041.1737      4045.3586      5179.6656      221.41994      665.69732     -1295.2333    
   8194000   247.17581     -413.15071     -330.36831     -412.71867      0              5279.4576      30.933001      21.326696      32.736776      21596.409      4932.8187      6388.9166      4516.6375      163.04624     -642.30755     -1627.729     
   8196000   253.0595      -416.61518     -331.86225     -416.21003      0              4938.4745      30.933001      21.326696      32.707497      21577.094      5997.0586      6264.2395      2554.1255     -10.73079      -815.69824      1962.8344    
   8198000   250.77291     -415.40916     -331.42204     -414.98935      0              5106.7492      30.933001      21.326696      32.594946      21502.844      3031.6973      7164.9197      5123.6305      1188.1225      465.72711      206.51045    
   8200000   247.7024      -413.91994     -330.96117     -413.52466      0              7248.6402      30.933001      21.326696      32.498278      21439.072      5614.4001      8689.3561      7442.1642      1993.2539      368.90716      213.59771    
   8202000   255.07894     -413.42493     -327.99567     -413.08964      0              6533.3721      30.933001      21.326696      32.553116      21475.248      4590.6155      7681.1058      7328.3949     -751.72186     -304.98649     -492.32166    
   8204000   252.04451     -414.67565     -330.26266     -414.28196      0              6608.0596      30.933001      21.326696      32.532979      21461.964      5763.5875      6967.6312      7092.9601      800.35521      1476.5652      547.62659    
   8206000   248.73203     -416.96456     -333.66096     -416.63426      0              6754.2372      30.933001      21.326696      32.681919      21560.22       7999.9543      7029.5938      5233.1635      639.83121      765.68078      1171.0153    
   8208000   253.25441     -415.56207     -330.74387     -415.15654      0              4324.6478      30.933001      21.326696      32.802722      21639.913      4702.5144      5664.944       2606.4852      2314.7724      199.78238      958.38354    
   8210000   252.58371     -413.51475     -328.92117     -413.14768      0              4988.9295      30.933001      21.326696      32.769582      21618.051      5764.0635      5114.7392      4087.9858     -32.203409     -0.79718794    -812.51273    
   8212000   254.57441     -415.18423     -329.92394     -414.81757      0              5709.7674      30.933001      21.326696      32.731095      21592.661      6836.7245      5633.6464      4658.9312     -337.68065     -2656.9297      419.22398    
   8214000   248.63227     -415.33399     -332.06381     -414.97114      0              6905.4539      30.933001      21.326696      32.571334      21487.267      7075.9973      4431.085       9209.2795     -185.96507      957.37857      25.617745    
   8216000   253.9728      -415.65262     -330.59382     -415.27793      0              5515.3315      30.933001      21.326696      32.536556      21464.324      6666.7951      3249.0501      6630.1493     -1122.3197     -996.18595     -375.85329    
   8218000   251.26244     -415.78277     -331.6317      -415.49073      0              7469.4753      30.933001      21.326696      32.703684      21574.578      7247.1047      7202.0153      7959.3058      527.93337     -900.72015     -1557.0755    
   8220000   252.22147     -413.98413     -329.51187     -413.62317      0              5971.4155      30.933001      21.326696      32.655253      21542.628      5060.5045      6327.8692      6525.8727      458.36799     -54.080181      676.53934    
   8222000   246.34347     -415.51397     -333.01033     -415.13548      0              6858.0298      30.933001      21.326696      32.686311      21563.117      6384.3073      7957.356       6232.4259      1409.8607     -354.73916     -2703.7281    
   8224000   251.54736     -414.12248     -329.87599     -413.82026      0              5572.105       30.933001      21.326696      32.774131      21621.052      5095.2341      4183.5927      7437.4882     -765.65636     -492.85269      664.021      
   8226000   251.50796     -415.69257     -331.45928     -415.37429      0              6720.5657      30.933001      21.326696      32.750525      21605.479      7388.6097      7377.6583      5395.4292      638.80818      556.23027     -841.02126    
   8228000   248.67041     -415.33977     -332.05681     -414.97079      0              7507.7943      30.933001      21.326696      32.648234      21537.998      6864.909       7132.9061      8525.5678      563.67715     -1535.6758      866.96636    
   8230000   241.61943     -417.37197     -336.45047     -417.01615      0              5649.8688      30.933001      21.326696      32.743408      21600.784      5994.6839      6420.6901      4534.2325      57.550001     -1571.4316      1229.8323    
   8232000   251.77689     -415.70334     -331.37998     -415.3647       0              7749.6026      30.933001      21.326696      32.927186      21722.022      6668.943       10096.914      6482.951       685.46957     -57.612058      648.66369    
   8234000   243.75433     -418.1385      -336.50199     -417.81652      0              4294.9939      30.933001      21.326696      32.908263      21709.539      5512.4422      6432.8009      939.73849      866.02143     -1816.318       257.99204    
   8236000   250.49035     -415.21379     -331.32131     -415.00495      0              7333.2794      30.933001      21.326696      32.799629      21637.873      8598.3941      8152.4983      5248.9458      536.46393      488.01656      579.26697    
   8238000   252.92206     -414.05849     -329.35159     -413.8071       0              7180.1858      30.933001      21.326696      32.729437      21591.567      6422.0885      7073.9319      8044.5371     -2.7044422     -515.51292      16.261171    
   8240000   251.3399      -415.76947     -331.59246     -415.48893      0              5760.4202      30.933001      21.326696      32.649804      21539.033      5517.693       7490.6504      4272.9173      1179.9395     -565.01222     -877.54382    
   8242000   258.68221     -416.51017     -329.87413     -416.16468      0              6885.7822      30.933001      21.326696      32.612096      21514.158      6666.5955      7549.0058      6441.7453     -1064.3126      404.00093     -215.90676    
   8244000   244.18217     -412.6222      -330.84241     -412.32315      0              7500.7347      30.933001      21.326696      32.59986       21506.085      7172.1714      9179.436       6150.5966      307.77239      59.877058     -512.24794    
   8246000   248.73976     -416.72386     -333.41767     -416.45077      0              7357.6919      30.933001      21.326696      32.474578      21423.437      7784.7254      8848.6739      5439.6763     -524.22611      561.44747     -1014.4089    
   8248000   251.05665     -413.62463     -329.54248     -413.31735      0              6675.9334      30.933001      21.326696      32.591495      21500.567      4633.128       9089.0841      6305.5882      521.66364      1542.466       166.77482    
   8250000   254.30606     -415.65767     -330.48726     -415.35263      0              7373.7929      30.933001      21.326696      32.557266      21477.986      7555.7663      8131.1576      6434.4548      608.62082      699.06631      1506.7972    
   8252000   241.31329     -414.13539     -333.31643     -413.80466      0              6370.1389      30.933001      21.326696      32.797384      21636.392      6136.4922      5347.7465      7626.1779     -597.05672     -462.47785     -1689.8178    
   8254000   250.22281     -413.48665     -329.68377     -413.18471      0              6695.9385      30.933001      21.326696      32.765914      21615.631      7098.438       7086.9565      5902.421       1195.3187     -154.70477      38.444482    
   8256000   256.88184     -412.44284     -326.40976     -412.12882      0              7590.9473      30.933001      21.326696      32.519548      21453.104      6955.77        8711.3227      7105.7492     -973.26672      381.73953     -444.53816    
   8258000   249.68729     -414.11051     -330.48698     -413.83391      0              5758.5338      30.933001      21.326696      32.459567      21413.535      6535.5566      5711.0367      5029.0083     -403.37349      76.029581      1037.1892    
   8260000   248.54555     -412.14605     -328.9049      -411.84218      0              5781.1565      30.933001      21.326696      32.52422       21456.186      4318.5075      5988.828       7036.1341      1183.8149      2426.9633     -777.88847    
   8262000   259.82774     -413.63093     -326.61123     -413.32492      0              7344.6472      30.933001      21.326696      32.739287      21598.066      7474.6882      5207.5379      9351.7156     -843.06193     -120.20961     -783.41873    
   8264000   248.33128     -413.98021     -330.81082     -413.71589      0              4401.2835      30.933001      21.326696      32.655542      21542.819      3458.9902      4787.5455      4957.3148      2194.7603     -761.9671      -253.04839    
   8266000   245.62572     -414.90752     -332.64427     -414.62354      0              5815.8723      30.933001      21.326696      32.538943      21465.899      7293.9722      5369.5469      4784.0978     -160.12173     -936.31864      1243.3749    
   8268000   251.05487     -413.69358     -329.61204     -413.40378      0              7155.9197      30.933001      21.326696      32.574705      21489.491      9088.9036      6572.2987      5806.5569     -903.67239     -784.19489     -584.6424     
   8270000   247.50165     -414.00468     -331.11316     -413.88654      0              5861.3487      30.933001      21.326696      32.645793      21536.388      4423.4412      6698.0256      6462.5791     -978.02729     -81.493139     -4.7830916    
   8272000   256.16187     -415.14847     -329.35652     -414.89219      0              8598.0054      30.933001      21.326696      32.637368      21530.829      7759.3634      10624.555      7410.0974      260.83982     -1504.5123      557.70351    
   8274000   250.3142      -416.20294     -332.36945     -415.95021      0              4754.2318      30.933001      21.326696      32.590923      21500.19       2956.9371      7261.3935      4044.3648      1752.0856     -1647.5687      1746.8506    
   8276000   249.48476     -412.5587      -329.003       -412.2881       0              5523.0194      30.933001      21.326696      32.555714      21476.963      4671.1721      6565.3677      5332.5184     -1061.6796     -963.70681      119.73598    
   8278000   249.42427     -413.86677     -330.33133     -413.61197      0              8159.3246      30.933001      21.326696      32.740247      21598.699      6953.9198      10392.772      7131.2815     -392.74837     -198.23334      130.41023    
   8280000   250.9229      -410.93401     -326.89666     -410.66332      0              5820.071       30.933001      21.326696      32.857632      21676.137      5868.4397      7275.199       4316.5744     -186.33133      848.07474     -335.44123    
   8282000   252.87683     -412.84442     -328.15267     -412.61104      0              4722.4974      30.933001      21.326696      32.675825      21556.2        4762.0538      4501.4624      4903.9761     -14.542931      293.49174      837.01063    
   8284000   243.41587     -415.02296     -333.49981     -414.80326      0              5431.9921      30.933001      21.326696      32.622128      21520.776      5130.8474      4654.2864      6510.8424      40.589304     -539.13136     -96.308484    
   8286000   254.16677     -413.70764     -328.58388     -413.49936      0              4288.0342      30.933001      21.326696      32.761338      21612.612      4599.8472      4859.8689      3404.3866      219.19454     -400.44699     -289.78692    
   8288000   248.70395     -414.31884     -331.02464     -414.09453      0              6781.6595      30.933001      21.326696      32.669645      21552.123      7764.0696      4609.1859      7971.7232     -768.10835     -803.58047     -330.35662    
   8290000   248.19498     -414.34937     -331.22564     -414.14985      0              4342.3897      30.933001      21.326696      32.596278      21503.723      4801.8157      3420.4079      4804.9455      181.48555      421.70275      898.25467    
   8292000   245.90462     -413.1083      -330.75163     -412.84669      0              5801.5974      30.933001      21.326696      32.629518      21525.651      4250.4101      6393.5762      6760.8059      1245.1255      169.79132      1159.3265    
   8294000   250.13299     -414.41636     -330.64356     -414.24702      0              5300.9548      30.933001      21.326696      32.696926      21570.12       5352.4345      4972.4497      5577.9801      1713.8581     -244.59483     -933.94584    
   8296000   250.63001     -414.6388      -330.69954     -414.40343      0              7260.41        30.933001      21.326696      32.440452      21400.924      6856.231       7294.1618      7630.8371      2238.3876      907.09564     -404.69659    
   8298000   245.51041     -412.97336     -330.74872     -412.74089      0              5522.8582      30.933001      21.326696      32.266931      21286.453      5723.0352      6163.6908      4681.8485      2015.5416     -60.744171     -26.373982    
   8300000   245.87685     -415.87616     -333.52879     -415.62706      0              6788.2331      30.933001      21.326696      32.359115      21347.266      6159.7045      6408.8258      7796.1688      1968.2237     -262.33688      507.79896    
   8302000   249.08374     -412.54815     -329.12676     -412.30482      0              4348.7628      30.933001      21.326696      32.356406      21345.479      6344.4605      3787.4581      2914.3699      354.39071     -1674.3145     -949.33695    
   8304000   243.88294     -414.83814     -333.15857     -414.60624      0              6925.4053      30.933001      21.326696      32.291535      21302.684      7295.6483      7074.7647      6405.8028      1271.7957     -1769.9198      936.39787    
   8306000   247.79503     -414.78051     -331.79072     -414.61352      0              7589.6862      30.933001      21.326696      32.375746      21358.238      7438.1968      7961.9209      7368.9409     -356.70563     -1206.5997     -498.84349    
   8308000   251.58389     -414.12593     -329.86721     -413.91075      0              5583.4569      30.933001      21.326696      32.509973      21446.787      5568.1563      6430.0299      4752.1845      340.87623      564.42354      2089.5705    
   8310000   248.8139      -415.03978     -331.70876     -414.93493      0              6047.2861      30.933001      21.326696      32.497368      21438.472      5480.6469      6247.3224      6413.8891      146.57408     -287.32068     -36.524389    
   8312000   248.27729     -417.58208     -334.43078     -417.39258      0              5880.9536      30.933001      21.326696      32.397552      21372.623      4530.8628      6731.7335      6380.2644      2006.0892      703.55974     -327.7718     
   8314000   249.00688     -411.90823     -328.51258     -411.70001      0              6751.0827      30.933001      21.326696      32.530226      21460.148      7850.1911      5663.5976      6739.4594     -922.94134      1681.2054     -953.57467    
   8316000   254.24417     -414.76879     -329.6191      -414.57423      0              4380.3555      30.933001      21.326696      32.490525      21433.957      5668.6364      2085.0473      5387.3828     -389.30897     -1617.4143      357.32745    
[...]
  15450000   253.8171      -413.91798     -328.91133     -413.91406      0              6486.9155      30.933001      21.326696      32.553292      21475.364      3998.7964      5847.8709      9614.0792     -834.17885     -645.11151      590.20957    
  15452000   244.95231     -419.29603     -337.25831     -419.28962      0              5519.5655      30.933001      21.326696      32.777055      21622.981      4985.0068      6927.4716      4646.2182      449.93642      479.02694      1146.0906    
  15454000   252.65438     -415.54116     -330.92392     -415.54834      0              6695.2709      30.933001      21.326696      32.809192      21644.181      7251.8194      7377.828       5456.1653      852.96516     -1939.288       852.8768     
  15456000   251.26518     -417.78727     -333.63528     -417.79156      0              4753.5898      30.933001      21.326696      32.764624      21614.78       3494.0168      5395.0342      5371.7185     -647.91426     -767.78949     -124.5984     
  15458000   245.44481     -415.40231     -333.19964     -415.40519      0              6058.8287      30.933001      21.326696      32.73698       21596.544      6211.328       6695.8244      5269.3337      1357.1093     -653.24364      937.54868    
  15460000   253.47172     -413.11432     -328.22334     -413.12236      0              6960.6976      30.933001      21.326696      32.725295      21588.835      5924.8969      6269.3132      8687.8827      530.3142       493.84993     -355.67692    
  15462000   256.23279     -414.90017     -329.08447     -414.9048       0              7596.1329      30.933001      21.326696      32.611493      21513.76       7920.189       7370.7029      7497.5069      1378.8719     -643.07568     -257.2584     
  15464000   248.30987     -414.05732     -330.89511     -414.05384      0              5049.1962      30.933001      21.326696      32.782059      21626.282      3942.3315      5508.2314      5697.0257      407.51523     -1035.7059     -654.27897    
  15466000   250.97224     -415.9697      -331.91583     -415.96231      0              6286.0937      30.933001      21.326696      32.736234      21596.052      6388.5025      6462.412       6007.3665     -1148.6338      842.61192      1347.6501    
  15468000   257.88877     -416.91181     -330.5415      -416.91618      0              4265.3286      30.933001      21.326696      32.831107      21658.639      2792.6526      4539.6579      5463.6753      441.36888      1093.333       1259.94      
  15470000   255.31803     -415.70558     -330.19625     -415.71053      0              3924.9758      30.933001      21.326696      32.64005       21532.599      4315.0356      4638.6732      2821.2186     -437.62184      80.101264      285.77725    
  15472000   248.66577     -414.12978     -330.84838     -414.13352      0              4788.2982      30.933001      21.326696      32.667432      21550.663      5666.7217      3810.0982      4888.0747      207.63127      1785.2406      1833.8615    
  15474000   254.98128     -416.80977     -331.41322     -416.81403      0              5992.1023      30.933001      21.326696      32.510832      21447.354      6506.0569      5819.5527      5650.6972      370.37913     -1195.9396      642.01296    
  15476000   252.033       -417.56992     -333.16078     -417.57224      0              7093.6005      30.933001      21.326696      32.440211      21400.765      6679.1135      8494.9127      6106.7753      618.75884     -139.44506      407.35912    
  15478000   244.66349     -417.93475     -335.99376     -417.92841      0              6315.6093      30.933001      21.326696      32.552058      21474.55       7568.323       7983.8813      3394.6237     -900.86091     -144.37917     -1118.1142    
  15480000   252.95209     -416.25055     -331.5336      -416.24894      0              5910.3688      30.933001      21.326696      32.649639      21538.925      5629.9739      6276.1625      5824.97        923.09236      811.30438     -1468.5794    
  15482000   247.66018     -412.97942     -330.0348      -412.98173      0              6918.1909      30.933001      21.326696      32.610077      21512.826      8594.2847      8081.8057      4078.4823      288.89014     -375.07602     -414.64474    
  15484000   253.77366     -415.97022     -330.97811     -415.96896      0              5846.8743      30.933001      21.326696      32.759581      21611.453      6912.2732      5573.3746      5054.9752      1879.513       628.41365      345.32829    
  15486000   254.8017      -416.47186     -331.13545     -416.47326      0              5717.0387      30.933001      21.326696      32.684488      21561.915      6666.2083      5312.4598      5172.4479     -505.75728     -683.90485     -713.29771    
  15488000   254.46019     -414.77244     -329.55041     -414.7798       0              7017.6988      30.933001      21.326696      32.553769      21475.68       7880.2074      8510.3937      4662.4952     -138.40701      689.94779      1245.5125    
  15490000   252.79681     -414.8683      -330.20335     -414.86879      0              7162.5079      30.933001      21.326696      32.460622      21414.23       7489.2968      7724.9469      6273.28        186.03779     -1970.185      -501.07704    
  15492000   247.16428     -416.57681     -333.79827     -416.5737       0              4195.606       30.933001      21.326696      32.653534      21541.494      4082.0608      4111.7058      4393.0513      1587.1155      621.16545      2033.2822    
  15494000   247.73557     -416.01972     -333.04985     -416.01547      0              5747.6845      30.933001      21.326696      32.622519      21521.033      7234.5058      5313.5858      4694.9618      180.91506      262.86056      257.69052    
  15496000   252.43184     -415.80751     -331.26479     -415.79919      0              7123.4114      30.933001      21.326696      32.703011      21574.134      7054.3603      5666.277       8649.5968     -114.92685      705.67508      1287.6026    
  15498000   243.65428     -416.95701     -335.35401     -416.94884      0              7099.9346      30.933001      21.326696      32.640647      21532.993      6809.9533      6519.7476      7970.1028     -814.1083       108.81859      762.01312    
  15500000   249.0873      -410.77606     -327.35347     -410.77673      0              5931.412       30.933001      21.326696      32.587854      21498.165      5545.481       6527.2486      5721.5064      1623.7518      1115.5315     -6.269074     
  15502000   250.86432     -415.48462     -331.46689     -415.48126      0              5972.5104      30.933001      21.326696      32.486629      21431.387      8216.3628      3799.2399      5901.9286     -113.77759      35.103616     -577.914      
  15504000   250.07862     -415.59353     -331.83894     -415.60184      0              5106.3969      30.933001      21.326696      32.597657      21504.632      5548.0446      5225.0545      4546.0915      1383.1959      400.51959     -557.57097    
  15506000   241.58542     -414.25782     -333.34771     -414.24983      0              4848.3946      30.933001      21.326696      32.406135      21378.285      4233.5735      4257.5305      6054.0797      852.25023      670.7243       1021.391     
  15508000   248.43378     -417.73716     -334.53345     -417.72932      0              5246.2509      30.933001      21.326696      32.551349      21474.083      6443.3862      4518.6805      4776.686      -1159.649      -252.1693      -547.42854    
  15510000   249.2886      -415.87854     -332.38854     -415.87081      0              4980.1784      30.933001      21.326696      32.584084      21495.678      5185.5083      6185.4434      3569.5833      2334.4571     -747.06766      426.58052    
  15512000   247.65568     -412.59637     -329.65326     -412.59635      0              7655.9224      30.933001      21.326696      32.458876      21413.079      7603.9835      7982.3035      7381.4802      840.61515     -958.35462      881.44488    
  15514000   248.83607     -413.94343     -330.60499     -413.93616      0              5189.1893      30.933001      21.326696      32.633268      21528.125      4563.3704      6294.4399      4709.7575      406.3601      -1339.9328      1070.4731    
  15516000   254.59297     -415.03599     -329.76948     -415.03619      0              6679.1958      30.933001      21.326696      32.40402       21376.89       6204.3863      7394.4838      6438.7171     -45.962697      331.51209     -277.58521    
  15518000   247.86108     -414.51778     -331.50588     -414.51051      0              6196.7673      30.933001      21.326696      32.409924      21380.785      8529.2236      5061.1225      4999.9559      320.91786      3044.5423      1215.0201    
  15520000   249.57296     -416.3339      -332.74867     -416.34462      0              5789.1398      30.933001      21.326696      32.20407       21244.983      7024.2509      4609.6448      5733.5235      825.99347     -1210.753      -233.03483    
  15522000   246.82054     -414.09392     -331.4305      -414.08704      0              8228.131       30.933001      21.326696      32.387386      21365.917      7241.7024      8343.0146      9099.6761      1275.0436     -1485.3807     -1065.6661    
  15524000   246.33122     -414.93763     -332.43809     -414.93846      0              5397.7419      30.933001      21.326696      32.521058      21454.1        5875.1753      5611.7652      4706.2854     -1295.9179      25.116162     -89.097396    
  15526000   254.73752     -413.43204     -328.11713     -413.43126      0              6429.547       30.933001      21.326696      32.564568      21482.803      6079.5901      6466.4432      6742.6076     -1104.6496     -574.46649      1008.0728    
  15528000   248.06404     -415.43235     -332.35247     -415.42914      0              4997.3467      30.933001      21.326696      32.704813      21575.323      5771.1284      5032.8483      4188.0635     -187.39554     -289.48203      176.08138    
  15530000   256.46664     -414.05128     -328.15726     -414.04939      0              5444.6588      30.933001      21.326696      32.580376      21493.232      2327.6777      7217.6152      6788.6836     -951.81067      1183.802       745.51766    
  15532000   257.9978      -416.77117     -330.36434     -416.76634      0              7644.1794      30.933001      21.326696      32.501437      21441.156      10601.212      6502.2887      5829.0374     -572.81747     -681.22073      522.58936    
  15534000   244.47558     -414.53025     -332.65219     -414.52807      0              6394.7017      30.933001      21.326696      32.508479      21445.801      6075.2514      6032.6511      7076.2026      1025.5633      479.90517     -1465.8584    
  15536000   249.79429     -413.66466     -330.0053      -413.65788      0              6552.8159      30.933001      21.326696      32.635841      21529.822      6595.539       6787.994       6274.9149     -967.45916      102.92298     -442.0107     
  15538000   251.87047     -415.54441     -331.18971     -415.53772      0              6292.9436      30.933001      21.326696      32.502347      21441.756      6096.2836      6959.0173      5823.5299      431.60155     -273.24387      1076.4649    
  15540000   254.48943     -414.14418     -328.91235     -414.14189      0              6394.2025      30.933001      21.326696      32.494025      21436.266      5314.6902      6016.2323      7851.6851      2450.9424     -1777.9228      2685.6517    
  15542000   252.04243     -413.88641     -329.47412     -413.87988      0              4857.5941      30.933001      21.326696      32.636299      21530.124      4833.086       6231.1558      3508.5404     -153.5249      -1638.54       -1184.4561    
  15544000   254.14252     -415.28239     -330.16674     -415.27861      0              6275.7976      30.933001      21.326696      32.711086      21579.461      6392.7877      5970.8764      6463.7287      705.34415     -1924.2301      627.13722    
  15546000   240.60605     -416.6396      -336.0575      -416.6365       0              7404.1694      30.933001      21.326696      32.519754      21453.24       5226.6225      9593.2837      7392.6019      750.61149     -1477.4884      312.84687    
  15548000   247.57353     -416.20426     -333.28866     -416.20082      0              6142.8266      30.933001      21.326696      32.648837      21538.396      8105.074       5938.3604      4385.0454      1260.8125     -1295.4129      124.6671     
  15550000   241.45206     -415.29505     -334.4296      -415.29436      0              7254.7672      30.933001      21.326696      32.551444      21474.146      7252.8592      7011.0315      7500.4109      125.08304     -3054.0471     -1338.4225    
  15552000   251.73314     -417.7486      -333.43989     -417.74651      0              5508.345       30.933001      21.326696      32.658315      21544.648      4931.1907      5206.1368      6387.7075      2216.6656     -923.04488     -155.92492    
  15554000   247.29186     -419.09685     -336.27558     -419.09284      0              5144.3864      30.933001      21.326696      32.655356      21542.696      6151.0514      3948.7507      5333.3572     -356.32695      135.70037     -643.16534    
  15556000   252.3426      -415.36717     -330.85434     -415.36134      0              7013.276       30.933001      21.326696      32.548086      21471.931      8577.556       6202.7724      6259.4997     -1349.0673      83.433219     -575.06188    
  15558000   247.31599     -415.04296     -332.21361     -415.04594      0              7479.586       30.933001      21.326696      32.525587      21457.088      6541.2029      10038.97       5858.5851      1247.099       314.53094     -458.2644     
  15560000   251.3436      -415.81564     -331.63739     -415.82197      0              5257.7196      30.933001      21.326696      32.635333      21529.487      5254.8221      4395.2744      6123.0621     -250.44718      947.45809      193.97861    
  15562000   249.24349     -416.81059     -333.3357      -416.80838      0              6010.1165      30.933001      21.326696      32.7732        21620.438      6573.9261      6693.9677      4762.4557     -192.991        1304.7668     -845.87721    
  15564000   252.4427      -414.2573      -329.71095     -414.254        0              6392.6578      30.933001      21.326696      32.631329      21526.846      6623.0811      6641.0897      5913.8025      402.02766      920.75311     -371.52259    
  15566000   245.99742     -416.95939     -334.57165     -416.96714      0              7686.8253      30.933001      21.326696      32.620505      21519.705      8719.8816      7134.0094      7206.5848      673.4128      -352.22307     -334.25855    
  15568000   248.05942     -415.05905     -331.98072     -415.05511      0              5727.2815      30.933001      21.326696      32.704613      21575.191      7162.1576      4538.3564      5481.3305      889.60821     -498.65622      1419.4299    
  15570000   254.82691     -417.57978     -332.23493     -417.58802      0              4770.8727      30.933001      21.326696      32.835412      21661.479      3166.7501      6034.5251      5111.3428      189.9886       577.43885      386.2381     
  15572000   254.41993     -416.03085     -330.8223      -416.02474      0              5139.427       30.933001      21.326696      32.781652      21626.013      5050.7939      6045.239       4322.248      -225.08097     -282.86575      2018.4909    
  15574000   243.69593     -415.10311     -333.48617     -415.09713      0              4383.5496      30.933001      21.326696      32.609827      21512.661      4218.5295      5251.4227      3680.6966      166.24108     -1184.1709      99.410323    
  15576000   253.26436     -415.89586     -331.07432     -415.89379      0              6756.284       30.933001      21.326696      32.637288      21530.777      6682.572       6594.5087      6991.7715      1809.8135      229.88293      49.135839    
  15578000   253.70398     -414.75336     -329.78459     -414.7496       0              5797.6313      30.933001      21.326696      32.649949      21539.129      5022.4855      7404.6874      4965.7211      1427.2987     -1069.2288      47.236345    
  15580000   252.15822     -417.04922     -332.59814     -417.04434      0              3591.2417      30.933001      21.326696      32.670802      21552.886      3868.7102      3873.7807      3031.2344      1268.6167      611.18711     -791.16307    
  15582000   248.05081     -416.7976      -333.72214     -416.79469      0              6751.764       30.933001      21.326696      32.601901      21507.432      4830.3703      7390.0819      8034.8397     -899.67853      701.66738     -805.50797    
  15584000   251.19043     -417.91641     -333.78946     -417.91255      0              7085.8805      30.933001      21.326696      32.620451      21519.669      7621.98        7296.6892      6338.9725     -1404.0726     -1086.9336     -673.34209    
  15586000   247.08652     -416.63206     -333.87956     -416.63769      0              6417.6274      30.933001      21.326696      32.675957      21556.287      5579.1839      7016.2564      6657.4418      1354.6906     -1754.291       667.25047    
  15588000   253.29601     -415.64437     -330.81224     -415.6389       0              7335.7007      30.933001      21.326696      32.503748      21442.681      7032.0785      8545.9388      6429.0848      262.11547     -769.17313      34.897631    
  15590000   255.16107     -412.67988     -327.22311     -412.68518      0              6095.3259      30.933001      21.326696      32.632236      21527.444      6554.7633      4937.7807      6793.4338      120.54596     -198.52981     -94.5085      
  15592000   260.48437     -414.5366      -327.29699     -414.53938      0              6643.9817      30.933001      21.326696      32.767624      21616.759      5289.8791      9074.2139      5567.8522     -611.53075      829.21372     -143.83913    
WARNING: Wall time limit reached (../timer.cpp:193)
Loop time of 85801.5 on 4 procs for 7845000 steps with 2592 atoms

Performance: 3.950 ns/day, 6.076 hours/ns, 91.432 timesteps/s
1526.1% CPU use with 4 MPI tasks x no OpenMP threads

MPI task timing breakdown:
Section |  min time  |  avg time  |  max time  |%varavg| %total
---------------------------------------------------------------
Pair    | 22124      | 22184      | 22263      |  34.0 | 25.85
Bond    | 0.77608    | 0.8071     | 0.83763    |   2.4 |  0.00
Neigh   | 659.09     | 669.29     | 681.5      |  39.2 |  0.78
Comm    | 2495.2     | 2581.4     | 2651.5     | 113.5 |  3.01
Output  | 1679.2     | 1679.2     | 1679.2     |   0.1 |  1.96
Modify  | 58663      | 58665      | 58668      |   0.7 | 68.37
Other   |            | 22.2       |            |       |  0.03

Nlocal:            648 ave         658 max         638 min
Histogram: 1 0 0 0 0 2 0 0 0 1
Nghost:        4256.25 ave        4278 max        4245 min
Histogram: 2 0 0 1 0 0 0 0 0 1
Neighs:              0 ave           0 max           0 min
Histogram: 4 0 0 0 0 0 0 0 0 0
FullNghs:       167304 ave      171257 max      163227 min
Histogram: 1 0 0 1 0 0 1 0 0 1

Total # of neighbors = 669218
Ave neighs/atom = 258.18596
Ave special neighs/atom = 0
Neighbor list builds = 156900
Dangerous builds not checked
unfix 3
unfix 1
unfix 2


# Finalize simulation
write_restart	restart.lmp.${pid}
write_restart	restart.lmp.0
System init for write_restart ...
Generated 0 of 1 mixed pair_coeff terms from geometric mixing rule
write_data	data.final.${pid} nocoeff
write_data	data.final.0 nocoeff
System init for write_data ...
Generated 0 of 1 mixed pair_coeff terms from geometric mixing rule
Total wall time: 23:50:23
