LAMMPS (23 Jun 2022)

include procedure.lmp
echo both
include		in.partitions
variable        pid world 0
include		in.temp
variable	temperature equal 250
variable        tempDamp equal 0.100 # this is 0.1 ps
include		in.pressure
variable        pressure equal 6079.5
variable        pressureDamp equal 1.0 #this is 1ps

variable	barostat string	   tri
variable	direction string   z
variable	direction_x_bool equal 0
variable	direction_y_bool equal 0
variable	direction_z_bool equal 1

include		in.seed
variable        seed world 745823

units           metal
atom_style	full
box tilt large
read_restart 	restart.lmp.${pid}
read_restart 	restart.lmp.0
Reading restart file ...
  restart file = 23 Jun 2022, LAMMPS = 23 Jun 2022
  restoring atom style full from restart
  triclinic box = (0 0 -0.8594711) to (30.933001 21.326696 31.816704) with tilt (-9.140633 0.99199105 -10.870937)
WARNING: Triclinic box skew is large (../domain.cpp:224)
  2 by 1 by 2 MPI processor grid
Summary of lammps deepmd module ...
  >>> Info of deepmd-kit:
  installed to:       /u/sigbjobo/software/DEEPMD_FROM_SOURCE/deepmd-kit/install
  source:             v2.1.3
  source branch:       master
  source commit:      5a32c49
  source commit at:   2022-07-01 09:52:58 +0800
  surpport model ver.:1.1 
  build float prec:   double
  build with tf inc:  /u/sigbjobo/software/DEEPMD_FROM_SOURCE/tensorflow/install/include;/u/sigbjobo/software/DEEPMD_FROM_SOURCE/tensorflow/install/include
  build with tf lib:  /u/sigbjobo/software/DEEPMD_FROM_SOURCE/tensorflow/install/lib/libtensorflow_cc.so;/u/sigbjobo/software/DEEPMD_FROM_SOURCE/tensorflow/install/lib/libtensorflow_framework.so
  set tf intra_op_parallelism_threads: 0
  set tf inter_op_parallelism_threads: 0
  >>> Info of lammps module:
  use deepmd-kit at:  /u/sigbjobo/software/DEEPMD_FROM_SOURCE/deepmd-kit/install
  source:             v2.1.3
  source branch:      master
  source commit:      5a32c49
  source commit at:   2022-07-01 09:52:58 +0800
  build float prec:   double
  build with tf inc:  /u/sigbjobo/software/DEEPMD_FROM_SOURCE/tensorflow/install/include;/u/sigbjobo/software/DEEPMD_FROM_SOURCE/tensorflow/install/include
  build with tf lib:  /u/sigbjobo/software/DEEPMD_FROM_SOURCE/tensorflow/install/lib/libtensorflow_cc.so;/u/sigbjobo/software/DEEPMD_FROM_SOURCE/tensorflow/install/lib/libtensorflow_framework.so
  restoring pair style deepmd from restart
  2592 atoms
Finding 1-2 1-3 1-4 neighbors ...
  special bond factors lj:    0        0        0       
  special bond factors coul:  0        0        0       
     0 = max # of 1-2 neighbors
     0 = max # of 1-3 neighbors
     0 = max # of 1-4 neighbors
     1 = max # of special neighbors
  special bonds CPU = 0.000 seconds
  read_restart CPU = 0.024 seconds
include 	in.setup
variable	out_freq equal 2000
variable	out_freq2 equal 2000

timestep        0.0005

neigh_modify    delay 7 every 1

include         in.deepmd
# This is deepMD model

# create groups ###
#group ox type 2
#group hy type 1

mass 2 15.999
mass 1 1.008

pair_style      deepmd ../graph.pb
pair_coeff      * *

bond_style      none
angle_style     none
dihedral_style  none
improper_style  none
neigh_modify exclude none


neighbor        2.0 bin
neigh_modify    every 50 delay 0 check no

thermo          ${out_freq}
thermo          2000
thermo_style 	custom step temp pe etotal epair emol press lx ly lz vol pxx pyy pzz pxy pxz pyz

restart 	${out_freq} restart.lmp.${pid} restart2.lmp.${pid}
restart 	2000 restart.lmp.${pid} restart2.lmp.${pid}
restart 	2000 restart.lmp.0 restart2.lmp.${pid}
restart 	2000 restart.lmp.0 restart2.lmp.0


timer           timeout 23:50:00 every 1000
New timer settings: style=normal  mode=nosync  timeout=23:50:00


# Set number of time steps
variable 	nsteps_wall		equal	 6000000
variable 	nsteps_enhanced_coex    equal	100000000

variable     nsteps_enhanced_coex_upto equal (${nsteps_wall}+${nsteps_enhanced_coex})
variable     nsteps_enhanced_coex_upto equal (6000000+${nsteps_enhanced_coex})
variable     nsteps_enhanced_coex_upto equal (6000000+100000000)


# Set temperature for first step
if "$(step) < 1  " then    "velocity 	all create ${temperature} ${seed} dist gaussian"


# Always run thermo and barostat


######################################
# Run simulation with wall potential #
######################################
if " $(step) < ${nsteps_wall} " then    "fix             3 all plumed plumedfile plumed.equil.dat outfile plumed.equil.out"   "fix             1 all nph ${direction} ${pressure} ${pressure} ${pressureDamp}"   "fix             2 all temp/csvr ${temperature} ${temperature} ${tempDamp} ${seed}"   "run             ${nsteps_wall} upto"
if " $(step) == ${nsteps_wall} " then    "unfix 3"   "unfix 1"   "unfix 2"


############################
# Run enhanced coesistence #
############################
if "$(step) == ${nsteps_wall}" then    "fix             3 all plumed plumedfile plumed.start.dat outfile plumed.out" else    "fix             3 all plumed plumedfile plumed.dat outfile plumed.out"
fix             3 all plumed plumedfile plumed.dat outfile plumed.out

if "$(step) < ${nsteps_enhanced_coex_upto} && $(step) >= ${nsteps_wall} " then    "include         in.dump"    "fix             1 all nph ${direction} ${pressure} ${pressure} ${pressureDamp}"   "fix             2 all temp/csvr ${temperature} ${temperature} ${tempDamp} ${seed}"   "run             ${nsteps_enhanced_coex_upto} upto"    "unfix 3"   "unfix 1"   "unfix 2"
include         in.dump
dump            myDump all atom ${out_freq2} dump.water.${pid}
dump            myDump all atom 2000 dump.water.${pid}
dump            myDump all atom 2000 dump.water.0
dump            myDump2 all dcd ${out_freq2} dump.${pid}.dcd
dump            myDump2 all dcd 2000 dump.${pid}.dcd
dump            myDump2 all dcd 2000 dump.0.dcd
dump_modify     myDump append yes
dump_modify     myDump2 append yes

fix             1 all nph ${direction} ${pressure} ${pressure} ${pressureDamp}
fix             1 all nph z ${pressure} ${pressure} ${pressureDamp}
fix             1 all nph z 6079.5 ${pressure} ${pressureDamp}
fix             1 all nph z 6079.5 6079.5 ${pressureDamp}
fix             1 all nph z 6079.5 6079.5 1
fix             2 all temp/csvr ${temperature} ${temperature} ${tempDamp} ${seed}
fix             2 all temp/csvr 250 ${temperature} ${tempDamp} ${seed}
fix             2 all temp/csvr 250 250 ${tempDamp} ${seed}
fix             2 all temp/csvr 250 250 0.1 ${seed}
fix             2 all temp/csvr 250 250 0.1 745823
run             ${nsteps_enhanced_coex_upto} upto
run             106000000 upto

CITE-CITE-CITE-CITE-CITE-CITE-CITE-CITE-CITE-CITE-CITE-CITE-CITE

Your simulation uses code contributions which should be cited:

- USER-DEEPMD package:

@article{Wang_ComputPhysCommun_2018_v228_p178,
  author = {Wang, Han and Zhang, Linfeng and Han, Jiequn and E, Weinan},
  doi = {10.1016/j.cpc.2018.03.016},
  url = {https://doi.org/10.1016/j.cpc.2018.03.016},
  year = 2018,
  month = {jul},
  publisher = {Elsevier {BV}},
  volume = 228,
  journal = {Comput. Phys. Commun.},
  title = {{DeePMD-kit: A deep learning package for many-body potential energy representation and molecular dynamics}},
  pages = {178--184}
}

CITE-CITE-CITE-CITE-CITE-CITE-CITE-CITE-CITE-CITE-CITE-CITE-CITE

Generated 0 of 1 mixed pair_coeff terms from geometric mixing rule
Neighbor list info ...
  update every 50 steps, delay 0 steps, check no
  max neighbors/atom: 2000, page size: 100000
  master list distance cutoff = 8
  ghost atom cutoff = 8
  binsize = 4, bins = 11 9 9
  1 neighbor lists, perpetual/occasional/extra = 1 0 0
  (1) pair deepmd, perpetual
      attributes: full, newton on
      pair build: full/bin
      stencil: full/bin/3d
      bin: standard
Per MPI rank memory allocation (min/avg/max) = 6.236 | 6.237 | 6.237 Mbytes
   Step          Temp          PotEng         TotEng         E_pair         E_mol          Press            Lx             Ly             Lz           Volume          Pxx            Pyy            Pzz            Pxy            Pxz            Pyz      
 103013000   250.36202     -415.35886     -331.50936     -415.35886      0              5119.4527      30.933001      21.326696      32.676175      21556.431      2512.6204      6464.8761      6380.8617      16.721258     -846.04817      872.47322    
 103014000   252.65115     -415.30889     -330.69273     -415.28067      0              4252.7039      30.933001      21.326696      32.616112      21516.807      5613.2102      3363.9026      3780.999       248.71392     -774.54045      475.95728    
 103016000   247.52678     -413.16015     -330.2602      -413.11623      0              6711.926       30.933001      21.326696      32.759819      21611.61       6337.5829      6924.6953      6873.4999     -491.67366     -1462.8089     -1460.7949    
 103018000   250.4393      -415.84858     -331.9732      -415.81947      0              8043.0755      30.933001      21.326696      32.598884      21505.442      9868.4454      6740.612       7520.169      -1509.7286      904.74713      249.9156     
 103020000   251.72982     -415.20537     -330.89777     -415.18691      0              6618.3743      30.933001      21.326696      32.586924      21497.552      6586.2145      7425.6797      5843.2288      52.306239      172.64344     -1838.3791    
 103022000   250.82781     -413.68785     -329.68235     -413.67252      0              4896.4871      30.933001      21.326696      32.582462      21494.608      3209.7228      4958.3857      6521.3529      1353.0977      1869.0641     -612.45038    
 103024000   249.43826     -414.59274     -331.05261     -414.58248      0              7640.9833      30.933001      21.326696      32.468179      21419.216      6026.5016      6504.0132      10392.435     -1969.1402      158.04571     -456.65018    
 103026000   250.43242     -412.70912     -328.83603     -412.67808      0              4614.1785      30.933001      21.326696      32.586499      21497.271      4738.8108      4771.2752      4332.4496     -940.68591      202.51474      1357.3182    
 103028000   252.64752     -415.30309     -330.68814     -415.27936      0              4413.0092      30.933001      21.326696      32.774853      21621.528      4343.1676      4374.6122      4521.2479     -589.91816      1227.0489     -178.72371    
 103030000   253.09291     -416.02234     -331.25823     -415.99382      0              4349.4166      30.933001      21.326696      32.790723      21631.997      5739.6499      4479.2897      2829.3103     -878.13541     -569.56473      790.30013    
 103032000   249.96481     -415.6244      -331.90792     -415.59827      0              4748.9868      30.933001      21.326696      32.612091      21514.155      3399.7109      4679.6153      6167.6341     -483.23644      586.48607     -459.08415    
 103034000   246.05549     -417.65005     -335.24286     -417.64295      0              6042.459       30.933001      21.326696      32.543513      21468.914      6279.0506      5908.7649      5939.5614      907.42044      665.44688     -482.27479    
 103036000   247.85425     -417.70319     -334.69357     -417.69768      0              6849.6613      30.933001      21.326696      32.399271      21373.757      7786.8952      8609.1387      4152.9501      1829.3962      65.201674     -329.61344    
 103038000   257.46238     -414.17414     -327.94663     -414.1446       0              7909.9142      30.933001      21.326696      32.511917      21448.07       7985.1253      9238.6998      6505.9174     -1207.1507      579.51407     -1160.7827    
 103040000   251.36678     -414.89118     -330.70517     -414.87865      0              5929.5636      30.933001      21.326696      32.520891      21453.99       5673.2521      4431.61        7683.8286      463.08738     -831.68664     -440.46957    
 103042000   251.89218     -418.15738     -333.7954      -418.13562      0              4020.6929      30.933001      21.326696      32.655721      21542.937      5351.649       4942.52        1767.9096      558.52042     -1736.4703     -271.00688    
 103044000   255.3523      -414.11979     -328.59897     -414.07715      0              5686.6361      30.933001      21.326696      32.611874      21514.011      6379.6886      5057.4239      5622.7957      70.235588     -788.56078      315.27042    
 103046000   253.94434     -416.10572     -331.05645     -416.07257      0              6505.7502      30.933001      21.326696      32.486247      21431.135      6140.472       6540.5449      6836.2337     -356.74788     -369.59628     -143.34438    
 103048000   249.1853      -418.14269     -334.68728     -418.11904      0              5474.9232      30.933001      21.326696      32.546903      21471.15       5211.9927      5803.9292      5408.8476      747.20232     -285.81518      1046.5546    
 103050000   253.09249     -418.7079      -333.94392     -418.69973      0              5593.8401      30.933001      21.326696      32.639089      21531.965      3378.0768      5553.2195      7850.2239     -397.95173     -408.28143     -1053.3093    
 103052000   254.94737     -418.64184     -333.25664     -418.61419      0              6163.5075      30.933001      21.326696      32.5689        21485.661      6695.763       5340.125       6454.6346      1132.1828      938.3163       1704.7288    
 103054000   250.68299     -418.08958     -334.13258     -418.07954      0              6322.1857      30.933001      21.326696      32.415863      21384.703      7292.7555      6686.7271      4987.0745      718.48179     -82.402383     -680.11376    
 103056000   247.27185     -415.33777     -332.5232      -415.31878      0              5477.9391      30.933001      21.326696      32.467819      21418.978      5711.5322      6183.8694      4538.4156     -146.56032     -679.17249     -787.9188     
 103058000   248.45657     -418.58224     -335.3709      -418.57174      0              7431.549       30.933001      21.326696      32.547966      21471.851      8356.3108      7610.2145      6328.1215      534.15204      258.24367     -1984.8038    
 103060000   248.42326     -415.56066     -332.36047     -415.53621      0              4219.2815      30.933001      21.326696      32.609         21512.115      5576.0343      2910.7114      4171.0987     -1575.718       354.25638      891.1694     
 103062000   254.25643     -414.51398     -329.36019     -414.49731      0              3709.7856      30.933001      21.326696      32.582847      21494.862      3314.9916      3327.2683      4487.0968      239.74283     -692.74061     -739.6587     
 103064000   259.64563     -415.10091     -328.14221     -415.086        0              5934.8184      30.933001      21.326696      32.40164       21375.32       4653.0321      7136.7306      6014.6924      1857.4409      431.97546     -1062.4729    
 103066000   251.26021     -416.32429     -332.17397     -416.29448      0              5868.7264      30.933001      21.326696      32.475922      21424.324      5072.0381      6944.392       5589.7491     -1025.687       86.250669     -299.63146    
 103068000   254.71864     -416.29032     -330.98173     -416.2755       0              4374.9726      30.933001      21.326696      32.606741      21510.625      2030.8304      6074.621       5019.4663      895.39889      154.03088     -1090.5765    
 103070000   245.12216     -417.14817     -335.05356     -417.12792      0              4687.0129      30.933001      21.326696      32.653917      21541.747      4327.1266      5627.0548      4106.8573      233.19048     -373.79442     -666.86923    
 103072000   249.12458     -415.7384      -332.30333     -415.70249      0              8011.1407      30.933001      21.326696      32.763973      21614.351      9128.3012      6662.1959      8242.9251     -1734.152       768.40699     -715.0363     
 103074000   247.7471      -416.55372     -333.57999     -416.52477      0              6240.2123      30.933001      21.326696      32.768594      21617.399      8287.0638      7427.6622      3005.911      -287.49105     -1006.3876     -212.39775    
 103076000   248.21565     -411.33197     -328.20132     -411.30472      0              4482.7785      30.933001      21.326696      32.672554      21554.042      4084.2116      5619.8175      3744.3065     -1393.453       331.9624      -883.82321    
 103078000   248.28227     -419.13523     -335.98226     -419.11845      0              8132.8347      30.933001      21.326696      32.514829      21449.991      9382.6576      7977.491       7038.3555     -521.18849     -681.87088     -1007.8638    
 103080000   250.83968     -416.04593     -332.03646     -416.01836      0              3789.2107      30.933001      21.326696      32.609918      21512.721      4037.1061      4183.3442      3147.1818      159.04237      1793.1071     -984.87142    
 103082000   245.21201     -417.7035      -335.5788      -417.6857       0              5076.3954      30.933001      21.326696      32.598919      21505.465      5625.4842      4578.5199      5025.182       448.38466     -77.91587       953.79981    
 103084000   240.98279     -415.66865     -334.96037     -415.62636      0              4995.3679      30.933001      21.326696      32.82309       21653.35       4722.2555      5218.7333      5045.1149     -196.80525     -427.87582     -388.32271    
 103086000   246.97588     -416.62481     -333.90937     -416.60603      0              6479.0899      30.933001      21.326696      32.76454       21614.725      5547.0394      6897.0106      6993.2198      1593.833      -2131.5011     -1168.9704    
 103088000   245.50543     -413.61661     -331.39364     -413.58073      0              6112.1235      30.933001      21.326696      32.738032      21597.238      6586.2188      6295.0253      5455.1264      126.23914      272.0883      -740.72733    
 103090000   247.48498     -418.58289     -335.69694     -418.56567      0              5108.3303      30.933001      21.326696      32.609285      21512.303      4259.3011      5985.7402      5079.9496      83.495227     -1097.884       135.40528    
 103092000   241.50046     -416.58426     -335.70261     -416.56879      0              5562.9432      30.933001      21.326696      32.479006      21426.358      4203.7343      6028.3239      6456.7713     -1754.6056      105.4194       1051.4441    
 103094000   239.9186      -414.08012     -333.72826     -414.05878      0              5175.0828      30.933001      21.326696      32.521286      21454.25       4693.6755      4092.7644      6738.8084     -670.73539      430.75389     -1346.6032    
 103096000   251.83432     -414.75469     -330.41209     -414.72283      0              6998.3423      30.933001      21.326696      32.536805      21464.489      8249.1523      5594.5277      7151.3469      2118.0798      233.28748      22.280259    
 103098000   254.51033     -418.18507     -332.94624     -418.17123      0              7569.9756      30.933001      21.326696      32.451872      21408.458      7213.4884      6430.1121      9066.3264      317.15137     -41.024555     -684.68854    
 103100000   256.82604     -418.74089     -332.72651     -418.73013      0              6470.5012      30.933001      21.326696      32.485987      21430.963      6128.1157      6742.3208      6541.067       831.34539      1028.3032     -1192.6263    
 103102000   241.35471     -418.46582     -337.63298     -418.45525      0              7647.2321      30.933001      21.326696      32.573114      21488.441      6225.524       7383.6885      9332.4838     -897.05773      1781.5098      1408.0619    
 103104000   246.05894     -415.06916     -332.66081     -415.05184      0              6912.8499      30.933001      21.326696      32.462016      21415.15       7038.5294      8007.0965      5692.9239     -85.947115      279.31536     -1110.2827    
 103106000   253.30042     -417.50959     -332.67597     -417.48434      0              6454.5161      30.933001      21.326696      32.829021      21657.263      6077.7551      7122.9298      6162.8634      523.15747     -1045.1587      131.44846    
 103108000   250.54233     -419.05549     -335.1456      -419.02349      0              6022.153       30.933001      21.326696      32.658255      21544.609      7327.235       5175.7087      5563.5152     -882.64859      1179.2098      115.23175    
 103110000   244.6569      -417.1528      -335.21402     -417.13676      0              5987.6033      30.933001      21.326696      32.586882      21497.524      5023.5736      6479.6274      6459.6089      247.91422      459.19997     -439.53484    
 103112000   248.3211      -417.81271     -334.64674     -417.79784      0              7948.7606      30.933001      21.326696      32.48723       21431.784      7548.4958      8843.5886      7454.1972      574.26045     -862.60888     -563.86916    
 103114000   249.81498     -417.27482     -333.60852     -417.25704      0              5442.8568      30.933001      21.326696      32.4907        21434.073      4904.3582      4264.7857      7159.4266     -363.08806     -21.664982     -833.64657    
 103116000   245.89467     -416.45963     -334.1063      -416.43804      0              6422           30.933001      21.326696      32.322306      21322.984      5724.0974      6564.777       6977.1256      639.80387      65.187441     -342.63138    
 103118000   248.93711     -416.37054     -332.99825     -416.34959      0              7055.7235      30.933001      21.326696      32.42065       21387.861      5936.2961      8319.2292      6911.6452     -453.23536      415.41615      598.52663    
 103120000   247.03348     -416.24875     -333.51402     -416.2383       0              6927.4265      30.933001      21.326696      32.488107      21432.362      5259.4731      7749.7694      7773.0371     -650.97599     -783.85259     -229.20966    
 103122000   257.16863     -417.99311     -331.86398     -417.98112      0              6593.6751      30.933001      21.326696      32.59355       21501.923      5117.3288      5483.322       9180.3746     -1933.0493     -49.577675      224.42899    
 103124000   251.06474     -417.41289     -333.32803     -417.4037       0              5463.6374      30.933001      21.326696      32.65019       21539.288      7084.6999      5735.5541      3570.6582      135.20641      945.52034     -923.76195    
 103126000   249.09398     -416.91551     -333.49069     -416.90783      0              6369.183       30.933001      21.326696      32.460081      21413.874      6968.7364      4458.318       7680.4944      65.686737      414.07662      657.81589    
 103128000   252.16637     -415.41628     -330.96248     -415.38958      0              6849.7534      30.933001      21.326696      32.602347      21507.726      5357.6332      7708.4551      7483.172       1070.6774     -81.049929     -291.3828     
 103130000   248.30791     -418.73651     -335.57495     -418.72775      0              5919.9419      30.933001      21.326696      32.696293      21569.702      7590.8109      5925.6566      4243.3582     -674.72974      556.56413     -162.66279    
 103132000   253.64368     -416.46253     -331.51396     -416.45197      0              4070.5071      30.933001      21.326696      32.649401      21538.768      2452.2391      4054.2075      5705.0749     -1230.8685      870.15926      1153.355     
 103134000   250.59078     -417.71772     -333.7916      -417.7138       0              5278.8426      30.933001      21.326696      32.60459       21509.206      6944.1661      5019.8977      3872.4639      82.707662      239.84601      930.11112    
 103136000   247.71823     -418.43803     -335.47397     -418.431        0              5497.2044      30.933001      21.326696      32.646425      21536.804      6306.0189      5016.9504      5168.6438     -879.05013     -605.90651     -411.62605    
 103138000   253.97614     -415.08752     -330.0276      -415.07922      0              6207.4536      30.933001      21.326696      32.754555      21608.137      5759.3454      7596.6595      5266.356       964.29824      291.44316     -1871.978     
 103140000   249.74205     -417.22852     -333.58665     -417.22419      0              5636.4648      30.933001      21.326696      32.73055       21592.301      5259.2887      7054.5961      4595.5096      215.75722      15.587234     -108.37601    
 103142000   246.00233     -415.45352     -333.06413     -415.42549      0              6673.8358      30.933001      21.326696      32.71577       21582.551      7872.8572      7646.4144      4502.2359      1029.3887      470.35892      1183.4403    
 103144000   241.92821     -417.55287     -336.52795     -417.54474      0              5892.8315      30.933001      21.326696      32.610142      21512.869      6013.107       5666.7824      5998.605      -463.88933      597.90825     -1.8878947    
 103146000   253.08479     -415.67029     -330.9089      -415.65957      0              5341.8092      30.933001      21.326696      32.596822      21504.082      5395.5453      4860.5858      5769.2965      208.7998      -19.301434      123.52264    
 103148000   247.30474     -416.88395     -334.05837     -416.87635      0              6299.9507      30.933001      21.326696      32.567875      21484.985      6721.7373      4803.3529      7374.762       423.86488     -1202.9917      729.69083    
 103150000   252.17903     -416.46174     -332.0037      -416.44928      0              5319.0437      30.933001      21.326696      32.658943      21545.063      5049.8513      4272.0549      6635.2249     -942.7515      -1456.4211      651.4111     
 103152000   244.06527     -420.45112     -338.71048     -420.44655      0              6723.5704      30.933001      21.326696      32.55415       21475.931      8773.4935      5377.9854      6019.2324      344.02792     -578.49591      1254.4502    
 103154000   250.85838     -417.10586     -333.09012     -417.09243      0              6074.0396      30.933001      21.326696      32.441994      21401.941      6702.5176      5268.9565      6250.6445      67.971831     -630.33754      1563.577     
 103156000   251.10553     -416.34479     -332.24627     -416.32904      0              6231.1912      30.933001      21.326696      32.618298      21518.249      5417.4544      6578.7739      6697.3452      1114.6856      976.80826      520.46485    
 103158000   247.27995     -416.25443     -333.43715     -416.24849      0              7856.4449      30.933001      21.326696      32.478701      21426.157      5970.4729      8112.5859      9486.2758     -275.07577     -719.85834      325.5341     
 103160000   248.94328     -418.24393     -334.86958     -418.2358       0              5773.6766      30.933001      21.326696      32.682536      21560.627      8475.8886      5700.6052      3144.5362     -251.35231      964.81889      302.19147    
 103162000   258.00229     -416.18834     -329.78001     -416.1792       0              5775.6397      30.933001      21.326696      32.669922      21552.305      6248.7588      4468.62        6609.5403     -443.02687     -507.44904     -457.35082    
 103164000   252.76788     -418.04468     -333.38943     -418.04305      0              6713.9352      30.933001      21.326696      32.671841      21553.571      8082.6655      6922.9833      5136.1567     -54.355849     -2830.2151     -1129.3437    
 103166000   251.30344     -419.55128     -335.38649     -419.54316      0              4695.9693      30.933001      21.326696      32.764319      21614.579      5543.4771      3601.6713      4942.7595      1538.8988     -702.77917      827.80389    
 103168000   252.31089     -417.88976     -333.38756     -417.88365      0              5942.7423      30.933001      21.326696      32.544518      21469.577      6811.4786      4404.8256      6611.9226      924.96701     -646.13285     -1260.4356    
 103170000   244.26609     -417.4605      -335.6526      -417.45382      0              6552.2249      30.933001      21.326696      32.50903       21446.165      4832.4135      8977.1901      5847.0711      1010.0794      186.92401     -16.593147    
 103172000   248.76443     -416.22773     -332.91328     -416.2227       0              5326.3299      30.933001      21.326696      32.54991       21473.134      5573.3374      5825.36        4580.2923     -1398.5152     -296.16437     -1428.6357    
 103174000   247.69126     -418.04347     -335.08844     -418.04004      0              7814.5652      30.933001      21.326696      32.636487      21530.249      7839.346       8594.0262      7010.3233     -531.54955      705.66774      1983.3493    
 103176000   244.40082     -417.14283     -335.28981     -417.12548      0              4457.6895      30.933001      21.326696      32.786102      21628.949      5595.8477      2359.8475      5417.3735      879.26047     -46.589779      206.70349    
 103178000   253.17233     -416.70468     -331.91397     -416.70023      0              7433.2007      30.933001      21.326696      32.63349       21528.271      9096.9924      4275.6781      8926.9316     -277.37189      1038.7761      890.17347    
 103180000   246.47076     -420.6085      -338.06223     -420.59977      0              5271.5836      30.933001      21.326696      32.560755      21480.288      6046.9706      4547.2183      5220.5619      1659.3891      858.96954      1839.012     
 103182000   249.38887     -416.86781     -333.34422     -416.85342      0              5120.5321      30.933001      21.326696      32.67883       21558.182      4775.4111      4763.3101      5822.8751      1283.6112      153.00717      205.75698    
 103184000   245.03921     -418.64136     -336.57453     -418.63417      0              5562.1878      30.933001      21.326696      32.518887      21452.668      6098.3259      4365.6313      6222.6063      112.60245     -317.12529      154.9279     
 103186000   245.53862     -415.1169      -332.88282     -415.10767      0              6724.692       30.933001      21.326696      32.644698      21535.665      5674.4151      6028.1605      8471.5002     -21.78168       84.389618      275.84406    
 103188000   251.2386      -418.81325     -334.67017     -418.80187      0              4613.0719      30.933001      21.326696      32.72702       21589.973      5885.2713      4452.6751      3501.2695     -880.74636     -83.175194      188.21205    
 103190000   245.68393     -416.83016     -334.54741     -416.82238      0              5763.9389      30.933001      21.326696      32.519408      21453.012      5698.9931      5654.573       5938.2507      1016.11        491.34652      408.09087    
 103192000   249.14409     -419.40224     -335.96064     -419.40458      0              5528.6703      30.933001      21.326696      32.531573      21461.037      5302.3311      4130.2024      7153.4773      124.13229      707.63963      103.41503    
 103194000   246.28225     -418.05616     -335.57302     -418.04864      0              5723.7941      30.933001      21.326696      32.508117      21445.563      3543.9612      7215.9538      6411.4674     -246.02091      717.40937      839.45527    
 103196000   248.66667     -416.40125     -333.11954     -416.39105      0              5039.1163      30.933001      21.326696      32.554679      21476.279      6529.5415      4160.6037      4427.2037      383.24998      30.717227      551.17305    
 103198000   249.13991     -417.67734     -334.23714     -417.6691       0              5385.8381      30.933001      21.326696      32.363194      21349.958      4184.6679      5897.5275      6075.3189     -400.7201       425.16649      1335.2402    
 103200000   256.41187     -419.43155     -333.55587     -419.42494      0              5258.3274      30.933001      21.326696      32.501976      21441.512      6265.4368      4386.4302      5123.1151      346.13246      110.03884      643.88624    
 103202000   244.72151     -417.44856     -335.48813     -417.44083      0              5095.1667      30.933001      21.326696      32.461491      21414.804      4342.7428      5372.3274      5570.4298      1473.6586     -755.30317      576.24249    
 103204000   256.65304     -414.92849     -328.97204     -414.92282      0              5246.2964      30.933001      21.326696      32.554148      21475.93       4707.4153      4969.5616      6061.9124      195.02199      789.86884     -751.58127    
 103206000   252.34434     -415.11756     -330.60415     -415.11389      0              5694.193       30.933001      21.326696      32.476083      21424.43       4685.5718      5712.1847      6684.8225     -997.46866     -630.61577      99.732852    
 103208000   246.42116     -413.10882     -330.57916     -413.10083      0              6778.9183      30.933001      21.326696      32.512618      21448.532      8108.3413      7330.7352      4897.6785      522.18859     -250.37598      316.93895    
 103210000   251.62467     -414.27201     -329.99963     -414.27807      0              6771.6938      30.933001      21.326696      32.499307      21439.751      4690.57        6738.7041      8885.8075     -43.378595     -4.9009934     -1780.2601    
 103212000   252.04552     -414.88378     -330.47045     -414.87589      0              5664.9574      30.933001      21.326696      32.488585      21432.678      5803.0592      6478.7743      4713.0387      928.77713     -37.171009      553.31232    
 103214000   243.25308     -412.76999     -331.30136     -412.76445      0              6647.2604      30.933001      21.326696      32.511225      21447.613      4333.0091      7717.3411      7891.4309      582.75601      2600.9157     -376.72513    
 103216000   242.7241      -418.89137     -337.5999      -418.89691      0              7250.2058      30.933001      21.326696      32.276104      21292.504      7710.514       5933.6357      8106.4677     -424.1287       373.63932     -1659.8858    
 103218000   247.37101     -418.04769     -335.19992     -418.04618      0              7120.5811      30.933001      21.326696      32.477506      21425.369      7420.9847      5745.4847      8195.274      -1151.5293     -521.74839     -421.37864    
 103220000   253.87597     -417.90557     -332.8792      -417.90665      0              7385.5349      30.933001      21.326696      32.396134      21371.688      6288.3123      6564.3841      9303.9084     -1322.0395      734.53215     -878.12828    
 103222000   251.9481      -418.00825     -333.62755     -418.00631      0              5423.1737      30.933001      21.326696      32.405632      21377.954      6069.6179      5711.872       4488.0312     -31.866001     -329.00041     -181.64306    
 103224000   250.91242     -418.87501     -334.84117     -418.87234      0              6855.4683      30.933001      21.326696      32.522709      21455.189      6623.2139      8474.2775      5468.9136      495.79754     -1479.0798     -1162.6237    
 103226000   257.19403     -419.16423     -333.02659     -419.16083      0              5202.3535      30.933001      21.326696      32.6297        21525.771      5462.1268      4468.9321      5676.0016     -2724.24        891.73663     -392.93131    
 103228000   245.78511     -421.36257     -339.04594     -421.37082      0              4379.0793      30.933001      21.326696      32.440437      21400.914      3250.4711      5520.1204      4366.6464      633.54048      2809.9823     -1228.9616    
 103230000   258.70461     -418.15013     -331.50658     -418.13962      0              6647.6724      30.933001      21.326696      32.427244      21392.211      7133.0116      6944.5043      5865.5011      603.22805      445.87226      1160.5761    
 103232000   245.28574     -415.60221     -333.45281     -415.59923      0              6701.3561      30.933001      21.326696      32.379399      21360.648      6349.1396      7995.8223      5759.1063     -72.171075      683.61204     -735.29206    
 103234000   248.78341     -417.48455     -334.16374     -417.48508      0              7784.5902      30.933001      21.326696      32.443462      21402.91       6728.6384      7668.8395      8956.2928      1207.3269     -583.34549      1879.7619    
 103236000   250.04771     -416.80032     -333.05608     -416.79228      0              6262.3893      30.933001      21.326696      32.498451      21439.186      6062.0944      7364.0286      5361.0448      627.12031      896.69481      411.39101    
 103238000   252.97954     -418.21493     -333.48878     -418.22854      0              5526.9421      30.933001      21.326696      32.509537      21446.5        4742.1423      6205.0811      5633.603       241.89946      165.91406     -993.99617    
 103240000   249.84441     -415.9473      -332.27115     -415.93874      0              6433.0437      30.933001      21.326696      32.579874      21492.901      5984.1935      5473.6323      7841.3052      339.28001      2369.4925      489.48115    
 103242000   247.52034     -415.12655     -332.22876     -415.1227       0              7478.8256      30.933001      21.326696      32.520163      21453.51       6550.4191      8024.4508      7861.607       84.899718      742.73103     -737.22944    
 103244000   254.29176     -416.92998     -331.76435     -416.94093      0              4352.088       30.933001      21.326696      32.430766      21394.534      4603.3087      3582.5279      4870.4275      489.53182      708.88464     -703.01942    
 103246000   251.79257     -417.30696     -332.97835     -417.30433      0              7517.7874      30.933001      21.326696      32.34168       21335.765      6805.4732      9156.8361      6591.0529     -30.188256      483.3148       117.19986    
 103248000   242.51636     -418.07192     -336.85003     -418.06217      0              4481.8603      30.933001      21.326696      32.487701      21432.095      2891.99        4635.37        5918.221       739.26267     -607.9939       691.98092    
 103250000   249.55826     -418.83937     -335.25906     -418.82492      0              7007.7977      30.933001      21.326696      32.465466      21417.426      7583.7105      5951.7012      7487.9814      1654.6452      488.30594     -56.343207    
 103252000   249.21538     -419.26481     -335.79933     -419.25802      0              5494.4703      30.933001      21.326696      32.501998      21441.526      8463.8106      4233.9289      3785.6714     -503.76772     -225.82206      160.70188    
 103254000   253.40246     -418.30847     -333.44068     -418.29974      0              5809.8466      30.933001      21.326696      32.561337      21480.672      6483.0823      4946.701       5999.7564      1005.9114      872.24767      1239.8471    
 103256000   249.44409     -415.37711     -331.83503     -415.37525      0              4713.6514      30.933001      21.326696      32.780362      21625.162      5040.5119      5716.3065      3384.1358     -814.24796      830.04135      490.8863     
 103258000   259.22707     -417.48247     -330.66395     -417.48247      0              6171.2071      30.933001      21.326696      32.636592      21530.318      7797.8975      4431.419       6284.3049      1164.8134      30.828306      1927.2409    
 103260000   250.46398     -417.04487     -333.16122     -417.04191      0              4595.4411      30.933001      21.326696      32.588866      21498.833      3633.242       6042.2761      4110.8053      891.40064      1298.5868      370.09072    
 103262000   250.01909     -419.02317     -335.28852     -419.02765      0              7049.4434      30.933001      21.326696      32.542793      21468.439      5991.9139      5855.1299      9301.2864     -570.15476      1452.6993      1032.2583    
 103264000   247.79874     -413.26373     -330.2727      -413.2558       0              7022.2672      30.933001      21.326696      32.694011      21568.197      7700.338       6518.6434      6847.8202      67.299917      709.38573      1624.6193    
 103266000   249.96419     -417.98948     -334.27322     -417.98774      0              4927.2321      30.933001      21.326696      32.665089      21549.117      6271.9208      4640.7184      3869.0571      672.89184     -1714.7146     -234.55752    
 103268000   252.03014     -417.03188     -332.6237      -417.04398      0              6971.5456      30.933001      21.326696      32.317505      21319.816      7313.9937      5752.3714      7848.2716     -309.24726     -652.40883      486.77871    
 103270000   249.89798     -417.55467     -333.86058     -417.55516      0              7069.1864      30.933001      21.326696      32.467486      21418.759      9161.7407      4323.5854      7722.2329      498.04803      160.14271      455.82433    
 103272000   245.6409      -418.8821      -336.61376     -418.88032      0              6808.4727      30.933001      21.326696      32.43172       21395.164      7323.5181      6021.0941      7080.8059      1016.9201     -1120.6289      1060.5821    
 103274000   252.74294     -420.08291     -335.43601     -420.0899       0              6672.8618      30.933001      21.326696      32.27897       21294.395      5615.1067      6626.2654      7777.2133     -1942.9223      786.27234     -21.851504    
 103276000   262.08553     -417.70662     -329.93076     -417.70649      0              8916.806       30.933001      21.326696      32.406881      21378.778      8529.2763      7631.3596      10589.782      1575.8179      355.92624      19.309335    
 103278000   251.48605     -418.93774     -334.71178     -418.94164      0              3363.2101      30.933001      21.326696      32.443582      21402.989      3546.6805      3626.9336      2916.0161      1467.475       1001.7808     -813.2999     
 103280000   252.40313     -416.04916     -331.51607     -416.0536       0              5995.1475      30.933001      21.326696      32.582614      21494.708      4428.534       6937.6823      6619.2262      219.02143      1439.2636      23.587332    
 103282000   244.16668     -417.99731     -336.22271     -417.99043      0              6385.5804      30.933001      21.326696      32.482072      21428.381      7301.1886      4183.505       7672.0476      2849.8576      1300.9937      148.1689     
 103284000   248.44379     -419.16965     -335.96259     -419.16187      0              3871.2708      30.933001      21.326696      32.400348      21374.468      4237.5014      1409.6625      5966.6486     -1304.8589      121.75276      279.88575    
 103286000   251.23622     -416.57771     -332.43543     -416.56988      0              7170.0538      30.933001      21.326696      32.307201      21313.019      6826.2649      5916.4196      8767.477       536.34727      602.21836      41.845608    
 103288000   252.36835     -415.90482     -331.38336     -415.90115      0              7127.8744      30.933001      21.326696      32.45089       21407.81       6120.8624      7257.6777      8005.0829     -405.52223      412.33285     -868.49082    
 103290000   251.48198     -417.76501     -333.54042     -417.76556      0              5789.5317      30.933001      21.326696      32.605058      21509.514      6546.9892      6655.456       4166.1498     -792.43929      1386.9013     -2871.7355    
 103292000   252.50726     -416.03537     -331.4674      -416.028        0              4625.8585      30.933001      21.326696      32.68414       21561.685      5809.6532      3353.6152      4714.307      -578.87168      457.14992     -903.13327    
 103294000   253.76068     -417.27989     -332.29214     -417.27275      0              5776.1705      30.933001      21.326696      32.630053      21526.004      6671.659       5931.6808      4725.1717      1604.3265     -1343.7764     -461.21231    
 103296000   254.40981     -417.33762     -332.13246     -417.33798      0              3608.8901      30.933001      21.326696      32.735541      21595.594      2454.453       3672.6987      4699.5187      843.50314      624.49662     -481.91858    
 103298000   248.76458     -416.23555     -332.92105     -416.22715      0              6986.2834      30.933001      21.326696      32.596221      21503.685      7328.9133      5460.8848      8169.0521     -443.14377     -398.48815      118.48621    
 103300000   244.81169     -417.33635     -335.34572     -417.33415      0              4214.8965      30.933001      21.326696      32.532319      21461.529      3932.7666      4495.5553      4216.3674     -1628.2023     -30.380103     -1762.7204    
 103302000   250.34804     -415.28169     -331.43686     -415.27423      0              5712.675       30.933001      21.326696      32.504852      21443.409      5038.3062      5040.4366      7059.2822     -351.04172      422.41063      834.81463    
 103304000   252.8706      -415.99799     -331.30832     -415.99687      0              5588.1863      30.933001      21.326696      32.464677      21416.906      4498.0553      7119.4541      5147.0495      1578.341      -253.94573      501.13181    
 103306000   253.5114      -421.3398      -336.43552     -421.33752      0              6477.5855      30.933001      21.326696      32.605136      21509.566      5897.0412      6733.0553      6802.6602     -182.77453      1022.8236      396.89761    
 103308000   252.14698     -414.98495     -330.53764     -414.98222      0              5583.4056      30.933001      21.326696      32.708613      21577.83       4011.6658      6564.4444      6174.1065      204.63586      450.67366      2372.1138    
 103310000   245.33934     -417.39215     -335.2248      -417.38883      0              6710.9259      30.933001      21.326696      32.5645        21482.759      4746.1832      7630.7346      7755.8598      1188.8633      972.63157     -498.3002     
 103312000   249.47978     -418.58114     -335.02711     -418.5772       0              5516.2561      30.933001      21.326696      32.528259      21458.85       3906.9238      6243.1364      6398.7082      666.77064     -1014.7228     -1072.1647    
 103314000   247.67799     -416.03026     -333.07967     -416.02524      0              7118.4062      30.933001      21.326696      32.530088      21460.057      6656.2105      7603.1979      7095.8104      1617.9226      344.84473      1.6173427    
 103316000   249.17596     -418.47496     -335.02268     -418.47251      0              5880.7151      30.933001      21.326696      32.557715      21478.283      6308.1254      4884.7553      6449.2645      484.21224      455.07991      1001.8589    
 103318000   251.44409     -417.41022     -333.19832     -417.40669      0              4734.7404      30.933001      21.326696      32.609642      21512.539      5439.9768      3182.4483      5581.796      -667.19516      1325.7081      1506.0678    
 103320000   251.90986     -415.32864     -330.96074     -415.32135      0              6907.7136      30.933001      21.326696      32.540496      21466.923      6149.4627      6845.59        7728.0879     -913.0023       2397.7499      598.9575     
 103322000   249.87906     -417.17275     -333.485       -417.1626       0              3974.4813      30.933001      21.326696      32.659088      21545.158      3729.1533      1719.3571      6474.9334      2539.2757      1233.9785      1493.1209    
 103324000   250.52523     -415.93704     -332.03287     -415.93344      0              5548.9493      30.933001      21.326696      32.600325      21506.393      5341.046       6348.9872      4956.8147      1440.4144     -420.34281     -828.75238    
 103326000   247.91435     -417.61149     -334.58174     -417.6181       0              2725.5768      30.933001      21.326696      32.604239      21508.974      2822.9074      2859.1824      2494.6406     -211.31729      1775.4964     -91.206166    
 103328000   247.6901      -415.83554     -332.88089     -415.8334       0              5740.8328      30.933001      21.326696      32.615955      21516.703      4596.8668      5529.9205      7095.7111      698.60126      455.12154     -1026.6724    
 103330000   257.00871     -420.72441     -334.64884     -420.72937      0              4820.8966      30.933001      21.326696      32.654885      21542.386      5363.0214      3810.7574      5288.9111      149.46671      1308.4143     -230.41263    
 103332000   253.25461     -415.25452     -330.43625     -415.24649      0              6428.4376      30.933001      21.326696      32.485914      21430.916      5504.2588      6283.8707      7497.1834      2.9708473      879.63486     -707.39795    
 103334000   248.3775      -417.76547     -334.58061     -417.76205      0              7383.8655      30.933001      21.326696      32.502323      21441.741      7589.9163      7855.7142      6705.9659     -39.236707     -1654.3588     -965.11933    
 103336000   249.07449     -415.98212     -332.56383     -415.99028      0              3503.047       30.933001      21.326696      32.435045      21397.357      2128.4946      4872.774       3507.8725      594.75638      2210.078      -511.39421    
 103338000   252.57073     -416.19885     -331.60962     -416.19461      0              6707.3654      30.933001      21.326696      32.386515      21365.342      5143.8429      7183.1254      7795.1279      274.02935     -746.06029      674.36149    
 103340000   247.6685      -416.66093     -333.71352     -416.65563      0              3063.8392      30.933001      21.326696      32.527615      21458.426      3221.9165      4088.8954      1880.7055     -902.02371     -800.88507      918.78212    
 103342000   241.82641     -414.99453     -334.00371     -414.98604      0              3153.607       30.933001      21.326696      32.675497      21555.983      4179.0765      2641.877       2639.8675     -844.73063     -293.00825      645.18171    
 103344000   243.33444     -415.58317     -334.08729     -415.57514      0              6473.2642      30.933001      21.326696      32.374013      21357.094      7245.9439      6097.6046      6076.2441      2003.4766     -1662.6748      757.98934    
 103346000   250.97612     -415.23803     -331.18285     -415.23724      0              4314.1417      30.933001      21.326696      32.53172       21461.134      5059.7302      4639.292       3243.403      -772.08418     -791.23472      416.89334    
 103348000   251.73655     -420.64992     -336.34007     -420.64595      0              5621.8371      30.933001      21.326696      32.484778      21430.166      6102.7733      3904.702       6858.0361      174.35536      260.94429      452.58565    
 103350000   258.69926     -418.95081     -332.30906     -418.96021      0              6335.3312      30.933001      21.326696      32.340741      21335.145      7461.4813      5708.5656      5835.9466      1065.6318     -532.03412     -1837.794     
 103352000   258.38377     -417.36765     -330.83156     -417.36896      0              7208.1656      30.933001      21.326696      32.360618      21348.258      5861.6512      6764.3477      8998.498      -275.6615      -23.637048     -588.63695    
 103354000   253.38325     -416.61846     -331.75711     -416.61614      0              7335.1405      30.933001      21.326696      32.457626      21412.254      8328.2783      6021.7983      7655.345      -1733.891      -7.5457825     -370.18786    
 103356000   246.40152     -415.57483     -333.05175     -415.57252      0              3911.5979      30.933001      21.326696      32.355009      21344.558      3736.7435      4285.8858      3712.1643     -803.49171      488.8787      -1537.941     
 103358000   247.98933     -416.50397     -333.44911     -416.49363      0              4339.6657      30.933001      21.326696      32.592711      21501.369      3849.4626      5301.9099      3867.6245      395.6202      -509.37467      211.45174    
 103360000   246.96496     -416.54736     -333.83558     -416.53439      0              4189.9652      30.933001      21.326696      32.614584      21515.799      3913.0706      1826.6216      6830.2035     -975.25178      765.48872      51.871143    
 103362000   248.09053     -417.1229      -334.03414     -417.12183      0              6599.3065      30.933001      21.326696      32.503042      21442.215      5962.9338      6537.2047      7297.7811     -365.88658      236.71254      722.831      
 103364000   253.26179     -416.81885     -331.99818     -416.81126      0              5706.9862      30.933001      21.326696      32.453304      21409.403      5984.0522      6980.9779      4155.9286     -911.96168      622.53848     -1875.4772    
 103366000   243.84753     -418.17711     -336.5094      -418.18123      0              5487.6188      30.933001      21.326696      32.43867       21399.749      7069.7009      5384.8923      4008.2631     -632.60399     -339.49258     -1045.834     
 103368000   252.06252     -417.29673     -332.8777      -417.29399      0              5471.9425      30.933001      21.326696      32.450357      21407.458      6569.6337      4974.8497      4871.3441      87.40972      -1461.555       3.138077     
 103370000   245.86705     -415.46546     -333.12138     -415.45504      0              7420.1634      30.933001      21.326696      32.345294      21338.149      7058.2377      8226.9772      6975.2752     -847.5557      -39.285876      1207.6793    
 103372000   248.03871     -415.62691     -332.55551     -415.61952      0              6021.2369      30.933001      21.326696      32.519298      21452.939      9049.3181      4873.248       4141.1447      624.89836     -959.37469     -27.934614    
 103374000   250.69063     -416.88603     -332.92647     -416.89789      0              6398.8322      30.933001      21.326696      32.370269      21354.625      6526.8289      4759.6104      7910.0573     -236.7381       391.85269     -1068.8303    
 103376000   251.65885     -416.59998     -332.31615     -416.60339      0              6957.6429      30.933001      21.326696      32.396429      21371.882      6103.512       8346.1585      6423.2581     -569.45653      32.178353     -514.22962    
 103378000   254.31193     -416.01064     -330.83826     -416.00819      0              6980.6923      30.933001      21.326696      32.435207      21397.464      6899.9603      5666.1652      8375.9513     -601.66596      1018.6599      506.41393    
 103380000   250.49344     -418.10151     -334.20799     -418.10603      0              5481.1122      30.933001      21.326696      32.342993      21336.631      4301.3196      5588.1308      6553.8862      1614.5615     -537.47552      633.94963    
 103382000   247.09776     -415.71684     -332.96058     -415.71761      0              4173.4441      30.933001      21.326696      32.360039      21347.876      5406.8807      3470.4173      3643.0344     -379.40624     -278.11236      566.23592    
 103384000   247.04061     -418.65116     -335.91404     -418.64215      0              5979.3699      30.933001      21.326696      32.534338      21462.861      6307.8515      6053.6615      5576.5968     -108.83919      2525.4044     -151.78236    
 103386000   248.40827     -420.30583     -337.11067     -420.29906      0              4422.7084      30.933001      21.326696      32.683907      21561.531      3958.0015      5081.4667      4228.6571      1603.5229      338.59253      1375.5429    
 103388000   250.59733     -415.96555     -332.03724     -415.9489       0              6231.3299      30.933001      21.326696      32.632936      21527.906      6479.5299      6032.534       6181.9258      608.77327     -1145.1996      239.26533    
 103390000   248.0746      -417.92727     -334.84386     -417.92178      0              6882.9053      30.933001      21.326696      32.548169      21471.985      7237.7942      6059.4991      7351.4227      637.15695     -69.884438      530.28148    
 103392000   257.23876     -418.9238      -332.77119     -418.92132      0              6064.0405      30.933001      21.326696      32.52525       21456.865      6044.9219      6937.546       5209.6536     -140.39407     -785.09739      672.58691    
 103394000   251.52636     -417.10256     -332.8631      -417.09371      0              5889.142       30.933001      21.326696      32.539709      21466.404      4509.4765      6753.3471      6404.6025      216.6906      -504.51271      756.02936    
 103396000   256.90462     -415.75551     -329.71481     -415.74599      0              6522.1625      30.933001      21.326696      32.53895       21465.904      7119.3414      5216.2359      7230.9103     -342.27012     -1199.1493     -546.9991     
 103398000   242.99103     -416.68297     -335.30211     -416.6808       0              6756.6571      30.933001      21.326696      32.296196      21305.759      6420.8304      8564.1477      5284.9931     -1028.0703     -1041.9485     -65.949365    
 103400000   253.53221     -417.59201     -332.68077     -417.58846      0              6019.3171      30.933001      21.326696      32.369426      21354.069      7344.9917      5311.3685      5401.5911     -198.59688     -1861.2838      186.39925    
 103402000   242.95055     -417.10879     -335.74148     -417.11263      0              5870.3014      30.933001      21.326696      32.229         21261.43       5844.7666      6176.0737      5590.064       673.64886     -1480.8579      566.90808    
 103404000   247.17091     -416.19423     -333.41347     -416.18795      0              5189.7733      30.933001      21.326696      32.366249      21351.973      6490.2135      5644.2491      3434.8573      2459.1621     -654.68679     -157.4669     
 103406000   254.7496      -416.65594     -331.33698     -416.64704      0              6935.4137      30.933001      21.326696      32.291733      21302.815      5024.5074      6998.7227      8783.0109     -172.06381      1678.9804     -266.81169    
 103408000   251.03686     -416.62223     -332.54672     -416.61712      0              4991.4057      30.933001      21.326696      32.357566      21346.245      5299.0146      5376.0086      4299.1937      2038.4103      1021.8582      1790.4734    
 103410000   247.30457     -417.71212     -334.8866      -417.7045       0              6435.8285      30.933001      21.326696      32.587399      21497.865      6913.1053      6315.1884      6079.1919     -153.36421      315.08189     -279.71169    
 103412000   243.42659     -418.89354     -337.3668      -418.88844      0              6044.4537      30.933001      21.326696      32.500098      21440.273      7025.9469      5854.5533      5252.8609      285.7533       348.84961     -285.13753    
 103414000   253.67955     -417.31061     -332.35002     -417.29424      0              5670.8652      30.933001      21.326696      32.271768      21289.644      5962.477       5525.9482      5524.1706      1328.3861      304.37529     -1107.8343    
 103416000   241.68553     -413.87629     -332.93265     -413.86392      0              7447.5955      30.933001      21.326696      32.378959      21360.358      6410.9813      6709.472       9222.3333     -108.30462     -1335.5296      1336.7967    
 103418000   253.37659     -417.64394     -332.78482     -417.63712      0              5532.556       30.933001      21.326696      32.550376      21473.441      5638.362       4834.1454      6125.1605      1219.084       390.06725     -328.29797    
 103420000   246.10039     -415.49713     -333.0749      -415.48613      0              6583.617       30.933001      21.326696      32.546796      21471.08       7637.9055      5906.3915      6206.554      -1991.3226      814.21394      201.51538    
 103422000   253.57751     -413.52436     -328.59795     -413.5159       0              6558.701       30.933001      21.326696      32.283017      21297.065      7054.7572      5338.7308      7282.615      -2673.0117     -392.25799     -716.90009    
 103424000   252.88822     -414.23096     -329.5354      -414.21617      0              4917.5409      30.933001      21.326696      32.361426      21348.791      4574.6198      2974.9147      7203.0882     -584.72309      905.98454      548.87656    
 103426000   244.74256     -418.26829     -336.30082     -418.26359      0              6417.9553      30.933001      21.326696      32.466129      21417.863      4883.7456      7430.8637      6939.2567      1276.471      -185.72203      123.60133    
 103428000   247.34416     -417.13431     -334.29553     -417.12504      0              4544.918       30.933001      21.326696      32.590627      21499.995      2677.768       5134.3346      5822.6514     -1239.6504     -1226.3001      30.104819    
 103430000   249.62045     -414.86523     -331.26409     -414.85028      0              6103.2118      30.933001      21.326696      32.498557      21439.256      3830.9762      6561.4335      7917.2259     -467.63493      2255.3601     -1368.8614    
 103432000   253.86552     -414.62654     -329.60366     -414.62086      0              6833.5624      30.933001      21.326696      32.46228       21415.324      7498.4144      6146.4267      6855.846      -595.05688     -1674.3985     -1122.5127    
 103434000   251.3145      -414.22507     -330.05656     -414.21934      0              6300.8569      30.933001      21.326696      32.541923      21467.865      8619.5561      4063.3255      6219.6891      820.65169     -41.804681      934.83558    
 103436000   252.18234     -414.08551     -329.62635     -414.07763      0              7321.6572      30.933001      21.326696      32.352245      21342.734      6215.2013      6946.9301      8802.8402     -913.34987      547.9682       1921.5288    
 103438000   252.7837      -416.25996     -331.5994      -416.26882      0              7123.8781      30.933001      21.326696      32.459314      21413.368      8416.7041      7359.103       5595.8273      310.96726      1080.0184      1441.4607    
 103440000   249.71428     -419.11916     -335.4866      -419.11304      0              5184.5743      30.933001      21.326696      32.57787       21491.579      5321.0056      3450.5182      6782.1991      716.01656     -869.87556      1051.3976    
 103442000   238.73595     -412.88778     -332.932       -412.87758      0              6192.4106      30.933001      21.326696      32.605645      21509.902      4552.5508      7488.4903      6536.1908      1092.0381      768.96215     -467.01148    
 103444000   249.96059     -417.11982     -333.40476     -417.09917      0              5264.5595      30.933001      21.326696      32.716168      21582.814      5335.3608      4633.2533      5825.0644      798.25417      1297.8471      1276.9261    
 103446000   251.93881     -416.64338     -332.26579     -416.63114      0              6724.0634      30.933001      21.326696      32.651291      21540.015      5470.2297      7203.7534      7498.207       2576.7982      839.22992      1512.0856    
 103448000   244.84509     -416.24222     -334.24041     -416.22927      0              4781.7389      30.933001      21.326696      32.669433      21551.982      5195.8603      4149.4893      4999.8669     -298.61714      404.65488      1027.7746    
 103450000   250.71907     -417.96617     -333.99708     -417.94685      0              6315.3952      30.933001      21.326696      32.611289      21513.625      5933.9551      5387.7293      7624.5012      1845.535       23.024497      475.20776    
 103452000   249.77812     -413.74605     -330.0921      -413.72486      0              5546.6578      30.933001      21.326696      32.54531       21470.099      4887.2632      5335.0507      6417.6597     -2302.9093      1493.0684     -389.29186    
 103454000   244.5591      -417.18801     -335.28198     -417.18343      0              6241.4563      30.933001      21.326696      32.211469      21249.864      6218.967       4880.271       7625.1308     -1678.924      -2616.1405     -2101.2624    
 103456000   252.47482     -416.22865     -331.67154     -416.21032      0              7269.9883      30.933001      21.326696      32.424029      21390.09       6660.1985      8220.5539      6929.2126      326.8545       487.04536     -547.72953    
 103458000   244.82788     -416.23372     -334.23767     -416.22477      0              4433.9129      30.933001      21.326696      32.355135      21344.641      5057.1841      4762.0149      3482.5397      532.6696      -1373.4165     -1168.9058    
 103460000   252.90736     -414.69247     -329.9905      -414.67614      0              7182.5404      30.933001      21.326696      32.453661      21409.639      7239.799       7705.6069      6602.2153     -2637.4975     -367.74169      247.18435    
 103462000   243.63755     -415.85638     -334.25898     -415.84507      0              5384.5676      30.933001      21.326696      32.492057      21434.968      5317.3093      5917.6854      4918.7079     -552.02529      1278.2509     -660.58504    
 103464000   245.55997     -417.94347     -335.70223     -417.92971      0              4347.9598      30.933001      21.326696      32.5355        21463.627      3349.9366      4589.555       5104.3879      1708.5176      520.82694      1197.5475    
 103466000   250.05442     -417.49656     -333.75007     -417.46834      0              4198.6933      30.933001      21.326696      32.45625       21411.346      4394.7898      3757.4377      4443.8524     -265.40297     -896.19677     -262.15006    
 103468000   260.19028     -415.35597     -328.21486     -415.33781      0              5822.5652      30.933001      21.326696      32.463522      21416.144      5494.1974      5624.2729      6349.2252      875.38873     -1193.6967      621.53367    
 103470000   245.23304     -416.65346     -334.52172     -416.61489      0              4505.9905      30.933001      21.326696      32.447211      21405.383      2650.3208      6452.4581      4415.1927     -149.1943       446.77557      683.52511    
 103472000   248.94691     -416.46605     -333.09048     -416.43849      0              6342.3269      30.933001      21.326696      32.504507      21443.181      6372.5189      7100.751       5553.7108      386.09124     -2353.9109     -296.48924    
 103474000   250.69449     -415.02147     -331.06062     -414.9945       0              4604.3409      30.933001      21.326696      32.488488      21432.613      4971.4318      3805.9258      5035.6651      2302.0202      1366.7525     -906.38927    
 103476000   251.17367     -414.15499     -330.03365     -414.13994      0              3614.7215      30.933001      21.326696      32.321079      21322.174      3190.9443      4503.2519      3149.9684     -771.59647     -672.54958     -358.43691    
 103478000   247.04077     -414.74792     -332.01074     -414.73479      0              5266.5382      30.933001      21.326696      32.361734      21348.994      4724.5791      5189.1318      5885.9038     -280.10113      782.92114      602.81612    
 103480000   259.00566     -415.83587     -329.0915      -415.82455      0              7166.7994      30.933001      21.326696      32.37208       21355.819      6858.423       7774.0444      6867.9308     -397.61092     -801.35945     -862.95497    
 103482000   253.3399      -417.40851     -332.56167     -417.40166      0              5205.7835      30.933001      21.326696      32.452334      21408.763      5354.6451      6320.3112      3942.3941     -536.58662     -304.6436       536.28657    
 103484000   255.3824      -416.78908     -331.25818     -416.78485      0              6056.9726      30.933001      21.326696      32.464212      21416.599      6974.627       5783.0523      5413.2386      734.48719     -1681.2188      114.48309    
 103486000   246.11687     -415.76955     -333.34181     -415.76046      0              4966.2824      30.933001      21.326696      32.520329      21453.619      4820.0671      4289.1945      5789.5857     -1293.5161     -853.60402      290.9101     
 103488000   250.07019     -418.05805     -334.30629     -418.05011      0              4869.1908      30.933001      21.326696      32.643464      21534.851      5547.3591      3812.3973      5247.816       326.47265     -1815.9993      1574.991     
 103490000   252.3737      -417.85151     -333.32827     -417.83218      0              6016.5139      30.933001      21.326696      32.562302      21481.308      4913.899       6025.3736      7110.2691      1588.0927      145.30932      208.49964    
 103492000   252.83656     -420.22675     -335.54849     -420.22816      0              8691.9261      30.933001      21.326696      32.511097      21447.529      8614.5435      8657.422       8803.8129      240.04564     -953.1246      -2251.0969    
 103494000   243.01036     -417.31428     -335.92694     -417.30457      0              6510.9613      30.933001      21.326696      32.639822      21532.448      6001.882       7257.4568      6273.5453     -842.26839      1933.5698     -422.27043    
 103496000   247.5095      -418.55689     -335.66273     -418.55211      0              5527.7582      30.933001      21.326696      32.684621      21562.002      3738.7794      7094.1503      5750.3449      1027.0334     -793.19505      437.87362    
 103498000   257.18933     -417.50355     -331.36749     -417.49336      0              6993.983       30.933001      21.326696      32.605612      21509.88       6636.342       7734.6199      6610.9872      351.1826       1054.8159      972.52383    
 103500000   250.00777     -418.07594     -334.34508     -418.06837      0              8525.8284      30.933001      21.326696      32.633351      21528.18       7824.5492      10348.458      7404.4786     -16.612456      1588.0599     -1081.0497    
 103502000   247.89246     -416.12431     -333.10189     -416.10852      0              6626.154       30.933001      21.326696      32.569088      21485.785      5799.9303      6919.9322      7158.5996     -2404.6733     -374.03587     -1681.5222    
 103504000   261.26439     -416.9144      -329.41355     -416.90437      0              6895.4245      30.933001      21.326696      32.743967      21601.153      7222.5414      6788.8833      6674.8487      1470.4875      399.52677      251.10219    
 103506000   249.52494     -419.46301     -335.89385     -419.4724       0              5174.8418      30.933001      21.326696      32.773104      21620.374      3864.3252      6287.758       5372.4423      1527.3019      594.59366      1013.6743    
 103508000   249.29939     -416.60564     -333.11202     -416.61376      0              7215.1581      30.933001      21.326696      32.758035      21610.433      7326.624       8253.3188      6065.5314     -729.79391      332.5758      -61.250825    
 103510000   246.29818     -418.59356     -336.10509     -418.59509      0              4203.9966      30.933001      21.326696      32.815131      21648.1        5330.0198      4292.8354      2989.1346      468.38119      1773.0306      759.70826    
 103512000   247.37712     -414.84921     -331.99939     -414.84157      0              5377.44        30.933001      21.326696      32.738115      21597.292      5432.0983      3878.5206      6821.7011     -169.8318      -1153.4197     -442.45936    
 103514000   251.0088      -414.9966      -330.93048     -414.99196      0              7627.1596      30.933001      21.326696      32.647688      21537.638      7818.0864      8814.9979      6248.3946     -384.74522      738.78974      182.69838    
 103516000   255.11996     -419.73084     -334.28784     -419.7236       0              6861.7945      30.933001      21.326696      32.321259      21322.293      7155.0718      7582.6838      5847.6278      1784.854      -859.2212       107.72816    
 103518000   250.56882     -418.12525     -334.20649     -418.12952      0              5751.9112      30.933001      21.326696      32.440284      21400.813      6239.8481      4462.734       6553.1515     -851.02148     -29.936654     -142.9308     
 103520000   243.13105     -417.89107     -336.46331     -417.88748      0              4752.9972      30.933001      21.326696      32.547771      21471.723      3475.0003      7197.9698      3586.0214      398.13869      1109.1961      3.5983606    
 103522000   250.76843     -415.12732     -331.1417      -415.11807      0              8302.5794      30.933001      21.326696      32.429562      21393.74       8096.0475      9065.8589      7745.8317     -130.78898      211.81464      720.92181    
 103524000   249.30609     -417.78835     -334.2925      -417.78625      0              5767.7268      30.933001      21.326696      32.441932      21401.901      7067.3607      4723.3323      5512.4873      1364.3622      685.41053      317.56614    
 103526000   248.2178      -416.58524     -333.45387     -416.58103      0              6535.6556      30.933001      21.326696      32.401275      21375.079      6068.4594      7754.1614      5784.3459     -476.64578      1027.2433     -205.83305    
 103528000   239.69318     -415.22832     -334.95194     -415.22056      0              7153.2261      30.933001      21.326696      32.38098       21361.691      8142.8132      6441.172       6875.6932      438.84332     -617.24958     -442.22331    
 103530000   247.07248     -413.99223     -331.24443     -413.98555      0              7513.592       30.933001      21.326696      32.425109      21390.803      7803.2455      6522.2925      8215.2378      504.80699     -1293.8467      190.22518    
 103532000   252.24841     -417.55419     -333.07291     -417.54769      0              6674.0297      30.933001      21.326696      32.340213      21334.797      6953.9032      8187.5402      4880.6458      1280.2298     -690.37595     -1014.2579    
 103534000   247.75772     -414.8865      -331.90922     -414.87954      0              7234.6546      30.933001      21.326696      32.293714      21304.121      8072.0476      6616.3352      7015.5809      1476.0452     -980.64386      1063.1008    
 103536000   251.79069     -415.51206     -331.18407     -415.50387      0              7794.4972      30.933001      21.326696      32.411664      21381.933      6795.672       8028.9586      8558.8609      205.6863       16.997489     -1741.8727    
 103538000   241.28009     -414.8532      -334.04535     -414.84922      0              6756.7728      30.933001      21.326696      32.284731      21298.196      7898.1309      5809.1897      6562.9976      2126.0581     -458.67609     -1615.0739    
 103540000   255.2247      -417.25726     -331.77918     -417.25651      0              5256.3016      30.933001      21.326696      32.314388      21317.76       4800.8052      4812.8844      6155.2151     -457.74353      74.606193      1167.7027    
 103542000   247.41285     -416.31559     -333.4538      -416.31626      0              6889.0217      30.933001      21.326696      32.52763       21458.436      5715.18        5574.8254      9377.0597      1974.793       456.66831      623.6245     
 103544000   252.99169     -416.18283     -331.45261     -416.17888      0              5261.8403      30.933001      21.326696      32.451202      21408.016      3718.5341      6894.7559      5172.2308      491.07895      1557.2042     -1252.4448    
 103546000   241.07698     -418.87875     -338.13893     -418.8888       0              5473.0372      30.933001      21.326696      32.315218      21318.307      5288.1498      4638.8675      6492.0943      184.39604     -612.69583     -954.37754    
 103548000   246.42837     -416.82928     -334.29721     -416.82694      0              5763.7842      30.933001      21.326696      32.354446      21344.187      3744.6305      6161.5015      7385.2207      401.17289      1995.401       403.95785    
 103550000   251.55267     -414.3392      -330.09093     -414.34574      0              5850.7862      30.933001      21.326696      32.433555      21396.374      6308.7189      4899.9232      6343.7166      1133.8963     -136.31951      138.50266    
 103552000   250.6269      -414.2689      -330.33068     -414.27017      0              7389.4438      30.933001      21.326696      32.540206      21466.732      7647.0281      8378.9562      6142.3472      1555.3145     -870.99841      38.669873    
 103554000   253.65687     -416.43008     -331.47708     -416.4234       0              6813.5677      30.933001      21.326696      32.536601      21464.354      7756.2283      5483.229       7201.2458     -391.24358      73.398901      184.43924    
 103556000   243.11321     -416.76833     -335.34654     -416.77646      0              5343.2103      30.933001      21.326696      32.389103      21367.05       5522.6996      7748.7121      2758.2192      631.02583     -1364.0427     -45.332647    
 103558000   252.68591     -414.98467     -330.35687     -414.97908      0              8381.0899      30.933001      21.326696      32.316057      21318.861      6891.6495      9701.3646      8550.2556      1752.2686     -686.21672      1789.8645    
 103560000   248.90634     -415.28583     -331.92385     -415.2836       0              7014.9555      30.933001      21.326696      32.345306      21338.157      8314.3195      5727.4973      7003.0495      542.77044     -453.10976     -202.7507     
 103562000   250.98011     -414.02394     -329.96743     -414.02923      0              5172.8929      30.933001      21.326696      32.464989      21417.111      5125.5684      4578.0715      5815.0389     -125.24348      824.02659     -940.55566    
 103564000   248.34264     -415.43656     -332.26337     -415.43576      0              5456.0932      30.933001      21.326696      32.403008      21376.222      4303.5767      6414.4089      5650.294       659.0445       501.948        172.56827    
 103566000   247.86266     -416.08979     -333.07736     -416.09375      0              5450.8985      30.933001      21.326696      32.366787      21352.327      5013.9901      4814.4468      6524.2586     -914.51915      331.61112      568.9101     
 103568000   248.91165     -416.23484     -332.87108     -416.24181      0              6748.2951      30.933001      21.326696      32.2435        21270.996      6264.378       5673.8261      8306.6812      439.22444     -25.693946     -409.81126    
 103570000   251.66207     -416.20895     -331.92404     -416.21404      0              7969.2054      30.933001      21.326696      32.422743      21389.242      6859.6724      6761.8115      10286.132      875.21799     -80.845868      822.26286    
 103572000   242.73044     -416.17856     -334.88497     -416.18949      0              6702.2805      30.933001      21.326696      32.290209      21301.809      5601.7711      7757.9851      6747.0854      260.10721      312.79347     -1582.6215    
 103574000   250.44875     -415.80142     -331.92287     -415.80515      0              7883.9109      30.933001      21.326696      32.340795      21335.181      7523.5147      6536.9976      9591.2205      363.18538      393.23015     -414.83925    
 103576000   254.69835     -416.23405     -330.93225     -416.25301      0              7516.6316      30.933001      21.326696      32.367227      21352.618      7601.5244      7448.5789      7499.7916      1560.2401      1193.8357      328.0279     
 103578000   255.5787      -418.23671     -332.64007     -418.25657      0              7177.0309      30.933001      21.326696      32.503583      21442.572      6390.746       6613.6372      8526.7096      1084.6899      839.53328      979.48623    
 103580000   251.08184     -418.82573     -334.73514     -418.82647      0              5661.6541      30.933001      21.326696      32.621264      21520.206      6978.9524      5250.1199      4755.8899      964.92767      58.339838      307.24073    
[...]
 105858000   247.96697     -419.08836     -336.04099     -419.08333      0              6626.8427      30.933001      21.326696      32.43741       21398.917      7838.5721      7294.2722      4747.6837      86.099094     -1159.8593      695.56546    
 105860000   248.47144     -419.43099     -336.21467     -419.42772      0              7779.7805      30.933001      21.326696      32.375583      21358.131      8228.7713      8406.7336      6703.8366     -1138.6548      306.74053     -1783.8711    
 105862000   246.16719     -415.94374     -333.49914     -415.94729      0              6624.0865      30.933001      21.326696      32.281711      21296.203      4768.9134      7756.9604      7346.3857      1262.8247      1267.8551     -1694.3469    
 105864000   251.20771     -416.34514     -332.2124      -416.35082      0              6723.5783      30.933001      21.326696      32.214984      21252.183      4823.9001      5661.0167      9685.8182     -813.79468      2544.8645     -345.21797    
 105866000   252.36463     -416.50832     -331.98812     -416.51111      0              6273.4205      30.933001      21.326696      32.327075      21326.13       7795.648       4955.5749      6069.0387      1165.2507     -1550.9907      1916.7318    
 105868000   261.00061     -415.37404     -327.96154     -415.37714      0              5368.5162      30.933001      21.326696      32.356194      21345.34       7093.7455      4780.861       4230.942      -2938.7635      431.34303      1288.17      
 105870000   240.74834     -419.19839     -338.56863     -419.20973      0              7555.9156      30.933001      21.326696      32.304802      21311.436      7277.8318      7384.4351      8005.4798     -366.99869      755.32742      1094.5216    
 105872000   242.17397     -417.91605     -336.80883     -417.91825      0              7153.9419      30.933001      21.326696      32.388497      21366.649      8829.4486      5877.2139      6755.1633     -697.06306     -1140.5435      2627.3378    
 105874000   254.47466     -419.00753     -333.78065     -419.00846      0              6511.4405      30.933001      21.326696      32.368158      21353.232      7865.1168      7987.768       3681.4368     -91.496303     -1594.0539      1137.2336    
 105876000   253.33738     -416.14947     -331.30348     -416.14868      0              5842.054       30.933001      21.326696      32.530636      21460.418      8541.7579      5028.8817      3955.5224      396.6892      -609.28398      786.60835    
 105878000   252.86114     -418.86984     -334.18334     -418.86614      0              7648.2342      30.933001      21.326696      32.395033      21370.961      9018.7151      6601.0486      7324.9389     -149.68784     -485.11005      114.28754    
 105880000   245.62319     -416.72014     -334.45773     -416.7254       0              6171.0822      30.933001      21.326696      32.356515      21345.551      6300.2451      6132.2223      6080.7794      868.26463      67.094846     -30.985179    
 105882000   246.26369     -418.6134      -336.13648     -418.62163      0              6548.8294      30.933001      21.326696      32.431262      21394.862      7324.0699      7864.6041      4457.8142     -55.867107      483.75891     -2008.6127    
 105884000   255.97658     -419.90974     -334.17984     -419.90419      0              6632.7195      30.933001      21.326696      32.338568      21333.711      5178.8298      7251.0572      7468.2715      1830.1196     -191.17454      2306.6813    
 105886000   245.15984     -420.54221     -338.43498     -420.54919      0              7112.5354      30.933001      21.326696      32.361972      21349.151      6599.3849      5922.1425      8816.0787     -478.40673      97.939077      666.09982    
 105888000   247.0076      -417.1847      -334.45864     -417.18237      0              5100.7314      30.933001      21.326696      32.428789      21393.23       5510.1126      5829.6551      3962.4267     -756.05629     -927.57553     -403.25702    
 105890000   246.88852     -417.32848     -334.6423      -417.33815      0              5467.1851      30.933001      21.326696      32.381222      21361.85       9058.2874      5243.9562      2099.3116     -141.08717     -1937.5654     -538.51961    
 105892000   251.42251     -417.66639     -333.46172     -417.67966      0              7000.0789      30.933001      21.326696      32.346432      21338.9        5882.9439      8141.6824      6975.6105      84.167022      169.9746       400.25113    
 105894000   246.06333     -419.30941     -336.8996      -419.30408      0              5544.4182      30.933001      21.326696      32.467723      21418.915      5441.3418      4498.81        6693.1027      548.34878     -241.96393      1329.0807    
 105896000   248.60444     -416.32606     -333.06519     -416.3304       0              7705.6236      30.933001      21.326696      32.35252       21342.916      5581.734       9416.3018      8118.8349      1021.1094     -2303.691      -503.89569    
 105898000   253.76842     -419.97254     -334.98219     -419.98188      0              7366.6573      30.933001      21.326696      32.438385      21399.561      6613.7308      7859.6968      7626.5442     -1103.3668      1731.8397     -1902.9151    
 105900000   247.54775     -415.42928     -332.52231     -415.43215      0              5736.2464      30.933001      21.326696      32.275397      21292.038      5907.3819      4188.569       7112.7881     -39.941291      951.30318      383.62197    
 105902000   250.76265     -418.39611     -334.41243     -418.394        0              8353.9386      30.933001      21.326696      32.260211      21282.02       7702.9791      8600.1343      8758.7025      679.25258      858.47565     -532.88782    
 105904000   252.47821     -417.08089     -332.52265     -417.08084      0              10041.246      30.933001      21.326696      32.342682      21336.425      9341.037       9695.023       11087.677      1202.211       68.363156      376.15997    
 105906000   249.85394     -418.01817     -334.33883     -418.02128      0              7366.9955      30.933001      21.326696      32.246523      21272.989      7670.5468      7366.1974      7064.2423     -655.87201     -1868.183      -76.265997    
 105908000   248.79457     -420.81105     -337.4865      -420.82227      0              5191.2653      30.933001      21.326696      32.361114      21348.585      6982.8463      5368.8554      3222.0942      198.89109     -100.81483      594.55241    
 105910000   244.60682     -418.36476     -336.44275     -418.37139      0              5382.7084      30.933001      21.326696      32.448401      21406.168      7373.0677      4930.1115      3844.9462     -1693.3994     -427.17869     -43.192098    
 105912000   241.96292     -416.31492     -335.27838     -416.31574      0              5049.0303      30.933001      21.326696      32.491954      21434.9        3052.7256      5244.6151      6849.7501      231.30706      1473.6273      704.93159    
 105914000   253.52696     -418.56082     -333.65134     -418.5619       0              5933.4815      30.933001      21.326696      32.348803      21340.464      5133.8513      5880.049       6786.5443     -2430.1021      584.37713      1251.5438    
 105916000   249.97804     -418.39521     -334.67431     -418.39853      0              5940.4926      30.933001      21.326696      32.388266      21366.497      5433.521       6760.2619      5627.695      -1597.933      -522.25998      1295.914     
 105918000   249.08485     -417.31264     -333.89088     -417.31082      0              6287.2134      30.933001      21.326696      32.665245      21549.22       7557.0312      6213.6196      5090.9894     -1896.2358     -188.02328     -2287.5894    
 105920000   252.12806     -419.39308     -334.9521      -419.41284      0              5148.9405      30.933001      21.326696      32.550464      21473.499      5632.9946      7140.3318      2673.4951      1327.2998     -217.87671     -668.12423    
 105922000   253.06433     -417.85825     -333.10371     -417.87805      0              4944.0816      30.933001      21.326696      32.440822      21401.168      5076.0474      5420.5226      4335.6747      478.6478       281.43878     -96.00541     
 105924000   250.71713     -417.47304     -333.5046      -417.47953      0              5997.5483      30.933001      21.326696      32.478263      21425.868      5064.0565      7843.462       5085.1262     -667.38709      351.54081     -1548.452     
 105926000   244.55623     -416.17815     -334.27308     -416.18886      0              7562.4921      30.933001      21.326696      32.509434      21446.431      7982.6512      6381.2177      8323.6074     -850.98816      522.05897      1316.2005    
 105928000   254.50025     -420.43863     -335.20318     -420.45045      0              4687.9279      30.933001      21.326696      32.590779      21500.095      5533.4217      4008.9938      4521.3682      1219.4993     -1288.0249      595.86797    
 105930000   245.37221     -416.94446     -334.76611     -416.94938      0              6180.3403      30.933001      21.326696      32.369778      21354.301      7184.8085      6834.1658      4522.0467     -157.17194     -34.238164     -513.72972    
 105932000   252.15324     -418.79096     -334.34155     -418.7874       0              6491.7902      30.933001      21.326696      32.60477       21509.325      7287.9173      5686.7175      6500.7358      707.47565      268.60154      234.02838    
 105934000   254.73803     -419.73078     -334.41569     -419.74713      0              7901.691       30.933001      21.326696      32.331916      21329.324      7638.6857      7716.9432      8349.4441      1350.5677     -838.20128     -813.86717    
 105936000   250.02501     -417.68216     -333.94553     -417.68658      0              7810.2496      30.933001      21.326696      32.355609      21344.954      9449.4026      7421.5003      6559.8458     -522.15859     -2004.8754     -540.51045    
 105938000   243.75663     -417.71824     -336.08097     -417.71438      0              6305.8953      30.933001      21.326696      32.496442      21437.861      6136.4944      5402.9666      7378.2247      21.448551     -1324.0175     -1731.2739    
 105940000   250.06065     -416.74058     -332.99201     -416.74685      0              5716.2257      30.933001      21.326696      32.380566      21361.418      6573.1804      5653.3013      4922.1953      19.649108     -2065.155      -641.39198    
 105942000   252.83987     -419.05981     -334.38045     -419.06788      0              5688.2854      30.933001      21.326696      32.49662       21437.978      6117.8232      5086.7611      5860.2718      321.57335     -206.40528     -918.58389    
 105944000   248.23977     -417.05087     -333.91213     -417.05401      0              7521.4445      30.933001      21.326696      32.442767      21402.451      7770.9004      8312.1085      6481.3246      579.71153      693.37408      203.54257    
 105946000   249.72915     -417.74538     -334.10783     -417.74646      0              8499.1491      30.933001      21.326696      32.494934      21436.866      6403.1501      7180.366       11913.931     -325.16894      2457.6777      1492.8265    
 105948000   250.68477     -418.42986     -334.47226     -418.43879      0              5020.1121      30.933001      21.326696      32.627636      21524.409      5502.5657      5816.1467      3741.624      -99.082251     -1269.6368     -1535.8761    
 105950000   256.2244      -420.25277     -334.43988     -420.24751      0              7024.7692      30.933001      21.326696      32.608957      21512.087      7395.2569      8590.0221      5089.0286     -900.47117      324.66013      24.894498    
 105952000   249.67883     -417.50668     -333.88599     -417.51942      0              6891.0552      30.933001      21.326696      32.554516      21476.172      9327.6305      3820.9966      7524.5384     -773.91691     -2363.4741      1055.7912    
 105954000   254.13768     -417.59845     -332.48443     -417.60089      0              5956.109       30.933001      21.326696      32.47008       21420.47       5853.2227      7321.179       4693.9252      2004.4742     -1471.1964     -658.77732    
 105956000   253.47907     -418.05083     -333.15739     -418.05598      0              6113.0578      30.933001      21.326696      32.640116      21532.643      7005.7552      6601.5827      4731.8356     -1074.6852      245.97473     -1078.9656    
 105958000   248.00109     -420.47654     -337.41774     -420.48996      0              7172.2147      30.933001      21.326696      32.546575      21470.933      5198.8194      9825.0739      6492.7507      829.09543     -1006.1994     -735.2443     
 105960000   253.10105     -418.48783     -333.72099     -418.49818      0              4959.4662      30.933001      21.326696      32.408345      21379.743      4891.6565      5541.2563      4445.4856      406.29154      881.86324      113.39732    
 105962000   259.52785     -417.20983     -330.29057     -417.22223      0              7621.9135      30.933001      21.326696      32.430392      21394.288      8093.0526      6495.905       8276.7828      1661.1928     -510.83146     -925.29203    
 105964000   250.24325     -419.03239     -335.22266     -419.04024      0              5672.8189      30.933001      21.326696      32.369706      21354.253      5550.5225      4641.1279      6826.8062      1086.6497     -1096.6419      804.57923    
 105966000   249.17978     -418.23166     -334.77811     -418.24307      0              6335.747       30.933001      21.326696      32.441784      21401.803      5761.7356      6566.5379      6678.9676      635.50721      380.62233      1083.9694    
 105968000   249.90638     -417.37241     -333.67551     -417.3713       0              5657.6167      30.933001      21.326696      32.436053      21398.023      4156.3025      8019.2743      4797.2733     -445.75871      1344.3294     -2913.5416    
 105970000   242.5577      -419.09112     -337.85538     -419.10461      0              6517.1763      30.933001      21.326696      32.285387      21298.628      6447.8694      8001.9121      5101.7474      814.75001     -257.87115     -1504.1823    
 105972000   251.16308     -417.83005     -333.71226     -417.83278      0              7732.8553      30.933001      21.326696      32.334397      21330.96       7706.2495      7407.992       8084.3243      484.13243     -430.65882     -1679.6925    
 105974000   251.13093     -417.30961     -333.20259     -417.31801      0              8019.0627      30.933001      21.326696      32.205228      21245.747      7746.6384      6956.2533      9354.2965      362.19093     -568.22096      939.89121    
 105976000   248.48827     -418.06476     -334.8428      -418.07862      0              7201.0427      30.933001      21.326696      32.261955      21283.17       7864.4813      4463.5537      9275.0932     -1697.6579     -2313.026       1117.1696    
 105978000   245.10045     -417.24708     -335.15974     -417.26098      0              7375.732       30.933001      21.326696      32.3464        21338.879      8346.8055      7321.8426      6458.5478      105.67741      33.425157      581.2762     
 105980000   250.3914      -415.43464     -331.57529     -415.44823      0              6112.0816      30.933001      21.326696      32.232164      21263.517      4963.5789      7041.2485      6331.4175     -1534.5974      922.57356     -1682.9131    
 105982000   252.76851     -417.31883     -332.66336     -417.32325      0              5597.5335      30.933001      21.326696      32.267719      21286.973      3859.2268      6736.7312      6196.6426      529.46071     -275.83718      473.65103    
 105984000   245.87344     -414.42687     -332.08066     -414.4384       0              5265.6192      30.933001      21.326696      32.280349      21295.304      5798.2264      4763.7346      5234.8965     -719.8974       491.52764      264.60359    
 105986000   248.54186     -417.86566     -334.62575     -417.86883      0              6673.6829      30.933001      21.326696      32.466778      21418.292      8226.4507      3916.9911      7877.6071     -482.47066      227.52144      808.67814    
 105988000   248.98131     -415.40706     -332.01997     -415.41531      0              4930.7133      30.933001      21.326696      32.558074      21478.519      5607.4935      4569.2686      4615.3779      2291.0525     -656.88063      1140.003     
 105990000   247.75346     -419.60848     -336.63261     -419.62746      0              4981.9514      30.933001      21.326696      32.465249      21417.283      6755.8341      5162.5159      3027.5044     -755.26914      673.61729     -2137.9296    
 105992000   257.26626     -419.19035     -333.02852     -419.21574      0              5739.1009      30.933001      21.326696      32.447003      21405.246      6589.3717      5265.8667      5362.0641      999.83688     -1274.979       132.04337    
 105994000   250.85288     -416.4069      -332.393       -416.42709      0              6324.6983      30.933001      21.326696      32.342611      21336.379      5938.557       4034.0589      9001.4792     -1854.1975      390.51886      2479.4428    
 105996000   253.18347     -416.51942     -331.72498     -416.52881      0              5216.7673      30.933001      21.326696      32.401846      21375.456      5871.2058      4357.1497      5421.9464     -1952.4002      2148.1641      1154.1518    
 105998000   251.1029      -417.19242     -333.09479     -417.19618      0              6943.7623      30.933001      21.326696      32.352844      21343.129      6302.2314      7304.6518      7224.4038      1808.0171     -525.41613      132.74841    
 106000000   253.61889     -417.20882     -332.26855     -417.21735      0              6278.0347      30.933001      21.326696      32.44934       21406.788      5331.1438      7366.0382      6136.9219     -780.50393     -1323.5447     -714.40581    
Loop time of 34289.2 on 4 procs for 2987000 steps with 2592 atoms

Performance: 3.763 ns/day, 6.377 hours/ns, 87.112 timesteps/s
1455.7% CPU use with 4 MPI tasks x no OpenMP threads

MPI task timing breakdown:
Section |  min time  |  avg time  |  max time  |%varavg| %total
---------------------------------------------------------------
Pair    | 8339.8     | 8411.3     | 8443.9     |  45.4 | 24.53
Bond    | 0.2842     | 0.29902    | 0.31345    |   2.2 |  0.00
Neigh   | 254.9      | 258.86     | 263.61     |  19.3 |  0.75
Comm    | 961.48     | 1000.2     | 1072       | 134.2 |  2.92
Output  | 2230.2     | 2230.2     | 2230.2     |   0.0 |  6.50
Modify  | 22379      | 22380      | 22381      |   0.6 | 65.27
Other   |            | 8.249      |            |       |  0.02

Nlocal:            648 ave         652 max         643 min
Histogram: 1 0 0 1 0 0 0 0 1 1
Nghost:        4240.25 ave        4253 max        4227 min
Histogram: 1 0 1 0 0 0 0 1 0 1
Neighs:              0 ave           0 max           0 min
Histogram: 4 0 0 0 0 0 0 0 0 0
FullNghs:       167800 ave      168967 max      165436 min
Histogram: 1 0 0 0 0 0 0 1 1 1

Total # of neighbors = 671198
Ave neighs/atom = 258.94985
Ave special neighs/atom = 0
Neighbor list builds = 59740
Dangerous builds not checked
unfix 3
unfix 1
unfix 2


# Finalize simulation
write_restart	restart.lmp.${pid}
write_restart	restart.lmp.0
System init for write_restart ...
Generated 0 of 1 mixed pair_coeff terms from geometric mixing rule
write_data	data.final.${pid} nocoeff
write_data	data.final.0 nocoeff
System init for write_data ...
Generated 0 of 1 mixed pair_coeff terms from geometric mixing rule
Total wall time: 9:31:46
