LAMMPS (23 Jun 2022)

include procedure.lmp
echo both
include		in.partitions
variable        pid world 0
include		in.temp
variable	temperature equal 250
variable        tempDamp equal 0.100 # this is 0.1 ps
include		in.pressure
variable        pressure equal 6079.5
variable        pressureDamp equal 1.0 #this is 1ps

variable	barostat string	   tri
variable	direction string   z
variable	direction_x_bool equal 0
variable	direction_y_bool equal 0
variable	direction_z_bool equal 1

include		in.seed
variable        seed world 745823

units           metal
atom_style	full
box tilt large
read_restart 	restart.lmp.${pid}
read_restart 	restart.lmp.0
Reading restart file ...
  restart file = 23 Jun 2022, LAMMPS = 23 Jun 2022
  restoring atom style full from restart
  triclinic box = (0 0 -0.82165155) to (30.933001 21.326696 31.778885) with tilt (-9.140633 0.98969478 -10.845772)
WARNING: Triclinic box skew is large (../domain.cpp:224)
  2 by 1 by 2 MPI processor grid
Summary of lammps deepmd module ...
  >>> Info of deepmd-kit:
  installed to:       /u/sigbjobo/software/DEEPMD_FROM_SOURCE/deepmd-kit/install
  source:             v2.1.3
  source branch:       master
  source commit:      5a32c49
  source commit at:   2022-07-01 09:52:58 +0800
  surpport model ver.:1.1 
  build float prec:   double
  build with tf inc:  /u/sigbjobo/software/DEEPMD_FROM_SOURCE/tensorflow/install/include;/u/sigbjobo/software/DEEPMD_FROM_SOURCE/tensorflow/install/include
  build with tf lib:  /u/sigbjobo/software/DEEPMD_FROM_SOURCE/tensorflow/install/lib/libtensorflow_cc.so;/u/sigbjobo/software/DEEPMD_FROM_SOURCE/tensorflow/install/lib/libtensorflow_framework.so
  set tf intra_op_parallelism_threads: 0
  set tf inter_op_parallelism_threads: 0
  >>> Info of lammps module:
  use deepmd-kit at:  /u/sigbjobo/software/DEEPMD_FROM_SOURCE/deepmd-kit/install
  source:             v2.1.3
  source branch:      master
  source commit:      5a32c49
  source commit at:   2022-07-01 09:52:58 +0800
  build float prec:   double
  build with tf inc:  /u/sigbjobo/software/DEEPMD_FROM_SOURCE/tensorflow/install/include;/u/sigbjobo/software/DEEPMD_FROM_SOURCE/tensorflow/install/include
  build with tf lib:  /u/sigbjobo/software/DEEPMD_FROM_SOURCE/tensorflow/install/lib/libtensorflow_cc.so;/u/sigbjobo/software/DEEPMD_FROM_SOURCE/tensorflow/install/lib/libtensorflow_framework.so
  restoring pair style deepmd from restart
  2592 atoms
Finding 1-2 1-3 1-4 neighbors ...
  special bond factors lj:    0        0        0       
  special bond factors coul:  0        0        0       
     0 = max # of 1-2 neighbors
     0 = max # of 1-3 neighbors
     0 = max # of 1-4 neighbors
     1 = max # of special neighbors
  special bonds CPU = 0.000 seconds
  read_restart CPU = 0.009 seconds
include 	in.setup
variable	out_freq equal 2000
variable	out_freq2 equal 2000

timestep        0.0005

neigh_modify    delay 7 every 1

include         in.deepmd
# This is deepMD model

# create groups ###
#group ox type 2
#group hy type 1

mass 2 15.999
mass 1 1.008

pair_style      deepmd ../graph.pb
pair_coeff      * *

bond_style      none
angle_style     none
dihedral_style  none
improper_style  none
neigh_modify exclude none


neighbor        2.0 bin
neigh_modify    every 50 delay 0 check no

thermo          ${out_freq}
thermo          2000
thermo_style 	custom step temp pe etotal epair emol press lx ly lz vol pxx pyy pzz pxy pxz pyz

restart 	${out_freq} restart.lmp.${pid} restart2.lmp.${pid}
restart 	2000 restart.lmp.${pid} restart2.lmp.${pid}
restart 	2000 restart.lmp.0 restart2.lmp.${pid}
restart 	2000 restart.lmp.0 restart2.lmp.0


timer           timeout 23:50:00 every 1000
New timer settings: style=normal  mode=nosync  timeout=23:50:00


# Set number of time steps
variable 	nsteps_wall		equal	 6000000
variable 	nsteps_enhanced_coex    equal	60000000

variable     nsteps_enhanced_coex_upto equal (${nsteps_wall}+${nsteps_enhanced_coex})
variable     nsteps_enhanced_coex_upto equal (6000000+${nsteps_enhanced_coex})
variable     nsteps_enhanced_coex_upto equal (6000000+60000000)


# Set temperature for first step
if "$(step) < 1  " then    "velocity 	all create ${temperature} ${seed} dist gaussian"


# Always run thermo and barostat


######################################
# Run simulation with wall potential #
######################################
if " $(step) < ${nsteps_wall} " then    "fix             3 all plumed plumedfile plumed.equil.dat outfile plumed.equil.out"   "fix             1 all nph ${direction} ${pressure} ${pressure} ${pressureDamp}"   "fix             2 all temp/csvr ${temperature} ${temperature} ${tempDamp} ${seed}"   "run             ${nsteps_wall} upto"
if " $(step) == ${nsteps_wall} " then    "unfix 3"   "unfix 1"   "unfix 2"


############################
# Run enhanced coesistence #
############################
if "$(step) == ${nsteps_wall}" then    "fix             3 all plumed plumedfile plumed.start.dat outfile plumed.out" else    "fix             3 all plumed plumedfile plumed.dat outfile plumed.out"
fix             3 all plumed plumedfile plumed.dat outfile plumed.out

if "$(step) < ${nsteps_enhanced_coex_upto} && $(step) >= ${nsteps_wall} " then    "include         in.dump"    "fix             1 all nph ${direction} ${pressure} ${pressure} ${pressureDamp}"   "fix             2 all temp/csvr ${temperature} ${temperature} ${tempDamp} ${seed}"   "run             ${nsteps_enhanced_coex_upto} upto"    "unfix 3"   "unfix 1"   "unfix 2"
include         in.dump
dump            myDump all atom ${out_freq2} dump.water.${pid}
dump            myDump all atom 2000 dump.water.${pid}
dump            myDump all atom 2000 dump.water.0
dump            myDump2 all dcd ${out_freq2} dump.${pid}.dcd
dump            myDump2 all dcd 2000 dump.${pid}.dcd
dump            myDump2 all dcd 2000 dump.0.dcd
dump_modify     myDump append yes
dump_modify     myDump2 append yes

fix             1 all nph ${direction} ${pressure} ${pressure} ${pressureDamp}
fix             1 all nph z ${pressure} ${pressure} ${pressureDamp}
fix             1 all nph z 6079.5 ${pressure} ${pressureDamp}
fix             1 all nph z 6079.5 6079.5 ${pressureDamp}
fix             1 all nph z 6079.5 6079.5 1
fix             2 all temp/csvr ${temperature} ${temperature} ${tempDamp} ${seed}
fix             2 all temp/csvr 250 ${temperature} ${tempDamp} ${seed}
fix             2 all temp/csvr 250 250 ${tempDamp} ${seed}
fix             2 all temp/csvr 250 250 0.1 ${seed}
fix             2 all temp/csvr 250 250 0.1 745823
run             ${nsteps_enhanced_coex_upto} upto
run             66000000 upto

CITE-CITE-CITE-CITE-CITE-CITE-CITE-CITE-CITE-CITE-CITE-CITE-CITE

Your simulation uses code contributions which should be cited:

- USER-DEEPMD package:

@article{Wang_ComputPhysCommun_2018_v228_p178,
  author = {Wang, Han and Zhang, Linfeng and Han, Jiequn and E, Weinan},
  doi = {10.1016/j.cpc.2018.03.016},
  url = {https://doi.org/10.1016/j.cpc.2018.03.016},
  year = 2018,
  month = {jul},
  publisher = {Elsevier {BV}},
  volume = 228,
  journal = {Comput. Phys. Commun.},
  title = {{DeePMD-kit: A deep learning package for many-body potential energy representation and molecular dynamics}},
  pages = {178--184}
}

CITE-CITE-CITE-CITE-CITE-CITE-CITE-CITE-CITE-CITE-CITE-CITE-CITE

Generated 0 of 1 mixed pair_coeff terms from geometric mixing rule
Neighbor list info ...
  update every 50 steps, delay 0 steps, check no
  max neighbors/atom: 2000, page size: 100000
  master list distance cutoff = 8
  ghost atom cutoff = 8
  binsize = 4, bins = 11 9 9
  1 neighbor lists, perpetual/occasional/extra = 1 0 0
  (1) pair deepmd, perpetual
      attributes: full, newton on
      pair build: full/bin
      stencil: full/bin/3d
      bin: standard
Per MPI rank memory allocation (min/avg/max) = 7.307 | 7.308 | 7.309 Mbytes
   Step          Temp          PotEng         TotEng         E_pair         E_mol          Press            Lx             Ly             Lz           Volume          Pxx            Pyy            Pzz            Pxy            Pxz            Pyz      
  53636000   249.33054     -417.23753     -333.73349     -417.23753      0              6126.3869      30.933001      21.326696      32.600536      21506.532      6087.2731      7287.7992      5004.0883      916.22046      411.79634      624.88083    
  53638000   251.73564     -414.39288     -330.08334     -414.36847      0              6488.6663      30.933001      21.326696      32.541593      21467.647      4746.6894      6173.203       8546.1066      1340.9494     -377.94844     -1122.1804    
  53640000   245.03472     -415.52734     -333.46202     -415.50357      0              7270.3684      30.933001      21.326696      32.373414      21356.699      6017.349       6600.766       9192.9904     -186.49566     -107.25448     -115.16836    
  53642000   252.604       -417.61054     -333.01017     -417.59808      0              4808.0058      30.933001      21.326696      32.449264      21406.737      1828.2181      6370.328       6225.4712      491.48213      1543.3787     -194.07194    
  53644000   247.19807     -415.63501     -332.84515     -415.61824      0              7335.6094      30.933001      21.326696      32.472281      21421.922      7338.6683      8821.0515      5847.1085     -340.91025     -703.24558     -656.06463    
  53646000   250.37425     -412.64881     -328.79521     -412.63364      0              4400.8446      30.933001      21.326696      32.473446      21422.691      3588.8816      6012.021       3601.6312     -153.48283      629.89663     -800.45397    
  53648000   252.36614     -415.88072     -331.36001     -415.86497      0              7086.3297      30.933001      21.326696      32.550213      21473.334      7904.5639      5607.4846      7746.9406     -253.94408      377.07179      1196.7905    
  53650000   244.04654     -416.57734     -334.84297     -416.54205      0              5306.4463      30.933001      21.326696      32.661257      21546.589      6047.8961      7115.8667      2755.5762     -314.38565     -765.6063      -242.04844    
  53652000   254.4133      -418.40076     -333.19443     -418.38864      0              7576.6778      30.933001      21.326696      32.750301      21605.331      7802.5742      6789.1603      8138.2989     -648.10379      815.07404      1261.5755    
  53654000   244.44998     -416.43543     -334.56594     -416.40753      0              3890.9086      30.933001      21.326696      32.571018      21487.058      4124.3894      5573.5556      1974.7807     -1529.2527     -149.06253     -446.17331    
  53656000   243.4791      -417.06671     -335.52239     -417.03601      0              6976.9446      30.933001      21.326696      32.671177      21553.133      8508.8527      7657.3         4764.681      -1961.3058     -1414.1224      1011.6942    
  53658000   246.74488     -416.48256     -333.84448     -416.45151      0              6653.8251      30.933001      21.326696      32.620737      21519.858      4292.9616      8698.9239      6969.5898      1353.8138     -1586.7325     -238.03292    
  53660000   252.27049     -414.97207     -330.4834      -414.94786      0              5994.8051      30.933001      21.326696      32.704979      21575.432      6457.5614      8159.5341      3367.3199      1705.7675     -206.5625       510.64188    
  53662000   257.0905      -414.74688     -328.64392     -414.72997      0              6076.952       30.933001      21.326696      32.457252      21412.007      5890.4967      5510.265       6830.0944     -28.557845      771.76916      2142.8708    
  53664000   249.69181     -416.24896     -332.62392     -416.21948      0              5792.8626      30.933001      21.326696      32.563549      21482.131      6406.0416      5166.0906      5806.4557     -38.404432     -111.51058      1850.5769    
  53666000   257.39135     -414.70365     -328.49993     -414.6946       0              5979.5468      30.933001      21.326696      32.693558      21567.898      7360.49        7081.4421      3496.7082      1978.5045     -399.66625      26.425434    
  53668000   248.09146     -416.97089     -333.88183     -416.95571      0              6851.1105      30.933001      21.326696      32.770379      21618.577      8157.2578      5165.6781      7230.3957     -415.33166      1441.7322     -136.23565    
  53670000   245.83774     -418.38607     -336.05181     -418.36743      0              4858.6466      30.933001      21.326696      32.784577      21627.943      5918.4805      5051.8535      3605.6058     -510.16011     -691.9561      -153.82366    
  53672000   248.80181     -417.0487      -333.72173     -417.03362      0              6844.8376      30.933001      21.326696      32.79636       21635.716      8173.2261      6345.145       6016.1416     -670.11896     -1558.179       1086.4972    
  53674000   255.37239     -415.61005     -330.08251     -415.58947      0              5627.0032      30.933001      21.326696      32.82087       21651.886      5051.0676      6156.4954      5673.4466     -466.67435     -198.96754      741.38324    
  53676000   247.91337     -416.75126     -333.72184     -416.73239      0              6871.598       30.933001      21.326696      32.769757      21618.166      6059.7025      7575.6967      6979.3948      1381.7226     -925.08117      486.60158    
  53678000   251.62266     -416.01208     -331.74037     -415.97653      0              5113.6406      30.933001      21.326696      32.697069      21570.215      6372.4489      4159.2754      4809.1975      957.22245     -119.45012      355.79112    
  53680000   247.81882     -416.63328     -333.63553     -416.6028       0              7262.5416      30.933001      21.326696      32.538769      21465.784      6506.9797      7786.6153      7494.0299     -130.55438     -150.0158       59.31794     
  53682000   250.20712     -415.02811     -331.23049     -415.01328      0              7405.9919      30.933001      21.326696      32.335827      21331.903      7433.8596      6991.4385      7792.6777     -622.18961     -803.88336      482.95118    
  53684000   248.73365     -415.64042     -332.33627     -415.61786      0              6289.043       30.933001      21.326696      32.486909      21431.572      5667.5082      6869.0008      6330.62       -165.52227     -203.34651     -664.66142    
  53686000   251.9374      -414.58715     -330.21003     -414.5728       0              5481.7965      30.933001      21.326696      32.655294      21542.655      7321.7804      3915.8544      5207.7547      562.52551      1074.4386      16.468678    
  53688000   251.88772     -417.95068     -333.5902      -417.94374      0              4993.9075      30.933001      21.326696      32.606981      21510.783      3703.5241      5605.1678      5673.0307      1275.01       -424.85968      386.7856     
  53690000   249.54879     -412.4825      -328.90536     -412.45283      0              7379.5802      30.933001      21.326696      32.473457      21422.698      8428.1068      6763.3225      6947.3113     -532.44344     -1649.4327      102.47303    
  53692000   253.36782     -413.96548     -329.1093      -413.93177      0              6210.8728      30.933001      21.326696      32.62149       21520.355      5505.0854      5272.1321      7855.4007      1375.446      -332.63636      86.776128    
  53694000   246.85268     -416.33504     -333.66086     -416.3127       0              6298.9111      30.933001      21.326696      32.757445      21610.044      6788.9509      7381.7786      4726.0039     -1778.4435      776.02089     -334.10311    
  53696000   250.24899     -417.11415     -333.3025      -417.06794      0              6189.2902      30.933001      21.326696      32.84627       21668.642      5550.5313      7443.3353      5574.004      -809.89102     -1473.6322     -1608.4082    
  53698000   251.45049     -415.1856      -330.97156     -415.15725      0              5542.1202      30.933001      21.326696      32.692797      21567.396      6775.6918      4919.1376      4931.5312     -653.97862     -152.17728     -954.59688    
  53700000   248.676       -412.83299     -329.54815     -412.79761      0              6026.8319      30.933001      21.326696      32.639315      21532.114      6325.1656      6958.3287      4797.0015     -705.00416     -591.31032      832.14217    
  53702000   254.00992     -414.26321     -329.19198     -414.2297       0              6435.1545      30.933001      21.326696      32.597581      21504.582      6210.8609      6761.1343      6333.4684     -640.90855     -131.18426     -1827.6819    
  53704000   246.04263     -416.27463     -333.87175     -416.25046      0              6000.5813      30.933001      21.326696      32.502126      21441.611      6071.4003      7164.0251      4766.3186      337.7828       25.720443     -804.06129    
  53706000   256.76642     -419.05318     -333.05876     -419.02952      0              7889.8319      30.933001      21.326696      32.413355      21383.049      7626.6563      6878.2967      9164.5426     -391.11834     -1426.4664     -135.64082    
  53708000   256.00524     -414.28452     -328.54503     -414.26308      0              6446.9973      30.933001      21.326696      32.616658      21517.167      4091.5948      7902.8557      7346.5413      369.34036     -812.9793      -820.95573    
  53710000   252.55781     -417.02436     -332.43946     -416.99558      0              5908.8972      30.933001      21.326696      32.635573      21529.646      6231.2095      5131.9275      6363.5545      324.844       -405.11856     -1575.2592    
  53712000   243.13688     -414.49979     -333.07008     -414.47474      0              6497.2392      30.933001      21.326696      32.634016      21528.618      7331.2322      7902.2014      4258.284      -909.57919     -470.71216     -847.93179    
  53714000   248.90015     -412.32891     -328.969       -412.29422      0              6983.5871      30.933001      21.326696      32.619786      21519.231      7647.9496      7456.2427      5846.569      -690.69949     -27.502345     -849.11678    
  53716000   252.03039     -416.1016      -331.69334     -416.07132      0              6179.8665      30.933001      21.326696      32.59009       21499.64       6512.8858      6353.4293      5673.2843     -1043.7602      320.15217     -246.48242    
  53718000   252.50802     -419.43521     -334.86698     -419.41848      0              5580.8258      30.933001      21.326696      32.584807      21496.155      5461.1892      5356.0042      5925.2839     -136.67285      509.63393     -833.64817    
  53720000   254.00159     -415.61012     -330.54168     -415.57988      0              7872.5009      30.933001      21.326696      32.562885      21481.693      8843.7181      7036.1206      7737.664       273.41155     -46.788653     -264.31961    
  53722000   245.62093     -414.89932     -332.63767     -414.87758      0              5263.6532      30.933001      21.326696      32.494368      21436.493      3969.2673      4822.9972      6998.6952      355.44266     -1107.1154      625.40087    
  53724000   251.3553      -415.75474     -331.57257     -415.73966      0              5398.5492      30.933001      21.326696      32.50037       21440.452      5150.5071      4136.0682      6909.0723     -875.12898     -516.79385      92.702489    
  53726000   244.1027      -418.72047     -336.9673      -418.7032       0              6055.44        30.933001      21.326696      32.43457       21397.044      5974.2327      7468.4188      4723.6684      1857.62       -131.66293      788.98989    
  53728000   252.68877     -416.87494     -332.24617     -416.84152      0              7010.4728      30.933001      21.326696      32.515819      21450.644      6509.6174      7856.8393      6664.9619      324.5604      -489.79737      858.03462    
  53730000   243.92883     -416.32847     -334.63352     -416.30272      0              4063.3094      30.933001      21.326696      32.653199      21541.273      3080.4237      4417.6008      4691.9039      67.224862     -1262.654      -484.7768     
  53732000   251.73772     -419.89098     -335.58074     -419.87637      0              6168.1237      30.933001      21.326696      32.771144      21619.081      5533.7496      5766.1528      7204.4685     -290.14357     -989.17877     -1321.2501    
  53734000   251.04754     -418.79974     -334.72065     -418.76813      0              4638.7369      30.933001      21.326696      32.688421      21564.509      5537.7379      5054.6492      3323.8237      901.02193     -1828.8503     -184.15177    
  53736000   255.39378     -416.61187     -331.07717     -416.58765      0              9167.1712      30.933001      21.326696      32.601664      21507.276      8779.7032      8114.6633      10607.147      103.78281     -168.37181      2053.8197    
  53738000   247.2676      -416.33855     -333.52541     -416.3135       0              5411.4965      30.933001      21.326696      32.692969      21567.51       5479.4824      4825.2663      5929.7407     -132.8331      -544.42152     -1218.3147    
  53740000   250.39848     -417.01151     -333.14979     -416.98419      0              7171.4245      30.933001      21.326696      32.610382      21513.027      8859.5022      6946.4584      5708.313      -67.370362     -794.71736     -919.40945    
  53742000   249.34809     -416.97477     -333.46485     -416.95071      0              5968.575       30.933001      21.326696      32.577038      21491.03       6550.1727      5477.52        5878.0322     -2558.0113     -140.76893     -206.47564    
  53744000   250.0275      -415.35506     -331.61759     -415.3202       0              4941.8742      30.933001      21.326696      32.643931      21535.159      5415.5478      5005.2388      4404.8361      559.17267      167.59205      268.40239    
  53746000   254.17664     -418.36926     -333.24219     -418.35714      0              7350.201       30.933001      21.326696      32.583102      21495.03       6594.8359      8858.8632      6596.904       972.62158      235.21556     -860.54231    
  53748000   246.40567     -416.60635     -334.08188     -416.58361      0              4944.2744      30.933001      21.326696      32.632558      21527.656      4892.225       5835.3944      4105.2039      653.80438      24.055956      1387.5192    
  53750000   246.48919     -414.66687     -332.11443     -414.64063      0              5028.2288      30.933001      21.326696      32.655839      21543.015      4442.3866      4939.2034      5703.0963      823.48579      545.91113      1792.0445    
  53752000   247.29074     -416.84061     -334.01971     -416.81354      0              5676.5964      30.933001      21.326696      32.443229      21402.756      6294.6546      5973.7371      4761.3975     -110.69663      336.75323     -348.10501    
  53754000   244.50369     -417.10474     -335.21727     -417.08072      0              6406.9286      30.933001      21.326696      32.395808      21371.473      7702.161       5770.0521      5748.5728      1337.8154     -1556.9383     -280.27993    
  53756000   247.72366     -416.77065     -333.80477     -416.75036      0              7510.4195      30.933001      21.326696      32.502274      21441.708      9298.2709      8013.8893      5219.0985     -156.10105      203.91756     -980.85579    
  53758000   250.24842     -416.76951     -332.95806     -416.74209      0              5795.1302      30.933001      21.326696      32.535738      21463.785      6481.9278      5413.8147      5489.6482      236.53229      178.39469     -637.01551    
  53760000   251.22547     -415.10162     -330.96294     -415.07313      0              7561.731       30.933001      21.326696      32.412924      21382.764      8704.5981      5937.7836      8042.8112      408.11748     -630.43313     -1389.4128    
  53762000   252.18983     -415.55127     -331.08961     -415.51892      0              8657.8764      30.933001      21.326696      32.398983      21373.568      9065.7254      8079.7978      8828.106       170.62596     -153.4725       431.48298    
  53764000   257.20695     -419.08616     -332.9442      -419.07604      0              6585.356       30.933001      21.326696      32.496026      21437.586      7100.5387      6502.2996      6153.2297      2503.8929     -720.194        501.74278    
  53766000   252.96912     -417.95735     -333.23469     -417.93704      0              6928.0266      30.933001      21.326696      32.432317      21395.558      6517.1604      7190.5348      7076.3846      1500.2688     -432.91304     -1329.0995    
  53768000   244.86292     -414.9643      -332.95652     -414.94208      0              5784.6665      30.933001      21.326696      32.456595      21411.574      7350.3196      2003.6687      8000.0113     -188.40874      107.96058      52.460198    
  53770000   247.39379     -415.20395     -332.34855     -415.16975      0              8552.2215      30.933001      21.326696      32.542541      21468.272      8601.5258      8593.9024      8461.2362      318.80422     -270.80456     -1772.0986    
  53772000   250.50914     -416.97281     -333.07403     -416.93755      0              6176.6731      30.933001      21.326696      32.527733      21458.504      6366.8856      5761.2995      6401.8343      323.73123     -604.05662     -497.768      
  53774000   254.29235     -417.47161     -332.30579     -417.45585      0              6596.9302      30.933001      21.326696      32.54732       21471.425      6407.4839      6312.5758      7070.731      -467.4592      -722.02465     -570.23336    
  53776000   255.88349     -415.14398     -329.44527     -415.10912      0              6502.5057      30.933001      21.326696      32.449216      21406.706      6036.194       7342.4138      6128.9093     -1294.4942     -153.51035     -247.89045    
  53778000   253.65754     -416.64234     -331.68912     -416.60725      0              5837.1806      30.933001      21.326696      32.52885       21459.241      5332.2242      8002.2633      4177.0542      270.01375     -708.21481     -436.05771    
  53780000   251.8461      -415.67276     -331.32622     -415.64692      0              6957.908       30.933001      21.326696      32.381718      21362.177      7819.3446      6883.7198      6170.6595      1305.1947     -1297.5207     -26.017041    
  53782000   247.13176     -416.17249     -333.40485     -416.14235      0              6580.0197      30.933001      21.326696      32.704116      21574.863      5502.0047      5999.1576      8238.8968     -290.95667     -304.89277      538.05783    
  53784000   246.59747     -415.97295     -333.38424     -415.93788      0              4908.6346      30.933001      21.326696      32.74106       21599.235      6757.4846      3997.3157      3971.1035      583.03118     -155.07129      711.24635    
  53786000   248.0939      -417.40216     -334.31228     -417.35481      0              7400.8693      30.933001      21.326696      32.731487      21592.92       5960.0332      8258.6638      7983.9109     -432.68389      992.46486     -429.20517    
  53788000   251.12587     -416.9123      -332.80697     -416.8771       0              5726.4154      30.933001      21.326696      32.644361      21535.443      3614.5812      6489.3108      7075.3544     -835.82972     -104.3874       142.00724    
  53790000   256.10222     -417.27857     -331.50659     -417.2425       0              5501.1167      30.933001      21.326696      32.735569      21595.613      6852.9731      4792.8748      4857.5023     -764.23924     -2627.9711     -373.82267    
  53792000   247.10782     -419.32917     -336.56954     -419.30991      0              7195.6292      30.933001      21.326696      32.624048      21522.042      7546.116       5857.4447      8183.3267      587.60083      2103.1429      373.25444    
  53794000   250.01068     -419.00759     -335.27575     -418.98351      0              5558.0529      30.933001      21.326696      32.488793      21432.815      4385.3939      7144.6853      5144.0793     -144.74211     -229.52782     -1419.2904    
  53796000   252.65744     -416.50144     -331.88317     -416.47885      0              7698.598       30.933001      21.326696      32.51576       21450.605      7491.9335      9128.9642      6474.8962      195.85605      750.41286     -1505.3164    
  53798000   250.67899     -416.61098     -332.65532     -416.59231      0              6166.8355      30.933001      21.326696      32.562178      21481.227      6408.8184      5432.6308      6659.0572      39.408293     -1737.9626      688.67498    
  53800000   247.95223     -414.97778     -331.93535     -414.94024      0              7725.558       30.933001      21.326696      32.649439      21538.793      8644.6102      7710.7761      6821.2877     -404.62497     -660.0263       902.64324    
  53802000   250.58523     -413.74668     -329.82242     -413.71098      0              7817.759       30.933001      21.326696      32.54112       21467.335      8968.5523      8398.251       6086.4737     -819.13123     -1245.5179     -1769.4995    
  53804000   248.77202     -415.79396     -332.47697     -415.76373      0              5964.26        30.933001      21.326696      32.790582      21631.904      5709.5068      5628.7784      6554.495       595.60974     -44.896577      711.36906    
  53806000   250.80715     -414.51885     -330.52026     -414.47945      0              3563.3101      30.933001      21.326696      32.742839      21600.408      3410.2886      4368.5827      2911.0589      412.5375       43.932016     -64.360553    
  53808000   251.61843     -416.32754     -332.05725     -416.27677      0              4363.6466      30.933001      21.326696      32.874526      21687.283      4276.0088      3073.8935      5741.0376      1100.5268     -868.59762      580.44426    
  53810000   244.57537     -416.40763     -334.49615     -416.37126      0              5587.1038      30.933001      21.326696      32.759027      21611.088      4487.9257      4127.6149      8145.7707     -144.60996     -1732.0272      1337.25      
  53812000   242.79642     -416.7326      -335.41691     -416.71935      0              6214.8099      30.933001      21.326696      32.562095      21481.172      6194.0226      8450.0325      4000.3747      693.79575     -257.37729      423.50614    
  53814000   250.28743     -414.59053     -330.76601     -414.5631       0              6218.4521      30.933001      21.326696      32.735001      21595.238      6713.35        6415.4528      5526.5534      1240.555      -563.68453      990.70094    
  53816000   250.34194     -416.0882      -332.24542     -416.06599      0              5262.3884      30.933001      21.326696      32.739052      21597.91       3368.7725      7295.9808      5122.4119     -688.27195     -1039.2369     -708.63017    
  53818000   245.23937     -414.5857      -332.45183     -414.55056      0              6657.8038      30.933001      21.326696      32.558523      21478.815      6832.4814      6100.94        7039.99       -1241.5613      501.0169      -1070.1646    
  53820000   249.70825     -413.96685     -330.33631     -413.94668      0              6460.9679      30.933001      21.326696      32.537922      21465.225      5742.6012      6280.1579      7360.1447     -870.41253     -342.27394      1044.6273    
  53822000   250.82401     -413.3494      -329.34517     -413.31462      0              6799.9515      30.933001      21.326696      32.565065      21483.131      6829.0967      6228.5496      7342.2083      562.18247     -1323.9613      1533.1534    
  53824000   256.4012      -416.61114     -330.73904     -416.59161      0              6192.3073      30.933001      21.326696      32.527418      21458.296      6240.084       5303.8921      7032.9456     -101.09078     -1660.3768      1303.5217    
  53826000   252.24882     -413.24062     -328.7592      -413.21606      0              7825.3381      30.933001      21.326696      32.4804        21427.278      7723.4571      8421.1859      7331.3715      491.00876     -244.59155     -1018.5655    
  53828000   251.17177     -414.45503     -330.33433     -414.43515      0              6547.2158      30.933001      21.326696      32.501759      21441.369      7125.1612      7289.3727      5227.1137      147.45048      1934.192       877.33274    
  53830000   246.01301     -414.86107     -332.4681      -414.83625      0              4759.1645      30.933001      21.326696      32.52123       21454.213      5398.3239      4877.3591      4001.8105      1037.4455      1169.8326      1475.3842    
  53832000   253.38682     -414.02151     -329.15896     -414.0045       0              6944.3034      30.933001      21.326696      32.62858       21525.032      6766.8127      6368.7443      7697.3531      352.4486       266.53557      117.43219    
  53834000   245.27166     -413.64215     -331.49747     -413.61414      0              6132.831       30.933001      21.326696      32.665153      21549.159      6503.8574      5497.4956      6397.1401     -843.76203      514.9536       1031.3202    
  53836000   247.50616     -414.96612     -332.07308     -414.94314      0              6227.4178      30.933001      21.326696      32.591374      21500.487      5866.1102      6236.2707      6579.8723     -243.50143     -313.74162      401.51305    
  53838000   255.62925     -416.78264     -331.16907     -416.75011      0              6073.7583      30.933001      21.326696      32.648261      21538.015      5391.7         6061.7738      6767.8012     -1244.0791     -631.38737     -1136.0234    
  53840000   248.75943     -417.33258     -334.01981     -417.303        0              6082.4486      30.933001      21.326696      32.531877      21461.237      4729.138       7258.1757      6260.032       311.63023     -29.712935      791.2744     
  53842000   248.79732     -419.23578     -335.91032     -419.20904      0              5739.3976      30.933001      21.326696      32.470721      21420.893      4954.7017      6077.5721      6185.9191      428.39397      1012.6692      1246.6641    
  53844000   249.63549     -415.57602     -331.96984     -415.54176      0              4633.9028      30.933001      21.326696      32.573043      21488.394      3391.5206      5302.9178      5207.27        834.42358      81.051589      1259.4294    
  53846000   250.25406     -415.97503     -332.16169     -415.95329      0              6424.6601      30.933001      21.326696      32.557015      21477.821      6236.7737      7355.5578      5681.6488      751.81147     -385.12632      1290.6182    
  53848000   250.93394     -419.20097     -335.15992     -419.19118      0              6320.2869      30.933001      21.326696      32.515909      21450.703      4678.298       6216.6343      8065.9282      1413.2069      3347.0376      1132.2011    
  53850000   251.00046     -414.8137      -330.75038     -414.77897      0              6332.4898      30.933001      21.326696      32.668029      21551.056      7786.5436      3079.6184      8131.3072     -994.15644     -538.81666      2067.1272    
  53852000   248.47477     -418.04592     -334.82848     -418.01806      0              3701.0287      30.933001      21.326696      32.652039      21540.508      2926.913       3316.2396      4859.9334     -1376.1699     -362.42288      270.84822    
  53854000   246.73251     -415.49116     -332.85723     -415.46634      0              7237.5285      30.933001      21.326696      32.53789       21465.204      6447.5604      9898.2736      5366.7513     -883.84053      903.60466     -511.64778    
  53856000   249.35939     -417.93052     -334.41681     -417.91404      0              7332.7323      30.933001      21.326696      32.597966      21504.836      8005.1824      6048.7909      7944.2236     -371.79355      2003.9731     -627.90167    
  53858000   246.94498     -418.49378     -335.78869     -418.47489      0              4468.7355      30.933001      21.326696      32.639605      21532.305      4590.4083      4224.9828      4590.8153     -449.42205      443.20279     -321.99875    
  53860000   246.72027     -413.09604     -330.46621     -413.06149      0              7256.4156      30.933001      21.326696      32.8162        21648.805      9202.3248      7816.9926      4749.9294     -1054.9441     -122.04586     -944.42438    
  53862000   246.99443     -416.24446     -333.5228      -416.2094       0              5232.9235      30.933001      21.326696      32.677391      21557.233      5414.3146      5272.8878      5011.5681      774.96885      1670.3947      889.37381    
  53864000   253.11047     -414.42029     -329.65029     -414.38738      0              4802.1005      30.933001      21.326696      32.68553       21562.602      6131.8577      2878.324       5396.1198      1297.4305      644.04024      1768.6905    
  53866000   252.4044      -416.7315      -332.19798     -416.70675      0              7422.4403      30.933001      21.326696      32.711517      21579.746      7868.3862      7535.5021      6863.4326      15.567147      1656.552       751.35709    
  53868000   247.61748     -416.62527     -333.69495     -416.5894       0              6350.789       30.933001      21.326696      32.689162      21564.998      5926.548       7205.1066      5920.7125     -105.49133      596.96257      424.65603    
  53870000   248.45148     -415.45047     -332.24083     -415.41542      0              4955.6151      30.933001      21.326696      32.736097      21595.961      5648.9078      4092.2048      5125.7327      497.52959      756.87208      1160.1866    
  53872000   245.09547     -416.07289     -333.98722     -416.05222      0              7432.2398      30.933001      21.326696      32.571345      21487.274      7637.532       7316.2871      7342.9002     -223.46335      473.03679      930.10751    
  53874000   250.4215      -415.1737      -331.30427     -415.16695      0              6794.6062      30.933001      21.326696      32.487354      21431.865      5564.6226      5634.3277      9184.8684      1875.3049      1437.3537      2166.9367    
  53876000   251.51514     -417.30073     -333.06503     -417.29022      0              5766.8852      30.933001      21.326696      32.608173      21511.57       4725.4874      4981.6732      7593.4949      426.9641       1191.6619      1594.6468    
  53878000   248.31688     -412.84807     -329.68351     -412.82134      0              6903.7896      30.933001      21.326696      32.602005      21507.501      6663.7186      6475.3609      7572.2893      380.54018     -506.2895       527.77178    
  53880000   248.45721     -416.01322     -332.80166     -415.99132      0              5384.8125      30.933001      21.326696      32.574504      21489.358      6567.1745      4741.4167      4845.8464     -1569.4159      84.732558      204.81408    
  53882000   250.28219     -414.12174     -330.29897     -414.10592      0              6276.163       30.933001      21.326696      32.437676      21399.093      6729.4485      6635.9937      5463.047       1540.597       941.29439     -724.71982    
  53884000   252.11662     -417.58352     -333.14638     -417.56793      0              5541.9108      30.933001      21.326696      32.497326      21438.444      4784.8401      5458.3766      6382.5156      25.078853      1463.2446      1542.5887    
  53886000   248.83666     -412.53369     -329.19505     -412.52813      0              6478.0984      30.933001      21.326696      32.506731      21444.649      5209.8761      8013.4641      6210.9549      211.58864      831.5724       114.48748    
  53888000   244.676       -416.0287      -334.08351     -415.99933      0              6487.0871      30.933001      21.326696      32.406271      21378.375      6259.76        6761.5435      6439.9579     -68.197077     -969.28168      1511.6335    
  53890000   247.64273     -415.18925     -332.25047     -415.17263      0              6872.8426      30.933001      21.326696      32.458293      21412.694      7557.5622      8395.7515      4665.2141      1685.1809     -734.36612     -611.27502    
  53892000   251.3355      -412.84405     -328.66852     -412.82143      0              6981.3245      30.933001      21.326696      32.544675      21469.68       7439.2096      4819.868       8684.8959      747.19439      955.62357     -1153.9057    
  53894000   249.95327     -417.60806     -333.89546     -417.59283      0              6764.9756      30.933001      21.326696      32.490721      21434.087      6258.5408      6351.8257      7684.5605     -1380.0018      372.12103     -820.14546    
  53896000   246.44252     -418.52489     -335.98808     -418.49782      0              5979.6263      30.933001      21.326696      32.61298       21514.741      5993.9749      7066.5652      4878.3388      341.75699     -362.94122     -1099.783     
  53898000   249.03567     -414.6072      -331.20191     -414.60013      0              5077.3444      30.933001      21.326696      32.710824      21579.288      4184.39        6640.7612      4406.8821     -1470.1989      1013.3973     -2931.7096    
  53900000   249.3613      -413.96147     -330.44712     -413.93903      0              6025.2639      30.933001      21.326696      32.684025      21561.609      5432.5205      5184.299       7458.9721     -38.790727      982.5457       857.51972    
  53902000   249.06823     -416.90767     -333.49147     -416.88318      0              4491.7374      30.933001      21.326696      32.570337      21486.609      3515.6726      3743.9492      6215.5903     -548.62139     -858.1798      -1133.9485    
  53904000   247.46647     -414.23564     -331.35589     -414.21919      0              9553.6601      30.933001      21.326696      32.183708      21231.551      10317.37       8268.3477      10075.262      699.39989     -604.337        800.23341    
  53906000   254.59365     -416.02252     -330.75579     -416.00753      0              5859.6415      30.933001      21.326696      32.328099      21326.805      5877.7594      4792.582       6908.583      -300.19776     -724.82371      2262.3619    
  53908000   254.37211     -413.45533     -328.26279     -413.43804      0              6646.1158      30.933001      21.326696      32.416971      21385.434      5393.4555      6843.1666      7701.7255      1227.8809      1837.0829     -621.54518    
  53910000   256.1924      -412.96392     -327.16175     -412.92897      0              5842.5913      30.933001      21.326696      32.56476       21482.93       5461.5927      6177.4803      5888.7008      946.97005     -620.59853     -611.80194    
  53912000   254.3163      -414.4745      -329.30065     -414.45037      0              6279.9653      30.933001      21.326696      32.597953      21504.828      6999.2056      6607.2301      5233.4603     -408.52255     -69.221035     -1930.5498    
  53914000   246.14807     -412.73642     -330.29822     -412.70382      0              7070.1161      30.933001      21.326696      32.58884       21498.816      8869.968       5063.3842      7276.996      -621.44646      912.34279     -113.7343     
  53916000   260.03993     -414.83206     -327.74129     -414.82129      0              5940.0863      30.933001      21.326696      32.433124      21396.09       6166.7211      5849.4377      5804.1         477.52095     -1058.7448     -1019.2264    
  53918000   246.86754     -412.72655     -330.04739     -412.69853      0              5602.5437      30.933001      21.326696      32.728537      21590.974      4662.8571      6776.8579      5367.9163      344.32245      388.38574     -1769.901     
  53920000   254.35254     -414.84582     -329.65984     -414.8247       0              7132.9317      30.933001      21.326696      32.707272      21576.945      7947.3368      6900.4207      6551.0376      128.1536      -686.5405       329.65281    
  53922000   244.68052     -416.26687     -334.32017     -416.25329      0              4348.3352      30.933001      21.326696      32.478231      21425.847      4745.394       3496.2271      4803.3845      737.42603     -2607.8224     -1098.8846    
  53924000   246.90235     -417.96477     -335.27395     -417.95471      0              8127.7253      30.933001      21.326696      32.161543      21216.928      9286.7666      7394.1543      7702.2549     -1285.0298     -516.26247     -1559.1275    
  53926000   251.44312     -415.49474     -331.28316     -415.47662      0              5481.7393      30.933001      21.326696      32.25505       21278.615      4529.7648      7190.4906      4724.9626     -310.27111     -751.32632     -1687.8328    
  53928000   249.25803     -414.33538     -330.85562     -414.30529      0              3635.8137      30.933001      21.326696      32.474682      21423.506      3080.7095      4866.159       2960.5727      389.3081      -333.8657      -1839.9344    
  53930000   248.54927     -415.31518     -332.07279     -415.28266      0              6595.0508      30.933001      21.326696      32.59037       21499.825      6564.5672      6163.2498      7057.3353      598.47242     -1294.7775      1066.5926    
  53932000   249.31927     -415.66377     -332.1635      -415.64333      0              6981.637       30.933001      21.326696      32.717452      21583.661      8086.9058      6453.4535      6404.5516      503.2478      -505.74932      95.165114    
  53934000   250.95721     -417.9447      -333.89586     -417.92553      0              4457.4346      30.933001      21.326696      32.626849      21523.89       5716.1307      4611.3137      3044.8596     -797.67461      42.508539     -282.76357    
  53936000   255.1694      -416.49029     -331.03073     -416.47736      0              5628.2631      30.933001      21.326696      32.493402      21435.856      5685.9009      4736.101       6462.7875      493.01625     -969.51237      680.59601    
  53938000   246.63539     -414.43464     -331.83324     -414.4138       0              4315.538       30.933001      21.326696      32.551199      21473.984      4675.8964      3581.8063      4688.9114     -598.58892     -296.57608      264.03631    
  53940000   246.54692     -416.02362     -333.45184     -415.9979       0              5736.3212      30.933001      21.326696      32.519956      21453.373      4862.3622      7072.9325      5273.669      -1225.3431      68.876231      1661.8394    
  53942000   251.04237     -415.72191     -331.64455     -415.71769      0              6895.6495      30.933001      21.326696      32.493379      21435.84       6154.5085      7078.0757      7454.3643      20.2074       -864.29775      786.4463     
  53944000   250.62775     -416.91746     -332.97896     -416.90739      0              6989.3384      30.933001      21.326696      32.421174      21388.207      6456.1406      6361.6157      8150.2588      1419.9352     -1959.418       2514.7503    
  53946000   249.64835     -414.19462     -330.58414     -414.18581      0              6701.8644      30.933001      21.326696      32.475418      21423.991      5027.9467      7937.3291      7140.3173     -1077.8699     -306.75954     -872.88483    
  53948000   247.47285     -414.77634     -331.89446     -414.75564      0              6239.2769      30.933001      21.326696      32.32091       21322.062      7854.0159      3319.7692      7544.0456     -1265.1852      1802.743      -35.85656     
  53950000   253.69947     -414.32578     -329.35852     -414.30851      0              5931.1303      30.933001      21.326696      32.396098      21371.664      5736.5661      4802.5017      7254.3231     -1096.4901     -2011.273      -344.6214     
  53952000   248.87029     -414.76642     -331.41652     -414.75688      0              8469.5068      30.933001      21.326696      32.501722      21441.344      8301.0769      10652.882      6454.561       211.95184      545.98678      409.43566    
  53954000   247.86131     -416.95074     -333.93876     -416.95348      0              4468.3191      30.933001      21.326696      32.495951      21437.537      4148.6859      4650.1337      4606.1376      594.9528       180.43894      753.40235    
  53956000   247.75972     -415.59846     -332.6205      -415.59858      0              7302.3607      30.933001      21.326696      32.49446       21436.553      7710.4976      9056.4168      5140.1677     -1039.475      -1428.4673     -1519.26      
  53958000   248.13453     -414.98721     -331.88372     -414.96203      0              6204.9669      30.933001      21.326696      32.430704      21394.494      5611.1046      5689.8084      7313.9878     -948.77123     -1445.3215     -428.32641    
  53960000   248.89664     -416.28195     -332.92323     -416.27818      0              8969.3601      30.933001      21.326696      32.255951      21279.209      8451.1551      8568.8615      9888.0636      1084.7386     -529.33451     -17.549076    
  53962000   246.35918     -415.47629     -332.96739     -415.46321      0              5438.671       30.933001      21.326696      32.437386      21398.902      4028.4456      6072.38        6215.1874      405.03706     -138.7839       473.87623    
  53964000   247.5779      -414.93012     -332.01305     -414.90393      0              7551.0644      30.933001      21.326696      32.494639      21436.671      6542.4071      7453.6627      8657.1233      1145.1441      727.208       -250.64775    
  53966000   252.16028     -414.18553     -329.73376     -414.16959      0              8469.7414      30.933001      21.326696      32.324582      21324.485      11519.544      6901.2195      6988.4606      354.35513     -948.89596     -561.69917    
  53968000   256.14494     -415.09073     -329.30445     -415.064        0              5189.2323      30.933001      21.326696      32.474588      21423.444      6665.4684      5029.8509      3872.3774      645.16763     -829.01267     -278.88962    
  53970000   255.73429     -414.03633     -328.38759     -414.02277      0              8008.9839      30.933001      21.326696      32.50824       21445.644      9011.2711      8600.2971      6415.3836      241.46297     -2117.3906      268.69224    
  53972000   248.82378     -412.48717     -329.15284     -412.47419      0              7021.2421      30.933001      21.326696      32.464707      21416.925      7121.3724      7441.12        6501.2339      2064.9693     -1896.7818     -449.23621    
  53974000   246.99774     -417.14847     -334.42571     -417.12822      0              4533.2175      30.933001      21.326696      32.551179      21473.971      2547.9022      6465.6586      4586.0918      304.82938      53.48699      -890.31563    
  53976000   252.5147      -414.47087     -329.90041     -414.4534       0              4636.3435      30.933001      21.326696      32.718238      21584.18       4525.0512      4568.6104      4815.3689     -576.42347     -2003.2048      671.87862    
  53978000   243.98291     -414.47316     -332.7601      -414.454        0              5661.9675      30.933001      21.326696      32.585446      21496.576      4422.0576      5176.722       7387.1229     -2417.9774      86.892876      603.4376     
  53980000   248.28941     -418.42391     -335.26855     -418.40398      0              5614.4671      30.933001      21.326696      32.622111      21520.765      4388.9585      6864.4126      5590.0302     -517.48842      642.18457     -202.46842    
  53982000   248.05551     -417.89983     -334.82281     -417.88888      0              3604.7588      30.933001      21.326696      32.641956      21533.856      3963.2358      4702.4511      2148.5894      1412.0485      1378.7622      1816.327     
  53984000   243.58057     -417.54759     -335.96928     -417.52232      0              5106.1828      30.933001      21.326696      32.594151      21502.319      3904.5337      6817.6114      4596.4034      197.33756      941.16486     -617.04892    
  53986000   247.75238     -416.62139     -333.64589     -416.60138      0              6111.2512      30.933001      21.326696      32.644407      21535.473      7466.4859      4636.3108      6230.957      -90.986814     -796.8741       552.29128    
  53988000   246.33729     -414.28382     -331.78225     -414.24765      0              5164.9612      30.933001      21.326696      32.650498      21539.491      4657.3948      6322.0288      4515.4599     -277.78314     -1137.7159     -926.32921    
  53990000   254.99105     -417.14444     -331.74461     -417.12993      0              6725.8331      30.933001      21.326696      32.499203      21439.682      6504.2087      7146.0472      6527.2435      989.52896     -1349.0908     -1732.6398    
  53992000   256.34072     -417.22205     -331.3702      -417.1928       0              7229.4334      30.933001      21.326696      32.422675      21389.197      7016.7777      8890.0206      5781.5019     -827.04237     -589.62826      365.82948    
  53994000   252.13961     -417.35309     -332.90825     -417.326        0              7334.0876      30.933001      21.326696      32.420584      21387.817      7709.2306      6094.5717      8198.4606      503.68886     -2431.2938      221.31063    
  53996000   252.9596      -416.86648     -332.14701     -416.84934      0              7660.1596      30.933001      21.326696      32.427455      21392.35       8888.4925      7337.9586      6754.0276      1122.1665     -885.70491     -1038.7447    
  53998000   246.31641     -416.24597     -333.75139     -416.22106      0              6259.6214      30.933001      21.326696      32.546915      21471.158      7029.2965      6379.3135      5370.2542      668.92938      620.96063     -527.47042    
  54000000   258.81984     -417.06187     -330.37973     -417.03727      0              5946.09        30.933001      21.326696      32.645103      21535.932      6883.0977      4677.7527      6277.4195     -955.86153     -1108.1652     -922.2059     
  54002000   253.52437     -414.02246     -329.11384     -413.99592      0              5553.9712      30.933001      21.326696      32.533292      21462.171      3866.289       6236.301       6559.3237      918.03553      655.15469     -712.32083    
  54004000   257.61694     -416.64326     -330.36398     -416.61512      0              5498.5368      30.933001      21.326696      32.41538       21384.384      6108.1871      5046.6853      5340.7381     -1179.256       2122.7168     -1643.8831    
  54006000   253.34517     -415.65514     -330.80653     -415.6307       0              6976.575       30.933001      21.326696      32.450498      21407.551      5884.1458      8982.8785      6062.7008     -1899.7293      1449.6464      223.35152    
  54008000   247.1157      -414.97473     -332.21246     -414.94094      0              6216.0459      30.933001      21.326696      32.476334      21424.595      5135.4419      6796.6365      6716.0593      1931.2634      1379.3964     -146.27982    
  54010000   252.47169     -415.26527     -330.70921     -415.238        0              6295.8353      30.933001      21.326696      32.479907      21426.953      9317.3056      5258.9082      4311.2921      1561.9708     -2554.4716     -131.79482    
  54012000   259.20712     -417.03182     -330.21997     -416.99471      0              7110.1867      30.933001      21.326696      32.645905      21536.462      7632.3042      7306.12        6392.1357     -1045.2249     -252.26878      249.50819    
  54014000   246.43212     -416.01231     -333.47898     -415.97812      0              6066.6015      30.933001      21.326696      32.744556      21601.541      5561.3625      6957.7735      5680.6685     -113.05403      870.14409     -813.72483    
  54016000   246.34299     -419.19917     -336.69569     -419.17128      0              5413.173       30.933001      21.326696      32.636504      21530.26       5186.6962      5546.0973      5506.7257      368.63681      646.90719     -532.95816    
  54018000   252.93464     -417.39384     -332.68273     -417.36779      0              5579.4362      30.933001      21.326696      32.689662      21565.328      6241.6433      6964.5157      3532.1497      738.28289     -678.44747      549.80478    
  54020000   246.84961     -416.20836     -333.5352      -416.17339      0              5343.1572      30.933001      21.326696      32.67343       21554.619      5592.7859      4903.2652      5533.4206     -2659.9608      811.91498     -493.24872    
  54022000   249.66423     -415.59589     -331.98008     -415.54829      0              3706.1245      30.933001      21.326696      32.633364      21528.188      2073.7228      5662.2358      3382.4149      33.065479      39.089434     -1629.7151    
  54024000   245.68266     -418.48415     -336.20182     -418.43241      0              5320.5896      30.933001      21.326696      32.691446      21566.505      6403.5533      6418.9401      3139.2754      572.96944      202.96313      613.25387    
  54026000   246.50929     -420.27946     -337.72028     -420.27097      0              7191.096       30.933001      21.326696      32.623976      21521.995      6901.029       6021.9044      8650.3547      734.54762      241.45013     -340.84147    
  54028000   251.42962     -418.93835     -334.73129     -418.93101      0              5296.049       30.933001      21.326696      32.778641      21624.027      6499.62        4648.1061      4740.421       243.87416     -559.402        151.59581    
  54030000   249.30431     -417.38907     -333.89381     -417.36356      0              6031.3817      30.933001      21.326696      32.622765      21521.196      6611.905       6246.7773      5235.4629     -549.13902     -24.269642     -3137.6266    
  54032000   244.45216     -417.77935     -335.90914     -417.74532      0              5498.5276      30.933001      21.326696      32.642447      21534.18       5577.0316      6511.4346      4407.1165      3.1444041      1239.5483     -746.96667    
  54034000   243.50897     -414.66331     -333.10899     -414.64445      0              6439.3834      30.933001      21.326696      32.600277      21506.36       6128.97        5190.6255      7998.5549     -484.74374      1126.0785     -179.93126    
  54036000   247.27696     -418.95267     -336.13639     -418.92489      0              5070.9972      30.933001      21.326696      32.472588      21422.124      5124.7734      5331.9602      4756.2579     -617.1592      -101.34699      1729.7339    
  54038000   246.32282     -415.22484     -332.72812     -415.18945      0              8277.7446      30.933001      21.326696      32.687497      21563.899      7322.5951      8705.3497      8805.2892      705.76979     -79.099004      166.1326     
  54040000   242.14172     -417.6855      -336.58908     -417.6506       0              5023.3452      30.933001      21.326696      32.664503      21548.731      4981.7466      6561.3904      3526.8987     -304.63395      460.94578     -2543.7391    
  54042000   256.53819     -416.85757     -330.93959     -416.82208      0              6380.2402      30.933001      21.326696      32.653236      21541.298      6799.2476      6433.9856      5907.4875     -25.984671      606.36742     -768.0208     
  54044000   252.33237     -415.10796     -330.59856     -415.06423      0              5420.7387      30.933001      21.326696      32.57963       21492.74       4665.2805      5932.6795      5664.2562      81.275127      375.7446      -1017.2614    
  54046000   250.25157     -415.99675     -332.18423     -415.96367      0              7338.5478      30.933001      21.326696      32.597641      21504.622      5096.3482      10715.876      6203.4187      304.6595       505.70207     -723.74089    
  54048000   247.68554     -415.50455     -332.55143     -415.47411      0              3856.4575      30.933001      21.326696      32.59621       21503.678      2875.1962      6288.1607      2406.0155     -668.57735      167.45062     -1937.991     
  54050000   248.15754     -416.18029     -333.06909     -416.16386      0              8275.0499      30.933001      21.326696      32.389172      21367.095      9247.9026      8725.3305      6851.9166     -882.21402      338.91531     -2784.6736    
  54052000   250.00654     -416.21493     -332.48448     -416.18594      0              4001.3337      30.933001      21.326696      32.68897       21564.871      3360.2412      5531.4513      3112.3086     -621.01109      126.0184      -955.32207    
  54054000   246.08872     -414.6652      -332.24688     -414.63968      0              4298.2704      30.933001      21.326696      32.580627      21493.398      5259.162       3753.2099      3882.4392     -378.86673      1005.9296      328.10643    
  54056000   259.39699     -419.54958     -332.67414     -419.52178      0              6979.193       30.933001      21.326696      32.694948      21568.815      5862.8605      7680.1716      7394.5471      540.88795      2567.3004      584.06774    
  54058000   251.89321     -415.01591     -330.65359     -414.98014      0              7694.439       30.933001      21.326696      32.631161      21526.735      8251.4139      6209.2928      8622.6104      334.84042     -466.43293     -372.43879    
  54060000   250.75106     -418.51402     -334.53422     -418.48406      0              4924.767       30.933001      21.326696      32.637773      21531.097      5240.8644      7417.9745      2115.4621      1542.9334     -1163.2509     -541.34383    
  54062000   248.41461     -414.27875     -331.08146     -414.25894      0              7092.9056      30.933001      21.326696      32.366986      21352.459      9258.113       4691.8468      7328.7571      1572.2726      1311.791       1872.9615    
  54064000   253.74858     -416.9323      -331.94859     -416.90865      0              5961.0104      30.933001      21.326696      32.532404      21461.585      6175.3052      4399.5091      7308.2169      332.58115      547.98941      850.96771    
  54066000   244.5364      -414.66408     -332.76565     -414.62971      0              6572.6911      30.933001      21.326696      32.660371      21546.005      5942.3442      7092.03        6683.6991      446.14691     -156.26494     -1342.2817    
  54068000   259.7423      -417.5097      -330.51862     -417.46896      0              6243.1751      30.933001      21.326696      32.661258      21546.59       6600.0767      6120.8359      6008.6127     -1784.6842     -1101.9296      1412.0679    
  54070000   252.3069      -416.43705     -331.93618     -416.40197      0              4772.9775      30.933001      21.326696      32.640141      21532.659      5584.1432      3551.6024      5183.187      -905.30517      7.0486402     -110.47752    
  54072000   251.73563     -418.51862     -334.20908     -418.4894       0              5926.1447      30.933001      21.326696      32.59533       21503.097      5624.31        5110.9565      7043.1675     -176.06289     -751.75345      358.86609    
  54074000   253.1005      -418.84951     -334.08286     -418.82461      0              5694.4341      30.933001      21.326696      32.550353      21473.426      7106.6023      5607.2815      4369.4184     -482.28784     -951.28748      769.86662    
  54076000   246.11838     -415.98604     -333.55779     -415.96256      0              5359.1172      30.933001      21.326696      32.66054       21546.116      3906.1645      6879.2813      5291.9057     -219.35251     -469.22059      33.798932    
  54078000   244.27104     -413.75703     -331.94747     -413.71813      0              7828.3008      30.933001      21.326696      32.532598      21461.713      7182.9625      7242.3772      9059.5626     -583.69863     -1284.8062     -427.46626    
  54080000   246.81441     -416.19704     -333.53568     -416.15979      0              4408.4871      30.933001      21.326696      32.708514      21577.764      6608.2674      4255.1384      2362.0555     -134.10081      53.259121     -1202.0096    
  54082000   245.98533     -415.15534     -332.77165     -415.121        0              5782.8047      30.933001      21.326696      32.756799      21609.618      7200.9544      7317.6212      2829.8387      557.60893      1524.7545     -270.65012    
  54084000   247.96505     -417.14477     -334.09805     -417.11279      0              5449.8102      30.933001      21.326696      32.66253       21547.429      4366.3197      7489.5049      4493.606       194.74051      1701.3867     -551.48702    
  54086000   249.86038     -416.0826      -332.40111     -416.05696      0              7572.1519      30.933001      21.326696      32.555805      21477.022      8728.9864      5726.0603      8261.409      -865.02743      141.8205      -292.78609    
  54088000   250.98719     -417.30049     -333.24161     -417.27662      0              5268.4723      30.933001      21.326696      32.636355      21530.161      5315.8817      6438.986       4050.5491      427.98748      836.80128      714.3041     
  54090000   249.16864     -413.4103      -329.96048     -413.36781      0              6624.3397      30.933001      21.326696      32.685615      21562.658      5483.1268      7199.6515      7190.241       806.99672      1258.8903      194.65882    
  54092000   252.4244      -417.14593     -332.60571     -417.13058      0              6347.2791      30.933001      21.326696      32.549849      21473.094      4681.6029      8121.2289      6239.0054     -842.34171      1187.9221     -640.24038    
  54094000   253.50314     -420.03091     -335.1294      -420.01663      0              7368.4952      30.933001      21.326696      32.636424      21530.206      7928.322       4693.6846      9483.479      -1494.8706     -156.40231     -659.57531    
  54096000   247.92004     -414.59425     -331.56259     -414.55954      0              6212.0582      30.933001      21.326696      32.600076      21506.228      5515.2388      4564.6362      8556.2996      1797.574       1181.6922     -436.37058    
  54098000   251.41812     -414.97147     -330.76826     -414.94828      0              5907.6249      30.933001      21.326696      32.449959      21407.196      4452.6287      6328.1695      6942.0767     -1846.3629      660.00246      215.46952    
  54100000   247.9607      -415.05334     -332.00807     -415.02483      0              5992.0199      30.933001      21.326696      32.561535      21480.803      6921.2221      5501.8215      5553.0162      2121.4593      1038.2244     -364.40949    
  54102000   245.63882     -415.78277     -333.51513     -415.76481      0              5792.9017      30.933001      21.326696      32.511994      21448.12       6962.2208      4661.523       5754.9612     -57.45745       1142.4247     -562.32101    
  54104000   251.19725     -416.86481     -332.73558     -416.84327      0              5360.0434      30.933001      21.326696      32.577064      21491.047      5559.2739      5161.8925      5358.9638      217.71759     -2247.4668      120.17624    
  54106000   250.18274     -415.73785     -331.94839     -415.70321      0              7436.571       30.933001      21.326696      32.557453      21478.11       7075.5503      7462.768       7771.3946     -869.37285      1759.8062      1398.701     
  54108000   249.76454     -414.68592     -331.03652     -414.66406      0              7064.7735      30.933001      21.326696      32.497911      21438.83       7498.7768      5129.2262      8566.3175     -1074.0024      1389.8641     -2090.2714    
  54110000   256.40518     -419.26065     -333.38721     -419.22595      0              6689.6858      30.933001      21.326696      32.556739      21477.638      5506.2669      7496.8637      7065.9267      620.71069      614.00098      253.22934    
  54112000   249.01596     -414.52886     -331.13017     -414.4974       0              4883.7452      30.933001      21.326696      32.578839      21492.218      3545.7779      3974.202       7131.2559      593.02433     -231.25125      978.40937    
  54114000   245.46386     -414.72647     -332.51742     -414.70298      0              5680.4281      30.933001      21.326696      32.500571      21440.585      4560.9971      7368.2614      5112.0258      885.10385     -1208.9759     -649.77959    
  54116000   249.53707     -416.3721      -332.79888     -416.35055      0              4776.1623      30.933001      21.326696      32.450516      21407.564      5044.5728      5452.598       3831.3163     -677.16492     -1599.9447     -1637.0315    
  54118000   246.09101     -419.01204     -336.59295     -418.9941       0              8155.9839      30.933001      21.326696      32.414377      21383.723      8956.3516      9660.5071      5851.0932      513.19661      776.12984     -1010.4015    
  54120000   248.44988     -416.15228     -332.94317     -416.12073      0              4450.1885      30.933001      21.326696      32.58868       21498.71       5728.4392      3045.8033      4576.323       695.29086      425.69235      1102.4717    
  54122000   243.81495     -417.82292     -336.16612     -417.80108      0              6261.2482      30.933001      21.326696      32.547093      21471.275      4695.4532      7266.2139      6822.0774     -552.65072     -267.4808      -236.74374    
  54124000   252.22504     -416.1673      -331.69384     -416.14189      0              6509.9202      30.933001      21.326696      32.558472      21478.782      6074.2527      7995.0099      5460.4979      1405.1727     -86.479098      40.860805    
  54126000   258.32774     -416.1443      -329.62697     -416.1103       0              7768.2496      30.933001      21.326696      32.364829      21351.036      7895.1895      9113.6743      6295.8851      286.32925     -972.69121     -3125.2913    
  54128000   252.49862     -417.50305     -332.93797     -417.47602      0              5084.4722      30.933001      21.326696      32.488631      21432.708      6022.8348      3607.0711      5623.5107     -664.34707      124.29388      866.29432    
  54130000   253.82374     -416.33766     -331.32878     -416.31104      0              5821.077       30.933001      21.326696      32.494474      21436.562      7774.7757      5293.0676      4395.3877      52.717115      1233.389       1124.7055    
  54132000   251.65356     -417.6925      -333.41044     -417.66758      0              5704.6688      30.933001      21.326696      32.400657      21374.672      5117.584       6074.3062      5922.1162      278.43862      765.06657     -685.85968    
  54134000   244.30968     -416.72806     -334.90557     -416.70519      0              5688.8168      30.933001      21.326696      32.528923      21459.289      4725.0532      6995.2732      5346.124      -333.71515      1131.9689      537.32094    
  54136000   252.8871      -416.02991     -331.33472     -416.0167       0              5501.7555      30.933001      21.326696      32.694762      21568.692      6249.2698      4993.9611      5262.0356      425.90422     -984.07929      1450.4415    
  54138000   250.84044     -415.99106     -331.98133     -415.96817      0              3995.2046      30.933001      21.326696      32.485736      21430.798      3535.6187      3908.5257      4541.4693      2020.5816     -1156.2633      1089.867     
  54140000   249.20718     -418.96014     -335.49741     -418.94184      0              5534.9835      30.933001      21.326696      32.533359      21462.215      5752.2881      5859.9218      4992.7407     -1221.2454      350.81731     -1656.6021    
  54142000   251.98586     -416.67498     -332.28163     -416.65462      0              3994.476       30.933001      21.326696      32.545053      21469.929      2969.7185      5607.2787      3406.4308      1044.4177     -153.12059      158.51803    
  54144000   259.98494     -415.3327      -328.26035     -415.30811      0              7013.0866      30.933001      21.326696      32.440509      21400.962      7346.9882      7139.4971      6552.7745     -575.82213      521.16565     -674.36059    
  54146000   250.7319      -416.57528     -332.6019      -416.5638       0              7022.0878      30.933001      21.326696      32.429894      21393.959      6626.4804      7419.3448      7020.4383      1031.9203     -19.528811     -2842.5936    
  54148000   252.60181     -415.24629     -330.64665     -415.2324       0              6717.6098      30.933001      21.326696      32.425981      21391.378      7411.3258      7451.6091      5289.8944      516.45013     -1111.0019      740.12394    
  54150000   257.56531     -413.9563      -327.69432     -413.93219      0              7863.3777      30.933001      21.326696      32.587029      21497.621      8395.2883      6547.5948      8647.25       -712.89587      509.55419     -477.87238    
  54152000   255.00125     -417.33085     -331.92761     -417.31597      0              5246.6585      30.933001      21.326696      32.59455       21502.583      5412.6598      7497.6768      2829.6389      447.40352     -360.20091     -713.44911    
  54154000   241.91997     -414.9975      -333.97535     -414.97458      0              4076.4313      30.933001      21.326696      32.549611      21472.936      2775.2982      6409.0862      3044.9096      1412.396      -627.23964     -225.48746    
  54156000   253.73834     -415.00883     -330.02855     -415.00056      0              5736.1618      30.933001      21.326696      32.541741      21467.744      7045.7579      5336.0924      4826.6351      483.81755      597.91553     -1656.8543    
  54158000   248.68691     -416.07242     -332.78393     -416.05984      0              4820.6428      30.933001      21.326696      32.432652      21395.779      6135.5827      3885.523       4440.8227     -146.15176      590.48179     -1139.4172    
  54160000   254.44024     -415.94782     -330.73247     -415.93219      0              7010.6191      30.933001      21.326696      32.409073      21380.224      6578.4201      5904.9003      8548.537      -334.9619       376.65221     -50.695788    
  54162000   250.32325     -418.24604     -334.40952     -418.23238      0              4177.5323      30.933001      21.326696      32.503005      21442.191      4266.4039      4829.6664      3436.5266     -160.4733       1607.3781     -1401.99      
  54164000   246.62879     -414.48766     -331.88847     -414.46514      0              8276.6413      30.933001      21.326696      32.663224      21547.886      8892.9723      9367.1905      6569.761       593.48468      92.875898     -234.42835    
  54166000   245.17209     -414.60196     -332.49063     -414.57476      0              3620.2031      30.933001      21.326696      32.588319      21498.472      3378.8503      4233.1838      3248.5753      302.21406      1373.2658     -777.59417    
  54168000   258.57786     -416.00548     -329.40438     -415.98432      0              5353.17        30.933001      21.326696      32.459587      21413.547      4891.803       5888.5813      5279.1256     -455.16459     -811.9997       63.096028    
  54170000   254.34926     -415.54678     -330.36189     -415.53923      0              6665.4517      30.933001      21.326696      32.489642      21433.375      8075.6903      4630.9992      7289.6655      852.89867      2184.2887     -641.86881    
  54172000   243.7874      -416.90475     -335.25717     -416.90201      0              6379.2822      30.933001      21.326696      32.397105      21372.328      7544.0851      5740.0061      5853.7554     -923.35018      1058.0683     -1401.5852    
  54174000   256.15435     -416.51587     -330.72644     -416.49114      0              7266.8256      30.933001      21.326696      32.606647      21510.563      8829.4885      6864.2568      6106.7315      891.54523     -1376.0246     -1389.7595    
  54176000   247.41375     -416.93178     -334.06969     -416.92226      0              5064.944       30.933001      21.326696      32.568767      21485.573      5606.1265      2936.174       6652.5315     -805.12933      1239.5645      1106.3072    
  54178000   246.55211     -417.36762     -334.7941      -417.36082      0              7182.3778      30.933001      21.326696      32.437437      21398.935      8349.1817      5600.7595      7597.1922      42.307843      10.503935     -50.569721    
  54180000   249.83467     -417.3046      -333.63172     -417.3078       0              9199.9964      30.933001      21.326696      32.494835      21436.801      10616.682      7518.5514      9464.7556     -254.56095      448.35969      203.62304    
  54182000   251.71999     -416.79409     -332.48978     -416.78831      0              5838.5842      30.933001      21.326696      32.46048       21414.137      3265.1168      6977.5086      7273.1273      1676.2487     -321.0565      -993.12117    
  54184000   252.07841     -417.95724     -333.5329      -417.96407      0              7536.2305      30.933001      21.326696      32.581745      21494.135      9381.1456      6412.3207      6815.2251     -1055.8748      644.39486     -617.15618    
  54186000   247.83515     -416.99866     -333.99544     -416.99063      0              3508.0043      30.933001      21.326696      32.546558      21470.922      4099.0844      2441.5424      3983.3861      748.73118      1351.7521      784.80876    
  54188000   248.97008     -418.83936     -335.45603     -418.8317       0              5636.0117      30.933001      21.326696      32.714488      21581.705      6492.3555      4776.0051      5639.6745      1695.066      -48.762994      2421.9626    
  54190000   255.88179     -417.49318     -331.79503     -417.46969      0              4528.1285      30.933001      21.326696      32.600102      21506.245      4021.8356      5961.0889      3601.4609     -1088.9473      84.110033     -90.871571    
  54192000   249.66704     -418.48983     -334.87309     -418.48405      0              6260.1653      30.933001      21.326696      32.492911      21435.532      5501.4637      7403.8022      5875.2299      1626.5283      1131.6642      67.382739    
  54194000   249.49993     -417.8072      -334.24642     -417.79296      0              6602.6018      30.933001      21.326696      32.372187      21355.89       5834.8205      4617.6675      9355.3174     -2014.4571     -1019.8039     -796.23641    
  54196000   255.15554     -417.20176     -331.74684     -417.18989      0              4771.0104      30.933001      21.326696      32.644247      21535.367      5674.9474      5336.0308      3302.0528      140.02262     -41.455186      254.33267    
  54198000   250.23033     -416.53179     -332.72639     -416.52568      0              5684.8158      30.933001      21.326696      32.344891      21337.883      4195.2953      4401.8866      8457.2656     -872.24812      1774.322       1413.9567    
  54200000   241.82282     -416.11658     -335.12696     -416.11501      0              7096.2738      30.933001      21.326696      32.439427      21400.248      7966.9261      7141.3006      6180.5946     -988.42138      18.258086     -1105.0989    
  54202000   253.22592     -415.78845     -330.97979     -415.79118      0              6816.8013      30.933001      21.326696      32.517648      21451.85       6483.0823      6803.574       7163.7476     -868.80641      2282.729       601.505      
  54204000   249.97123     -415.23708     -331.51846     -415.22476      0              4154.622       30.933001      21.326696      32.523027      21455.399      5911.8016      4705.8719      1846.1925      145.58241     -642.84103      669.77254    
[...]
  61120000   246.57655     -418.93785     -336.35615     -418.94361      0              5845.3783      30.933001      21.326696      32.501501      21441.198      6608.2351      4579.8184      6348.0813     -1621.482       217.98489     -957.11564    
  61122000   242.79048     -418.34305     -337.02935     -418.35449      0              7653.3759      30.933001      21.326696      32.46069       21414.276      7866.4713      8546.5029      6547.1534     -266.65983      412.43707     -638.10054    
  61124000   249.50557     -419.6461      -336.08343     -419.69636      0              7864.8612      30.933001      21.326696      32.443209      21402.743      6941.1665      8672.6023      7980.8148      1553.1038      331.99402     -2226.7384    
  61126000   253.92284     -419.47208     -334.43001     -419.50272      0              7237.5651      30.933001      21.326696      32.641266      21533.401      7209.5195      8404.63        6098.5459     -260.30894      661.43591     -1206.6723    
  61128000   248.85845     -418.11482     -334.76889     -418.13331      0              5427.4568      30.933001      21.326696      32.661358      21546.656      5514.4139      3783.3875      6984.569      -97.56827      -433.44037     -340.20523    
  61130000   249.27714     -419.24331     -335.75715     -419.26703      0              6092.8179      30.933001      21.326696      32.678029      21557.653      5106.7554      7432.0406      5739.6576      942.5158      -905.01613     -2059.1433    
  61132000   255.21081     -418.01588     -332.54246     -418.04197      0              7545.9796      30.933001      21.326696      32.611352      21513.667      7755.8061      6524.1146      8358.0181      164.64886     -400.28929     -999.1981     
  61134000   243.55416     -419.25817     -337.6887      -419.2761       0              6342.0652      30.933001      21.326696      32.610805      21513.306      3341.4613      9533.4441      6151.2903     -1608.6486     -645.37893     -248.59996    
  61136000   250.47038     -417.20148     -333.31568     -417.22704      0              6115.4415      30.933001      21.326696      32.627464      21524.296      8107.0383      6208.3257      4030.9605     -294.82052     -1885.479       1197.2818    
  61138000   254.19087     -419.62683     -334.49499     -419.6533       0              7021.1239      30.933001      21.326696      32.527615      21458.426      7041.1566      6214.5839      7807.631       1071.1155     -353.40827      1634.3906    
  61140000   245.38437     -417.71442     -335.53199     -417.74269      0              7101.3396      30.933001      21.326696      32.411704      21381.96       7298.5557      8440.4287      5565.0342     -2465.0534     -751.21197     -1002.7933    
  61142000   255.57664     -416.018       -330.42205     -416.03614      0              7449.3738      30.933001      21.326696      32.469334      21419.978      8101.8305      6656.3461      7589.9447      28.767329      1220.5349     -1140.8587    
  61144000   248.93395     -418.56832     -335.19709     -418.57994      0              5635.5525      30.933001      21.326696      32.524302      21456.24       6936.5809      4614.7398      5355.3368     -55.41382      -2327.9333     -1068.4684    
  61146000   246.59329     -415.73782     -333.15051     -415.72346      0              5756.6745      30.933001      21.326696      32.472593      21422.128      6241.969       5427.9469      5600.1076      712.28761     -546.0882       1259.9072    
  61148000   245.30349     -414.86551     -332.71018     -414.86878      0              6216.1309      30.933001      21.326696      32.553695      21475.63       5106.8943      6158.6012      7382.897       1559.187       580.87086      310.42672    
  61150000   245.05557     -419.02445     -336.95214     -419.04724      0              6647.5128      30.933001      21.326696      32.247119      21273.383      6239.2536      7541.4056      6161.8793      263.11968     -766.41028     -370.16958    
  61152000   249.22079     -415.97852     -332.51123     -416.0003       0              7099.0565      30.933001      21.326696      32.321962      21322.757      5021.8743      6721.9043      9553.3908      1012.9846     -1026.8091      1250.3771    
  61154000   247.20608     -416.88801     -334.09547     -416.90381      0              6263.3079      30.933001      21.326696      32.437411      21398.918      4784.2454      6429.7579      7575.9204      612.38387      325.72961      2127.1021    
  61156000   244.17642     -416.6332      -334.85533     -416.64948      0              4849.0296      30.933001      21.326696      32.353755      21343.73       3499.3333      3698.906       7348.8496      453.44849      601.71337      2400.9366    
  61158000   251.44021     -417.65479     -333.44418     -417.66805      0              5423.9409      30.933001      21.326696      32.545536      21470.248      5254.8969      6409.9674      4606.9583     -989.93756      1697.5242     -125.25607    
  61160000   241.98298     -416.64145     -335.5982      -416.66058      0              4367.1682      30.933001      21.326696      32.701101      21572.874      4277.6952      5385.7366      3438.0727     -732.73692     -1199.5914      1128.2424    
  61162000   257.4942      -418.27654     -332.03838     -418.28282      0              7798.1262      30.933001      21.326696      32.668558      21551.405      7861.412       7729.3716      7803.5949      489.25965      890.31844      635.94542    
  61164000   250.92588     -413.94451     -329.90616     -413.94825      0              4009.607       30.933001      21.326696      32.603716      21508.629      3522.6642      3905.0346      4601.1223      1616.6416      425.40225      643.60502    
  61166000   250.30821     -419.09383     -335.26234     -419.11721      0              4950.3704      30.933001      21.326696      32.618196      21518.182      6835.2871      3923.7778      4092.0461      1448.9885     -343.94873      1104.9668    
  61168000   251.22114     -419.36998     -335.23275     -419.39376      0              8074.2856      30.933001      21.326696      32.635271      21529.446      9134.3862      7056.8151      8031.6554      785.71442      357.40636     -1068.1052    
  61170000   248.73961     -419.98999     -336.68385     -420.00446      0              5449.1207      30.933001      21.326696      32.574376      21489.274      5094.2746      7066.3692      4186.7184     -508.30944      244.47413     -282.0107     
  61172000   251.66429     -416.08182     -331.79616     -416.09592      0              8100.491       30.933001      21.326696      32.623506      21521.685      6220.3914      8128.5373      9952.5443      1306.0773     -470.63677      1076.259     
  61174000   244.35143     -417.35551     -335.51903     -417.42414      0              6936.628       30.933001      21.326696      32.574481      21489.343      7659.486       7634.5808      5515.8174     -768.70794     -940.95525     -427.17826    
  61176000   254.78228     -417.67988     -332.34998     -417.70046      0              4087.8596      30.933001      21.326696      32.70976       21578.587      3322.8584      4132.7397      4807.9807      127.94997      714.57319      1239.4844    
  61178000   249.77212     -418.97578     -335.32385     -418.99482      0              6299.2054      30.933001      21.326696      32.589298      21499.117      5298.9708      6202.3861      7396.2592     -220.39543      1072.3459      494.95977    
  61180000   250.24961     -419.75588     -335.94403     -419.77373      0              6948.9216      30.933001      21.326696      32.493603      21435.988      4524.1635      8710.3144      7612.2869      729.6189       749.61715      593.62204    
  61182000   246.89301     -420.74287     -338.05518     -420.76754      0              6611.8949      30.933001      21.326696      32.463641      21416.222      6655.8588      5703.5575      7476.2685     -896.43106     -419.29199     -612.71008    
  61184000   243.94746     -416.37821     -334.67702     -416.39751      0              4758.0207      30.933001      21.326696      32.458909      21413.101      4040.6334      6036.6325      4196.7961     -133.68328     -575.26327      2084.7482    
  61186000   249.93677     -415.91763     -332.21054     -415.94061      0              8898.5845      30.933001      21.326696      32.454777      21410.375      9926.1505      8970.3151      7799.288      -778.60165     -1322.3379     -1016.9794    
  61188000   251.26368     -416.59154     -332.44006     -416.61463      0              4220.5073      30.933001      21.326696      32.655515      21542.801      5065.5961      3349.147       4246.7788      313.66768      915.31062      204.99125    
  61190000   244.84835     -416.17261     -334.16971     -416.19605      0              5380.9173      30.933001      21.326696      32.496894      21438.159      4993.0843      5563.3578      5586.3099      263.31104     -1331.1199      86.645641    
  61192000   248.4048      -417.1031      -333.9091      -417.11606      0              8171.8325      30.933001      21.326696      32.494141      21436.343      8227.5881      8154.8729      8133.0365     -325.09856      487.49499      209.48205    
  61194000   256.45756     -416.97995     -331.08897     -417.0342       0              7759.8029      30.933001      21.326696      32.464533      21416.811      7665.3786      7917.6629      7696.3671     -1348.8281      1037.8097      1293.7959    
  61196000   247.55276     -418.50151     -335.59286     -418.52344      0              5879.4346      30.933001      21.326696      32.54097       21467.236      6791.3649      5604.0653      5242.8735      810.4945      -138.96937     -1083.8607    
  61198000   253.13951     -418.513       -333.73328     -418.53913      0              6129.2447      30.933001      21.326696      32.534795      21463.162      7049.5466      7128.8761      4209.3114     -1569.8691      721.69406     -1.4783523    
  61200000   251.71646     -419.5695      -335.26637     -419.59983      0              7280.0682      30.933001      21.326696      32.572251      21487.872      6225.781       7620.0059      7994.4178      1148.8752      1219.3396      85.414273    
  61202000   253.12305     -420.26142     -335.48721     -420.27422      0              6442.6868      30.933001      21.326696      32.830699      21658.369      6121.4344      6410.4219      6796.2041      29.579845      702.16612     -1036.2074    
  61204000   253.27383     -419.45419     -334.62948     -419.47765      0              3838.8918      30.933001      21.326696      32.686961      21563.546      3421.2671      6240.5783      1854.83        480.8435       261.41918      192.08578    
  61206000   247.40672     -422.10074     -339.24101     -422.12946      0              6246.0433      30.933001      21.326696      32.571503      21487.379      5728.7677      5540.5286      7468.8335      1325.3846      1940.99       -328.05072    
  61208000   243.42101     -416.56114     -335.03627     -416.57308      0              4761.2911      30.933001      21.326696      32.572433      21487.992      5740.4589      5207.5433      3335.8712      541.42369      1590.9603      1248.2178    
  61210000   251.33862     -420.47739     -336.30081     -420.48872      0              7171.6552      30.933001      21.326696      32.403834      21376.767      6957.2865      7546.9444      7010.7347     -636.06002      710.92119     -227.34592    
  61212000   251.81294     -420.33697     -336.00153     -420.35812      0              8007.6528      30.933001      21.326696      32.461763      21414.983      7184.149       9443.8785      7394.931       306.02121      1547.2526      112.63501    
  61214000   247.97286     -416.15223     -333.10288     -416.1718       0              5076.2231      30.933001      21.326696      32.606607      21510.537      5327.4219      6175.9669      3725.2805      714.33024      968.71582     -175.58104    
  61216000   251.42174     -418.5586      -334.35418     -418.58413      0              7488.7281      30.933001      21.326696      32.618773      21518.562      8120.4418      6451.356       7894.3866      16.688494     -42.592153      1359.1541    
  61218000   243.33947     -414.525       -333.02744     -414.53548      0              4678.857       30.933001      21.326696      32.676276      21556.497      3420.4842      4545.3603      6070.7266      1401.5874     -901.15573      2124.501     
  61220000   247.80651     -418.90456     -335.91093     -418.92539      0              5990.4827      30.933001      21.326696      32.500724      21440.685      4292.5926      7453.1899      6225.6656      278.78704      44.337885     -1185.9955    
  61222000   245.01134     -418.33614     -336.27865     -418.35391      0              6192.6713      30.933001      21.326696      32.485378      21430.562      6437.9527      5192.3392      6947.7221     -947.20989     -1120.0543      1220.331     
  61224000   246.5325      -417.04019     -334.47324     -417.06562      0              6459.3521      30.933001      21.326696      32.348762      21340.437      6423.4365      5923.0131      7031.6067      1820.5713     -7.1529277      309.73521    
  61226000   244.26152     -419.49024     -337.68387     -419.51093      0              6074.4712      30.933001      21.326696      32.544247      21469.398      5225.7608      7421.1289      5576.5238      83.051573      1082.349       530.88861    
  61228000   257.6213      -420.12278     -333.84205     -420.14863      0              5594.8192      30.933001      21.326696      32.453925      21409.813      7025.6737      4996.0348      4762.749       190.12083      515.47212     -204.36647    
  61230000   246.72518     -417.54361     -334.91213     -417.56313      0              7820.9439      30.933001      21.326696      32.596133      21503.627      8178.3583      9472.9787      5811.4947      1716.8036      1072.1342      481.23747    
  61232000   252.65214     -418.96177     -334.34527     -418.97395      0              4634.7357      30.933001      21.326696      32.621374      21520.279      4600.5148      5160.5177      4143.1745     -844.53476      676.96369      403.88376    
  61234000   246.78971     -417.28416     -334.63107     -417.30859      0              6405.0858      30.933001      21.326696      32.643564      21534.917      6308.9611      8707.9708      4198.3254     -1031.5612     -177.96742     -2004.6029    
  61236000   251.63801     -417.94718     -333.67033     -417.97878      0              4145.9474      30.933001      21.326696      32.594168      21502.331      5580.4573      3418.1857      3439.1991     -1012.9171     -175.43683     -1007.0514    
  61238000   243.87596     -418.51074     -336.8335      -418.53403      0              6826.3519      30.933001      21.326696      32.515616      21450.51       7624.2372      7318.2171      5536.6013     -1250.8246      1233.3723      945.28608    
  61240000   254.6431      -417.18418     -331.90089     -417.20423      0              5631.7681      30.933001      21.326696      32.57237       21487.951      4815.7831      5473.1861      6606.335      -492.22162     -125.45311      264.46882    
  61242000   252.18921     -418.90125     -334.4398      -418.91647      0              5998.6544      30.933001      21.326696      32.567178      21484.525      6273.7553      7535.7027      4186.5051     -208.2511       441.37202     -821.77228    
  61244000   251.18769     -416.16334     -332.03731     -416.17542      0              5905.1592      30.933001      21.326696      32.61652       21517.076      5121.5169      7806.4288      4787.5317      464.6106       1399.2568      1409.7383    
  61246000   251.96251     -418.06503     -333.6795      -418.09022      0              6060.9908      30.933001      21.326696      32.486492      21431.297      6088.427       6473.8645      5620.681      -133.03501      1119.0633     -399.25407    
  61248000   240.53411     -417.87583     -337.31782     -417.8848       0              8397.794       30.933001      21.326696      32.431202      21394.822      9125.1325      7460.0709      8608.1785     -733.3501       688.5518       1162.0013    
  61250000   248.2396      -417.87513     -334.73645     -417.89176      0              7478.7218      30.933001      21.326696      32.323973      21324.084      6429.2302      6485.6568      9521.2786      1519.1241      1337.4223     -187.00461    
  61252000   244.45255     -414.19062     -332.32027     -414.20099      0              5566.0611      30.933001      21.326696      32.512574      21448.503      5747.503       5629.5883      5321.0921     -72.824355     -261.59906     -1271.1985    
  61254000   249.54089     -419.94689     -336.37239     -419.95562      0              5488.1245      30.933001      21.326696      32.689552      21565.255      4135.7034      6618.6426      5710.0275     -1038.026       2678.5043      843.36199    
  61256000   252.3432      -416.59753     -332.0845      -416.62159      0              9212.6954      30.933001      21.326696      32.456715      21411.653      10551.467      9773.603       7313.0162     -144.17604     -779.70243     -155.21254    
  61258000   247.53426     -415.60094     -332.69849     -415.62189      0              5982.4781      30.933001      21.326696      32.452992      21409.197      6768.9625      6937.1622      4241.3097      835.58127      692.65833      405.89213    
  61260000   256.58044     -419.17723     -333.24509     -419.20058      0              6165.8557      30.933001      21.326696      32.428055      21392.746      4636.2024      7169.5359      6691.8288     -531.46641     -244.03955     -1925.0594    
  61262000   252.8505      -416.463       -331.78007     -416.48834      0              5240.5349      30.933001      21.326696      32.347686      21339.727      5698.4436      5063.7394      4959.4217     -73.689105      1130.2514      734.31829    
WARNING: Wall time limit reached (../timer.cpp:193)
Loop time of 85803 on 4 procs for 7626000 steps with 2592 atoms

Performance: 3.840 ns/day, 6.251 hours/ns, 88.878 timesteps/s
1485.5% CPU use with 4 MPI tasks x no OpenMP threads

MPI task timing breakdown:
Section |  min time  |  avg time  |  max time  |%varavg| %total
---------------------------------------------------------------
Pair    | 21309      | 21453      | 21506      |  56.9 | 25.00
Bond    | 0.75732    | 0.8033     | 0.82433    |   3.1 |  0.00
Neigh   | 643.75     | 655.26     | 666.58     |  42.1 |  0.76
Comm    | 2439       | 2494.7     | 2629.5     | 156.4 |  2.91
Output  | 3858.5     | 3858.6     | 3858.7     |   0.1 |  4.50
Modify  | 57318      | 57320      | 57322      |   0.7 | 66.80
Other   |            | 21.01      |            |       |  0.02

Nlocal:            648 ave         652 max         642 min
Histogram: 1 0 0 0 1 0 0 0 0 2
Nghost:         4259.5 ave        4277 max        4239 min
Histogram: 1 0 1 0 0 0 0 0 1 1
Neighs:              0 ave           0 max           0 min
Histogram: 4 0 0 0 0 0 0 0 0 0
FullNghs:       168370 ave      169835 max      166721 min
Histogram: 1 1 0 0 0 0 0 0 0 2

Total # of neighbors = 673482
Ave neighs/atom = 259.83102
Ave special neighs/atom = 0
Neighbor list builds = 152520
Dangerous builds not checked
unfix 3
unfix 1
unfix 2


# Finalize simulation
write_restart	restart.lmp.${pid}
write_restart	restart.lmp.0
System init for write_restart ...
Generated 0 of 1 mixed pair_coeff terms from geometric mixing rule
write_data	data.final.${pid} nocoeff
write_data	data.final.0 nocoeff
System init for write_data ...
Generated 0 of 1 mixed pair_coeff terms from geometric mixing rule
Total wall time: 23:50:20
