LAMMPS (23 Jun 2022)

include procedure.lmp
echo both
include		in.partitions
variable        pid world 0
include		in.temp
variable	temperature equal 250
variable        tempDamp equal 0.100 # this is 0.1 ps
include		in.pressure
variable        pressure equal 6079.5
variable        pressureDamp equal 1.0 #this is 1ps

variable	barostat string	   tri
variable	direction string   z
variable	direction_x_bool equal 0
variable	direction_y_bool equal 0
variable	direction_z_bool equal 1

include		in.seed
variable        seed world 745823

units           metal
atom_style	full
box tilt large
read_restart 	restart.lmp.${pid}
read_restart 	restart.lmp.0
Reading restart file ...
  restart file = 23 Jun 2022, LAMMPS = 23 Jun 2022
  restoring atom style full from restart
  triclinic box = (0 0 -0.77482676) to (30.933001 21.326696 31.73206) with tilt (-9.140633 0.98685175 -10.814616)
WARNING: Triclinic box skew is large (../domain.cpp:224)
  2 by 1 by 2 MPI processor grid
Summary of lammps deepmd module ...
  >>> Info of deepmd-kit:
  installed to:       /u/sigbjobo/software/DEEPMD_FROM_SOURCE/deepmd-kit/install
  source:             v2.1.3
  source branch:       master
  source commit:      5a32c49
  source commit at:   2022-07-01 09:52:58 +0800
  surpport model ver.:1.1 
  build float prec:   double
  build with tf inc:  /u/sigbjobo/software/DEEPMD_FROM_SOURCE/tensorflow/install/include;/u/sigbjobo/software/DEEPMD_FROM_SOURCE/tensorflow/install/include
  build with tf lib:  /u/sigbjobo/software/DEEPMD_FROM_SOURCE/tensorflow/install/lib/libtensorflow_cc.so;/u/sigbjobo/software/DEEPMD_FROM_SOURCE/tensorflow/install/lib/libtensorflow_framework.so
  set tf intra_op_parallelism_threads: 0
  set tf inter_op_parallelism_threads: 0
  >>> Info of lammps module:
  use deepmd-kit at:  /u/sigbjobo/software/DEEPMD_FROM_SOURCE/deepmd-kit/install
  source:             v2.1.3
  source branch:      master
  source commit:      5a32c49
  source commit at:   2022-07-01 09:52:58 +0800
  build float prec:   double
  build with tf inc:  /u/sigbjobo/software/DEEPMD_FROM_SOURCE/tensorflow/install/include;/u/sigbjobo/software/DEEPMD_FROM_SOURCE/tensorflow/install/include
  build with tf lib:  /u/sigbjobo/software/DEEPMD_FROM_SOURCE/tensorflow/install/lib/libtensorflow_cc.so;/u/sigbjobo/software/DEEPMD_FROM_SOURCE/tensorflow/install/lib/libtensorflow_framework.so
  restoring pair style deepmd from restart
  2592 atoms
Finding 1-2 1-3 1-4 neighbors ...
  special bond factors lj:    0        0        0       
  special bond factors coul:  0        0        0       
     0 = max # of 1-2 neighbors
     0 = max # of 1-3 neighbors
     0 = max # of 1-4 neighbors
     1 = max # of special neighbors
  special bonds CPU = 0.000 seconds
  read_restart CPU = 0.037 seconds
include 	in.setup
variable	out_freq equal 2000
variable	out_freq2 equal 2000

timestep        0.0005

neigh_modify    delay 7 every 1

include         in.deepmd
# This is deepMD model

# create groups ###
#group ox type 2
#group hy type 1

mass 2 15.999
mass 1 1.008

pair_style      deepmd ../graph.pb
pair_coeff      * *

bond_style      none
angle_style     none
dihedral_style  none
improper_style  none
neigh_modify exclude none


neighbor        2.0 bin
neigh_modify    every 50 delay 0 check no

thermo          ${out_freq}
thermo          2000
thermo_style 	custom step temp pe etotal epair emol press lx ly lz vol pxx pyy pzz pxy pxz pyz

restart 	${out_freq} restart.lmp.${pid} restart2.lmp.${pid}
restart 	2000 restart.lmp.${pid} restart2.lmp.${pid}
restart 	2000 restart.lmp.0 restart2.lmp.${pid}
restart 	2000 restart.lmp.0 restart2.lmp.0


timer           timeout 23:50:00 every 1000
New timer settings: style=normal  mode=nosync  timeout=23:50:00


# Set number of time steps
variable 	nsteps_wall		equal	 6000000
variable 	nsteps_enhanced_coex    equal	150000000

variable     nsteps_enhanced_coex_upto equal (${nsteps_wall}+${nsteps_enhanced_coex})
variable     nsteps_enhanced_coex_upto equal (6000000+${nsteps_enhanced_coex})
variable     nsteps_enhanced_coex_upto equal (6000000+150000000)


# Set temperature for first step
if "$(step) < 1  " then    "velocity 	all create ${temperature} ${seed} dist gaussian"


# Always run thermo and barostat


######################################
# Run simulation with wall potential #
######################################
if " $(step) < ${nsteps_wall} " then    "fix             3 all plumed plumedfile plumed.equil.dat outfile plumed.equil.out"   "fix             1 all nph ${direction} ${pressure} ${pressure} ${pressureDamp}"   "fix             2 all temp/csvr ${temperature} ${temperature} ${tempDamp} ${seed}"   "run             ${nsteps_wall} upto"
if " $(step) == ${nsteps_wall} " then    "unfix 3"   "unfix 1"   "unfix 2"


############################
# Run enhanced coesistence #
############################
if "$(step) == ${nsteps_wall}" then    "fix             3 all plumed plumedfile plumed.start.dat outfile plumed.out" else    "fix             3 all plumed plumedfile plumed.dat outfile plumed.out"
fix             3 all plumed plumedfile plumed.dat outfile plumed.out

if "$(step) < ${nsteps_enhanced_coex_upto} && $(step) >= ${nsteps_wall} " then    "include         in.dump"    "fix             1 all nph ${direction} ${pressure} ${pressure} ${pressureDamp}"   "fix             2 all temp/csvr ${temperature} ${temperature} ${tempDamp} ${seed}"   "run             ${nsteps_enhanced_coex_upto} upto"    "unfix 3"   "unfix 1"   "unfix 2"
include         in.dump
dump            myDump all atom ${out_freq2} dump.water.${pid}
dump            myDump all atom 2000 dump.water.${pid}
dump            myDump all atom 2000 dump.water.0
dump            myDump2 all dcd ${out_freq2} dump.${pid}.dcd
dump            myDump2 all dcd 2000 dump.${pid}.dcd
dump            myDump2 all dcd 2000 dump.0.dcd
dump_modify     myDump append yes
dump_modify     myDump2 append yes

fix             1 all nph ${direction} ${pressure} ${pressure} ${pressureDamp}
fix             1 all nph z ${pressure} ${pressure} ${pressureDamp}
fix             1 all nph z 6079.5 ${pressure} ${pressureDamp}
fix             1 all nph z 6079.5 6079.5 ${pressureDamp}
fix             1 all nph z 6079.5 6079.5 1
fix             2 all temp/csvr ${temperature} ${temperature} ${tempDamp} ${seed}
fix             2 all temp/csvr 250 ${temperature} ${tempDamp} ${seed}
fix             2 all temp/csvr 250 250 ${tempDamp} ${seed}
fix             2 all temp/csvr 250 250 0.1 ${seed}
fix             2 all temp/csvr 250 250 0.1 745823
run             ${nsteps_enhanced_coex_upto} upto
run             156000000 upto

CITE-CITE-CITE-CITE-CITE-CITE-CITE-CITE-CITE-CITE-CITE-CITE-CITE

Your simulation uses code contributions which should be cited:

- USER-DEEPMD package:

@article{Wang_ComputPhysCommun_2018_v228_p178,
  author = {Wang, Han and Zhang, Linfeng and Han, Jiequn and E, Weinan},
  doi = {10.1016/j.cpc.2018.03.016},
  url = {https://doi.org/10.1016/j.cpc.2018.03.016},
  year = 2018,
  month = {jul},
  publisher = {Elsevier {BV}},
  volume = 228,
  journal = {Comput. Phys. Commun.},
  title = {{DeePMD-kit: A deep learning package for many-body potential energy representation and molecular dynamics}},
  pages = {178--184}
}

CITE-CITE-CITE-CITE-CITE-CITE-CITE-CITE-CITE-CITE-CITE-CITE-CITE

Generated 0 of 1 mixed pair_coeff terms from geometric mixing rule
Neighbor list info ...
  update every 50 steps, delay 0 steps, check no
  max neighbors/atom: 2000, page size: 100000
  master list distance cutoff = 8
  ghost atom cutoff = 8
  binsize = 4, bins = 11 9 9
  1 neighbor lists, perpetual/occasional/extra = 1 0 0
  (1) pair deepmd, perpetual
      attributes: full, newton on
      pair build: full/bin
      stencil: full/bin/3d
      bin: standard
Per MPI rank memory allocation (min/avg/max) = 6.237 | 6.238 | 6.239 Mbytes
   Step          Temp          PotEng         TotEng         E_pair         E_mol          Press            Lx             Ly             Lz           Volume          Pxx            Pyy            Pzz            Pxy            Pxz            Pyz      
 121067000   245.63776     -417.4148      -335.14752     -417.4148       0              4156.9819      30.933001      21.326696      32.506886      21444.751      3320.66        3161.0517      5989.2341     -31.510195     -6.4313274     -562.27594    
 121068000   252.62919     -416.66642     -332.05761     -416.6272       0              4165.7231      30.933001      21.326696      32.845472      21668.115      3554.4013      5309.9616      3632.8066      1040.1042     -460.47513      382.73101    
 121070000   251.03114     -415.09324     -331.01964     -415.0542       0              5440.2224      30.933001      21.326696      32.570652      21486.817      3050.9414      7100.9007      6168.8251     -645.11043     -539.45032      321.7472     
 121072000   246.24057     -413.71581     -331.24663     -413.68108      0              6013.4413      30.933001      21.326696      32.42231       21388.956      5760.0698      7113.8183      5166.4358      43.550682     -292.88484      1656.336     
 121074000   253.97683     -415.26341     -330.20326     -415.21543      0              6698.384       30.933001      21.326696      32.445707      21404.391      7304.5479      6963.1921      5827.412      -604.13554     -742.04019     -868.25944    
 121076000   251.75681     -412.66277     -328.34613     -412.60948      0              6039.7109      30.933001      21.326696      32.441442      21401.577      6906.2327      6503.6756      4709.2243      453.8208      -1342.7968      493.04294    
 121078000   246.44886     -412.39057     -329.85163     -412.33624      0              6629.176       30.933001      21.326696      32.605466      21509.784      7024.2413      6489.9256      6373.361       54.738076     -382.81179     -1295.007     
 121080000   253.27681     -412.11035     -327.28464     -412.07329      0              3555.8612      30.933001      21.326696      32.637033      21530.609      4354.4716      4036.2017      2276.9104     -951.56132      913.0211      -367.49475    
 121082000   253.72296     -414.88324     -329.90811     -414.82925      0              5156.0546      30.933001      21.326696      32.736572      21596.274      5227.6445      5578.0462      4662.4732      616.85835     -194.4203      -1550.4404    
 121084000   254.85985     -416.39866     -331.04277     -416.36462      0              6251.7647      30.933001      21.326696      32.597966      21504.836      7522.4401      6200.2652      5032.5888     -578.57215      1662.2457      801.80367    
 121086000   254.01012     -416.75991     -331.68861     -416.72704      0              5215.6358      30.933001      21.326696      32.634654      21529.039      7940.8595      3599.3695      4106.6784      1215.3117     -1980.6098      1036.7493    
 121088000   244.75259     -416.45043     -334.4796      -416.42564      0              6511.9097      30.933001      21.326696      32.613738      21515.241      5989.4414      6140.3326      7405.9553      1738.2785      946.04674      954.5303     
 121090000   245.50762     -416.53052     -334.30681     -416.49791      0              4000.4383      30.933001      21.326696      32.747163      21603.261      3751.012       4508.2686      3742.0342     -843.94644      821.58746     -1409.2992    
 121092000   257.86966     -412.68721     -326.3233      -412.6447       0              6310.0711      30.933001      21.326696      32.804448      21641.052      6162.1339      6563.9824      6204.097      -821.98639      1413.9008      1343.4802    
 121094000   249.41877     -412.72453     -329.19093     -412.66771      0              5807.1097      30.933001      21.326696      32.56936       21485.965      6022.7174      5228.8271      6169.7845     -336.32741     -38.273672     -1142.4451    
 121096000   250.0527      -416.82789     -333.08198     -416.76445      0              5315.7975      30.933001      21.326696      32.502266      21441.703      6345.7707      4978.3496      4623.2723      544.17048      716.20264      643.79103    
 121098000   260.04686     -414.32731     -327.23422     -414.2855       0              4589.5375      30.933001      21.326696      32.571617      21487.454      5267.2139      4065.4696      4435.929       745.86127      863.65564      554.26846    
 121100000   254.71479     -414.82967     -329.52237     -414.80995      0              6503.4695      30.933001      21.326696      32.568498      21485.396      5980.5504      5891.9784      7637.8797     -787.90531     -900.86753     -691.61476    
 121102000   248.36777     -417.83058     -334.64898     -417.80715      0              7027.4213      30.933001      21.326696      32.539649      21466.365      5261.1652      8130.3186      7690.7799      1739.8112     -403.06958      573.72091    
 121104000   246.55845     -416.9181      -334.34246     -416.89915      0              5737.5148      30.933001      21.326696      32.62778       21524.504      7369.9168      5154.8174      4687.8101      90.403032      559.56756      1643.5041    
 121106000   245.55858     -414.28472     -332.04395     -414.22972      0              4487.3417      30.933001      21.326696      32.713743      21581.214      4567.6181      5507.1574      3387.2495     -80.27163       15.933479      345.13868    
 121108000   243.10148     -416.97516     -335.55731     -416.94609      0              7761.8934      30.933001      21.326696      32.668671      21551.48       9061.688       7602.1461      6621.8462     -1168.5139      1116.7857      1238.8711    
 121110000   252.76291     -416.43643     -331.78284     -416.38492      0              5616.39        30.933001      21.326696      32.577298      21491.201      5303.4641      6195.7726      5349.9333     -469.64954     -588.60644      1010.6409    
 121112000   242.31199     -415.07982     -333.92638     -415.03525      0              7234.8481      30.933001      21.326696      32.47093       21421.031      6864.9645      7078.0561      7761.5237      201.21961      144.89255      574.56404    
 121114000   253.13404     -416.21622     -331.43833     -416.17905      0              7573.4173      30.933001      21.326696      32.489108      21433.023      7639.7043      7171.2705      7909.277       1362.2354      849.18674      2818.6255    
 121116000   257.20725     -415.92221     -329.78015     -415.88302      0              6147.8672      30.933001      21.326696      32.487669      21432.074      6328.6636      6346.0016      5768.9363     -1403.4881      1880.1819      964.50737    
 121118000   253.6707      -413.37306     -328.41544     -413.31528      0              7276.2772      30.933001      21.326696      32.480151      21427.114      9134.2045      6853.1486      5841.4784      166.85609     -1682.2381      429.65286    
 121120000   249.47523     -416.08592     -332.53341     -416.02884      0              5508.1728      30.933001      21.326696      32.55867       21478.913      6686.7005      6410.9765      3426.8413     -2264.1987     -719.78777      64.650839    
 121122000   251.22172     -415.29811     -331.16068     -415.26335      0              4064.0725      30.933001      21.326696      32.748233      21603.967      5185.9591      3002.1897      4004.0688      824.38368      819.18725      251.47519    
 121124000   245.55308     -416.88584     -334.64691     -416.8429       0              7752.9076      30.933001      21.326696      32.347743      21339.765      10656.136      7918.7235      4683.863      -1341.7375     -1293.0075     -244.07184    
 121126000   248.12437     -414.97085     -331.87077     -414.91845      0              6904.4466      30.933001      21.326696      32.395734      21371.424      6036.6721      6966.8614      7709.8063      624.55041      685.49742      405.31656    
 121128000   247.93302     -416.1399      -333.1039      -416.11084      0              7596.5665      30.933001      21.326696      32.460744      21414.311      8911.7097      5566.7763      8311.2134     -724.98699      1250.5148     -579.35316    
 121130000   254.15925     -413.4126      -328.29135     -413.37937      0              5640.3674      30.933001      21.326696      32.379118      21360.462      5491.6983      6214.6115      5214.7923     -1325.9615      1185.6493      800.74015    
 121132000   239.38279     -415.63301     -335.46059     -415.58276      0              5683.825       30.933001      21.326696      32.503456      21442.488      5451.2483      5955.3333      5644.8935      288.26034      198.80143     -405.93179    
 121134000   250.51451     -415.4199      -331.51932     -415.37319      0              5549.6017      30.933001      21.326696      32.523024      21455.397      6930.7839      6225.8066      3492.2147     -151.13159      598.60777      195.68128    
 121136000   247.37611     -417.73353     -334.88405     -417.68801      0              5491.0762      30.933001      21.326696      32.568294      21485.262      6117.3009      6264.1158      4091.812       388.38237     -1339.9324      1865.0441    
 121138000   246.18638     -417.18896     -334.73793     -417.14435      0              6400.9867      30.933001      21.326696      32.482239      21428.491      5763.2018      5869.2677      7570.4905      2156.2683      790.45132      1097.5051    
 121140000   249.84054     -417.03641     -333.36156     -417.00401      0              3762.8614      30.933001      21.326696      32.603366      21508.399      2595.915       2490.7797      6201.8894     -1834.1857      442.6259      -468.44968    
 121142000   247.3223      -413.59456     -330.7631      -413.54467      0              6340.5327      30.933001      21.326696      32.647297      21537.379      6809.0317      5578.7869      6633.7796     -156.01636      482.76903      931.49036    
 121144000   239.58487     -415.30975     -335.06965     -415.2804       0              6307.3751      30.933001      21.326696      32.598257      21505.028      6680.2789      5261.5708      6980.2755      605.43532      737.28941      439.62811    
 121146000   247.19618     -417.19345     -334.40423     -417.15097      0              6063.6117      30.933001      21.326696      32.570615      21486.793      5972.3555      6348.4656      5870.014       305.4703      -1005.2883     -208.93293    
 121148000   245.38257     -415.75139     -333.56957     -415.72223      0              6310.6919      30.933001      21.326696      32.430813      21394.566      7387.9329      6481.1743      5062.9684     -1745.0108     -474.46886     -186.10186    
 121150000   254.16293     -415.60626     -330.48378     -415.57285      0              6085.7011      30.933001      21.326696      32.567567      21484.782      5674.6222      5625.042       6957.439       117.69629      692.68238      752.33123    
 121152000   247.98677     -415.31331     -332.25931     -415.27812      0              4478.9459      30.933001      21.326696      32.638224      21531.394      4217.764       5246.9078      3972.1658      86.41058       1663.0313      1137.413     
 121154000   250.34756     -416.24932     -332.40466     -416.22298      0              6533.9026      30.933001      21.326696      32.513566      21449.157      7956.6149      6360.7702      5284.3227      138.03848      1522.4766     -458.81563    
 121156000   243.89017     -417.99563     -336.31364     -417.95159      0              6130.568       30.933001      21.326696      32.646834      21537.074      6553.7244      6185.5282      5652.4514     -1123.583      -943.73373      1145.9758    
 121158000   245.50891     -414.56104     -332.3369      -414.50821      0              4755.0481      30.933001      21.326696      32.750244      21605.294      4475.5939      4625.728       5163.8223      637.98068     -160.88304      723.57242    
 121160000   247.68382     -413.78512     -330.83258     -413.73807      0              7402.167       30.933001      21.326696      32.610625      21513.187      6877.9604      7817.9417      7510.599      -315.53668      1335.8841      531.23243    
 121162000   249.82715     -417.12672     -333.45635     -417.09243      0              5649.6762      30.933001      21.326696      32.632408      21527.557      5814.3369      4510.1865      6624.505       13.261632      1085.7833      329.28821    
 121164000   247.69426     -415.14263     -332.18659     -415.11401      0              6104.7765      30.933001      21.326696      32.507066      21444.87       6758.9739      5140.6102      6414.7456     -391.14005      1577.5066      612.63166    
 121166000   243.03478     -413.58318     -332.18766     -413.56098      0              6420.3654      30.933001      21.326696      32.402312      21375.763      6271.8536      5053.5084      7935.7344     -433.20509      1908.2021     -886.90301    
 121168000   251.02558     -414.5454      -330.47366     -414.51223      0              6636.4885      30.933001      21.326696      32.360333      21348.07       5103.166       6699.6188      8106.6807     -891.9761       1131.0168     -132.14994    
 121170000   248.35966     -414.96992     -331.79103     -414.93623      0              6107.3566      30.933001      21.326696      32.442519      21402.288      5885.1911      4760.9979      7675.8807      1379.0894      883.80303      1385.7572    
 121172000   246.16751     -413.06379     -330.61908     -413.02159      0              6258.0267      30.933001      21.326696      32.414678      21383.921      6002.1858      5560.6483      7211.2462      1123.9449     -979.1543       1498.0816    
 121174000   250.20007     -414.26496     -330.46969     -414.20202      0              6046.3234      30.933001      21.326696      32.437163      21398.755      6614.4423      6048.3058      5476.2222      350.58453      314.79865      600.45346    
 121176000   255.05113     -415.01368     -329.59373     -414.96018      0              4891.6731      30.933001      21.326696      32.414437      21383.762      4568.1391      1840.217       8266.6631      959.90588     -1392.825       109.33726    
 121178000   252.88032     -415.66959     -330.97667     -415.60681      0              6698.6538      30.933001      21.326696      32.661812      21546.955      6732.3189      7523.2942      5840.3484     -503.92885      265.18241     -922.54642    
 121180000   246.71513     -413.75608     -331.12797     -413.69467      0              5983.7876      30.933001      21.326696      32.712634      21580.482      5419.1266      4596.7635      7935.4726     -169.94583     -610.58903      570.96028    
 121182000   252.44859     -413.07117     -328.52285     -413.02615      0              6461.0662      30.933001      21.326696      32.551066      21473.896      6757.9301      5968.7904      6656.4781     -2.9814857      119.1454       437.51161    
 121184000   248.63188     -416.13006     -332.86        -416.08571      0              6086.3532      30.933001      21.326696      32.53358       21462.361      7902.6602      3513.4074      6842.9921     -930.64228     -596.56298     -72.268223    
 121186000   249.40175     -411.53414     -328.00624     -411.47958      0              6403.8873      30.933001      21.326696      32.541984      21467.905      7058.905       5488.5832      6664.1738      40.834189      867.92692      978.12103    
 121188000   249.11177     -414.91443     -331.48365     -414.85099      0              3921.0478      30.933001      21.326696      32.687764      21564.076      4164.4393      3951.6058      3647.0981      1283.3052      1102.591       129.02869    
 121190000   250.23451     -416.28751     -332.48072     -416.22492      0              3652.2111      30.933001      21.326696      32.67191       21553.617      5050.9446      2707.8037      3197.885      -527.28255     -437.24317     -632.67922    
 121192000   258.04889     -412.95786     -326.53392     -412.90212      0              5070.544       30.933001      21.326696      32.663039      21547.765      2777.7225      5797.2725      6636.6371      217.92379     -253.94976     -775.5298     
 121194000   249.69339     -414.54774     -330.92217     -414.48624      0              7160.7985      30.933001      21.326696      32.579356      21492.559      7391.3867      8550.2985      5540.7102      1393.2875      585.26978      1253.6541    
 121196000   257.28176     -416.54161     -330.3746      -416.50199      0              5018.2902      30.933001      21.326696      32.489584      21433.337      6368.896       4519.3312      4166.6434     -1233.517      -2075.6994     -832.20308    
 121198000   242.80609     -415.3802      -334.06127     -415.3172       0              4711.7678      30.933001      21.326696      32.63717       21530.699      4722.8899      3588.5518      5823.8616     -1626.0008      941.4935      -1435.725     
 121200000   255.84126     -413.57489     -327.89031     -413.54029      0              6388.6133      30.933001      21.326696      32.565074      21483.137      7944.3829      6841.7428      4379.7141      2466.653      -745.94294     -599.75943    
 121202000   251.98957     -416.8164      -332.4218      -416.77029      0              9233.0873      30.933001      21.326696      32.478757      21426.194      8141.0821      9030.1475      10528.032      1314.3149      716.14782     -891.572      
 121204000   247.27005     -412.25905     -329.44509     -412.19557      0              5163.4828      30.933001      21.326696      32.670148      21552.454      5727.71        5467.9597      4294.7787     -368.90672      657.66058      1118.5878    
 121206000   244.68058     -417.05867     -335.11195     -417.01138      0              6669.0067      30.933001      21.326696      32.546275      21470.736      6755.0601      6865.4262      6386.5336     -1981.3882      187.48445     -769.94732    
 121208000   250.53348     -414.27468     -330.36775     -414.21462      0              7579.2964      30.933001      21.326696      32.4607        21414.282      7741.8039      7486.4089      7509.6765     -791.4756       104.87539      369.30165    
 121210000   254.48771     -415.04402     -329.81277     -415.00211      0              6740.6789      30.933001      21.326696      32.424962      21390.706      7716.4615      6475.9011      6029.6741      960.62537     -881.22361      129.7916     
 121212000   252.59358     -414.24607     -329.64919     -414.19         0              6772.587       30.933001      21.326696      32.521978      21454.707      5959.2446      7366.4799      6992.0365      883.48918      41.348956     -103.54266    
 121214000   247.24958     -413.56031     -330.7532      -413.51634      0              6974.8763      30.933001      21.326696      32.455505      21410.855      6773.8921      7451.4832      6699.2538      132.51861     -208.61186     -385.73612    
 121216000   256.60876     -412.94303     -327.00141     -412.88008      0              5425.894       30.933001      21.326696      32.66868       21551.486      6703.5548      4990.2617      4583.8655     -1677.6704      174.40517     -624.04182    
 121218000   250.23711     -414.58467     -330.777       -414.54279      0              4860.3163      30.933001      21.326696      32.643946      21535.169      4959.6187      5392.5871      4228.7431      886.52992     -1022.244      -342.43261    
 121220000   248.46192     -414.69099     -331.47786     -414.64007      0              6897.9461      30.933001      21.326696      32.654471      21542.112      9558.6642      4256.3153      6878.8587     -245.21559      1562.0891      264.49453    
 121222000   247.25005     -413.73133     -330.92406     -413.68054      0              5806.8787      30.933001      21.326696      32.727311      21590.165      4637.2936      6465.4149      6317.9274      1859.952      -585.42006      211.90439    
 121224000   245.62506     -413.55652     -331.29349     -413.51192      0              6547.4143      30.933001      21.326696      32.471536      21421.43       6751.0074      7293.9391      5597.2964      1040.638       401.42455     -671.85689    
 121226000   248.16812     -411.95184     -328.83711     -411.89689      0              6356.856       30.933001      21.326696      32.440146      21400.723      6860.9992      4852.1753      7357.3936     -2234.0589     -2534.9892      50.217403    
 121228000   251.60023     -415.85448     -331.59028     -415.82091      0              7640.522       30.933001      21.326696      32.37286       21356.334      7008.2109      9203.7657      6709.5893     -298.30274     -106.32734      78.319981    
 121230000   246.15034     -414.22368     -331.78473     -414.17951      0              4970.1051      30.933001      21.326696      32.49461       21436.652      5279.1185      5952.1565      3679.0404     -44.584068     -365.09158      329.17616    
 121232000   250.75712     -412.28971     -328.30789     -412.24052      0              6030.1729      30.933001      21.326696      32.48624       21431.13       3798.1839      5092.9445      9199.3904      279.20637      1866.8272     -658.83801    
 121234000   242.4978      -415.34718     -334.13151     -415.31866      0              6379.0562      30.933001      21.326696      32.366023      21351.824      6900.2322      5417.4637      6819.4726      914.80961      1372.5122     -733.4601     
 121236000   252.75839     -414.42389     -329.77181     -414.3767       0              6896.7569      30.933001      21.326696      32.300124      21308.35       7108.5406      8075.2086      5506.5216     -149.63546      751.38185     -288.11527    
 121238000   246.52008     -416.13112     -333.56834     -416.0772       0              7992.8102      30.933001      21.326696      32.436675      21398.433      6857.1799      9572.145       7549.1056      464.50238     -1300.1708     -1575.5708    
 121240000   251.35243     -414.15002     -329.96882     -414.10268      0              5342.8768      30.933001      21.326696      32.516282      21450.949      6546.2023      4389.196       5093.2323      569.90308     -2166.8772     -1200.8309    
 121242000   247.52464     -414.40999     -331.51076     -414.36614      0              6088.38        30.933001      21.326696      32.667794      21550.901      5904.36        5578.3946      6782.3854     -395.51072     -1012.5616     -320.23808    
 121244000   248.04679     -415.87371     -332.79961     -415.81451      0              4224.7467      30.933001      21.326696      32.507461      21445.13       3507.4394      2407.7507      6759.0501     -234.68616     -1226.6903      23.876834    
 121246000   244.8194      -414.41336     -332.42015     -414.36694      0              8553.6986      30.933001      21.326696      32.394791      21370.802      8594.5263      7787.0777      9279.4918     -76.804246      2063.8969     -357.02809    
 121248000   251.65706     -417.29537     -333.01214     -417.24677      0              6086.6295      30.933001      21.326696      32.234375      21264.976      5894.9981      6533.5278      5831.3627     -1490.4071      428.2802       1131.2369    
 121250000   252.72143     -415.30608     -330.66638     -415.24515      0              6183.9525      30.933001      21.326696      32.41245       21382.451      4634.1786      6878.1258      7039.5531      1483.319       798.11364     -612.5997     
 121252000   245.88227     -415.2734      -332.92422     -415.21144      0              6634.5602      30.933001      21.326696      32.545532      21470.245      5050.2983      7104.6236      7748.7586     -1002.7127      680.71533      520.06513    
 121254000   249.18773     -416.02768     -332.57146     -415.98709      0              5701.9029      30.933001      21.326696      32.521827      21454.607      4795.0821      5961.5484      6349.0783      168.73828      1257.2445     -1696.0147    
 121256000   244.45251     -416.39927     -334.52893     -416.34166      0              4126.9372      30.933001      21.326696      32.571381      21487.298      4036.2588      4280.9659      4063.5868     -239.06226     -380.6535       470.5237     
 121258000   253.47953     -414.66668     -329.77308     -414.60445      0              5188.6236      30.933001      21.326696      32.677154      21557.076      7067.3411      4125.369       4373.1605     -414.18654     -1021.7171      140.4515     
 121260000   248.6554      -413.65745     -330.37952     -413.60033      0              6309.4239      30.933001      21.326696      32.674701      21555.458      6187.7906      6858.48        5882.0012     -227.45322     -2263.154      -1942.667     
 121262000   253.60194     -414.74286     -329.80826     -414.70556      0              4385.6224      30.933001      21.326696      32.479578      21426.735      4852.8489      4894.5056      3409.5126     -231.798       -243.62921     -1437.7721    
 121264000   255.12332     -416.11881     -330.67469     -416.06997      0              4691.0649      30.933001      21.326696      32.517263      21451.596      4180.1119      4472.0617      5421.0212      688.6793       553.0654      -26.74918     
 121266000   257.58191     -415.81485     -329.54731     -415.76171      0              8545.3945      30.933001      21.326696      32.426066      21391.434      7832.255       8091.1681      9712.7605     -363.33717      144.9017      -501.004      
 121268000   251.15359     -414.50471     -330.3901      -414.44782      0              5641.4109      30.933001      21.326696      32.371383      21355.36       6452.9946      6194.6071      4276.631       671.4309      -1268.0262     -1808.2564    
 121270000   240.243       -417.15745     -336.69694     -417.12371      0              7792.8865      30.933001      21.326696      32.547245      21471.376      8945.7897      8810.0643      5622.8054     -444.70145      102.02925     -1820.3932    
 121272000   245.96657     -417.28525     -334.90784     -417.23794      0              4557.6071      30.933001      21.326696      32.598602      21505.256      3631.6435      4243.7129      5797.4651     -78.486082     -552.41438     -127.22764    
 121274000   252.21076     -415.4949      -331.02623     -415.44031      0              6146.4262      30.933001      21.326696      32.623746      21521.843      7021.0244      5631.8902      5786.3642     -31.221958      208.53291     -805.73925    
 121276000   246.25943     -413.03138     -330.55589     -412.98969      0              5315.1736      30.933001      21.326696      32.481806      21428.206      6719.8457      4423.5322      4802.143       1140.9558      896.63842     -137.44658    
 121278000   250.88421     -415.0657      -331.0413      -415.01568      0              8118.982       30.933001      21.326696      32.402926      21376.168      6457.9025      9299.3182      8599.7254     -44.262176     -531.77581     -1667.81      
 121280000   254.60862     -415.10119     -329.82945     -415.06379      0              4111.9525      30.933001      21.326696      32.491914      21434.874      4636.7748      3370.4568      4328.6258     -773.65719     -1036.7012     -1470.2244    
 121282000   242.97081     -417.5763      -336.20221     -417.53222      0              7128.4933      30.933001      21.326696      32.531452      21460.957      6515.547       7730.7854      7139.1476      1804.4117     -2095.6542      1008.9478    
 121284000   252.35768     -413.00671     -328.48883     -412.94368      0              3261.3481      30.933001      21.326696      32.523401      21455.646      805.64077      3483.6617      5494.7419      328.81459      1946.6061     -64.33944     
 121286000   248.56489     -414.10393     -330.8563      -414.04925      0              5917.6088      30.933001      21.326696      32.48939       21433.209      6033.3517      4980.1017      6739.3731     -444.50942      1024.2954      686.22637    
 121288000   255.60582     -416.52361     -330.91789     -416.47516      0              5500.282       30.933001      21.326696      32.43944       21400.257      5890.0023      6344.9335      4265.9101     -753.77169     -472.8611      -1058.5776    
 121290000   255.25718     -414.86399     -329.37503     -414.80143      0              6474.0891      30.933001      21.326696      32.458194      21412.629      5705.8721      6149.4245      7566.9707      1172.8898     -836.83882     -187.11953    
 121292000   255.55085     -415.02593     -329.43862     -414.97483      0              6673.6125      30.933001      21.326696      32.441646      21401.712      6797.0873      6165.4674      7058.2828      207.18551      726.92401      971.99806    
 121294000   249.45295     -413.18982     -329.64478     -413.1295       0              5285.1794      30.933001      21.326696      32.391004      21368.303      4784.4382      4580.228       6490.8721     -543.63871      2169.5736     -1791.218     
 121296000   251.60889     -413.90781     -329.64071     -413.84881      0              8329.8151      30.933001      21.326696      32.475943      21424.338      8693.0198      7926.7688      8369.6567      602.69957      2267.3925      612.94898    
 121298000   255.3459      -413.96481     -328.44614     -413.90372      0              5288.5684      30.933001      21.326696      32.512484      21448.444      4717.7102      5009.8408      6138.1542     -115.63117      1393.4104     -340.42066    
 121300000   253.79472     -415.0816      -330.08244     -415.0441       0              6348.3767      30.933001      21.326696      32.493266      21435.765      6283.2179      7234.0672      5527.8451     -78.403833      1999.969       598.30575    
 121302000   240.97922     -414.3099      -333.60282     -414.25535      0              5477.5137      30.933001      21.326696      32.523458      21455.683      6822.8627      5358.3454      4251.333      -79.222877      813.04224      162.93068    
 121304000   247.77431     -415.44358     -332.46074     -415.40815      0              6523.951       30.933001      21.326696      32.731949      21593.224      5776.1762      5980.3609      7815.3161     -62.09619      -1855.2934     -646.08638    
 121306000   251.23357     -416.4625      -332.32111     -416.4231       0              6887.9308      30.933001      21.326696      32.611729      21513.915      7643.4217      6827.209       6193.1618      669.27363     -1065.8161      633.65342    
 121308000   248.66819     -414.30144     -331.01922     -414.23951      0              4085.1653      30.933001      21.326696      32.66825       21551.202      3242.1601      4885.3881      4127.9477      1287.428      -1939.2324     -785.40205    
 121310000   257.28123     -415.4514      -329.28456     -415.39389      0              5002.21        30.933001      21.326696      32.644978      21535.85       5742.2584      5945.1329      3319.2388      608.68942     -1556.7708     -89.343613    
 121312000   254.48683     -412.67163     -327.44068     -412.60946      0              7014.4284      30.933001      21.326696      32.535382      21463.549      6471.3567      6394.0447      8177.8839     -755.41014      3397.2976      239.33912    
 121314000   250.69202     -414.48004     -330.52002     -414.43192      0              7921.2704      30.933001      21.326696      32.54891       21472.474      8600.966       7640.4561      7522.3892     -439.33797      877.7294      -746.95166    
 121316000   246.16624     -415.93568     -333.4914      -415.87234      0              6137.9244      30.933001      21.326696      32.538257      21465.446      5920.2829      5859.2836      6634.2067     -1134.6092      1083.8995     -718.30236    
 121318000   259.15495     -414.31531     -327.52094     -414.25521      0              6818.038       30.933001      21.326696      32.658774      21544.951      8117.5028      6448.5339      5888.0772     -247.35021     -566.10453     -809.94756    
 121320000   244.72905     -413.67126     -331.70832     -413.61272      0              4155.043       30.933001      21.326696      32.800212      21638.258      4056.9647      4283.0445      4125.1196      2003.3861     -1440.345       2039.5654    
 121322000   254.27058     -414.92686     -329.76832     -414.87407      0              3948.9852      30.933001      21.326696      32.770012      21618.335      4339.3488      3464.9834      4042.6235      587.53568      18.556704      1117.2744    
 121324000   246.46        -414.08562     -331.54295     -414.02303      0              6453.9191      30.933001      21.326696      32.619276      21518.894      8071.6123      7364.0085      3926.1367      460.31802      2380.6939     -2779.8586    
 121326000   247.42365     -416.50311     -333.6377      -416.44264      0              5574.0777      30.933001      21.326696      32.566529      21484.097      6707.1255      6358.4778      3656.6299     -54.20039       17.722051     -754.83327    
 121328000   244.04322     -413.9769      -332.24365     -413.91552      0              5205.9296      30.933001      21.326696      32.659467      21545.408      6350.1852      4450.5166      4817.0868     -1067.5406      330.5077       2935.0338    
 121330000   254.2096      -413.19222     -328.05411     -413.12962      0              6313.5002      30.933001      21.326696      32.616536      21517.086      5962.2596      6537.595       6440.6461      146.64202     -1831.4244     -1503.5815    
 121332000   250.11807     -415.57973     -331.81193     -415.5247       0              5106.3287      30.933001      21.326696      32.733363      21594.157      4325.1874      5325.6094      5668.1894     -175.09238     -228.662        374.13594    
 121334000   257.2615      -414.08429     -327.92406     -414.021        0              4037.1023      30.933001      21.326696      32.854789      21674.262      2087.4818      5096.4604      4927.3649      1473.7687     -870.85581     -1537.3259    
 121336000   248.74783     -415.16305     -331.85415     -415.09998      0              4571.7178      30.933001      21.326696      32.73183       21593.146      3956.3311      4352.0315      5406.7908     -319.25215      181.95992     -541.28516    
 121338000   243.72924     -413.27137     -331.64327     -413.21364      0              5567.9108      30.933001      21.326696      32.678052      21557.669      5332.7996      4953.7276      6417.2053     -161.38162      1085.8298     -1082.1018    
 121340000   249.28488     -411.7998      -328.31105     -411.74221      0              4903.3652      30.933001      21.326696      32.772325      21619.861      3521.651       5420.3548      5768.0897      1530.7367     -910.83136      280.52684    
 121342000   249.80097     -413.07997     -329.41837     -413.03171      0              7494.2425      30.933001      21.326696      32.69455       21568.553      8176.2197      6736.4971      7570.0105      115.52013      1698.8956      365.51193    
 121344000   256.45891     -416.48082     -330.58939     -416.41754      0              6518.2058      30.933001      21.326696      32.766876      21616.266      8448.8018      5385.8112      5720.0045      931.19406     -383.06293      722.06426    
 121346000   246.51037     -411.97336     -329.41383     -411.91015      0              6220.3918      30.933001      21.326696      32.659714      21545.571      5244.4315      6973.9693      6442.7748      730.87677     -231.09538     -618.60943    
 121348000   251.90586     -415.19446     -330.82791     -415.14751      0              6188.7373      30.933001      21.326696      32.500781      21440.723      4832.6246      8279.1953      5454.3921      820.08707      336.70391     -740.55962    
 121350000   249.75129     -413.10326     -329.4583      -413.05066      0              6708.4526      30.933001      21.326696      32.738609      21597.618      6403.1572      6075.7828      7646.4178      1844.2328      44.493292      714.6924     
 121352000   249.84337     -414.8846      -331.20879     -414.82432      0              4096.9513      30.933001      21.326696      32.802404      21639.703      5051.4326      2424.7747      4814.6465     -216.05669     -699.06398     -18.085386    
 121354000   248.44715     -416.54319     -333.335       -416.4965       0              3609.994       30.933001      21.326696      32.812168      21646.145      3710.7945      4189.791       2929.3964      340.94218     -94.103029      270.60477    
 121356000   251.89382     -413.77991     -329.41739     -413.71674      0              6525.1395      30.933001      21.326696      32.564117      21482.506      4729.0505      8120.1367      6726.2313      1726.3304     -1492.0788      76.986706    
 121358000   252.39266     -412.72969     -328.2001      -412.66927      0              6774.4662      30.933001      21.326696      32.566904      21484.345      7475.2029      6812.8902      6035.3055      1082.2468      747.80238      212.31314    
 121360000   245.86833     -415.67688     -333.33238     -415.6184       0              8442.5101      30.933001      21.326696      32.297757      21306.789      10294.474      7150.3419      7882.7141      1602.8664      1474.6188      567.48377    
 121362000   257.44471     -413.32215     -327.10057     -413.29051      0              6809.5688      30.933001      21.326696      32.445927      21404.536      7173.6948      6693.8722      6561.1395      45.169174      343.4064       321.53993    
 121364000   250.21993     -416.42396     -332.62204     -416.39155      0              8475.2885      30.933001      21.326696      32.551074      21473.902      9155.9549      7765.6161      8504.2946      2053.61       -1909.2436      589.60749    
 121366000   242.55272     -414.3674      -333.13333     -414.31669      0              7100.439       30.933001      21.326696      32.660436      21546.048      6346.2075      8283.3127      6671.7967     -788.84931     -2407.7703     -1032.214     
 121368000   249.02753     -415.29616     -331.8936      -415.24307      0              5613.9136      30.933001      21.326696      32.482335      21428.555      7285.9392      4974.815       4580.9867      93.073157     -976.62833      579.34393    
 121370000   250.01151     -416.45971     -332.72759     -416.39694      0              5994.1038      30.933001      21.326696      32.365593      21351.54       7510.0426      5188.5591      5283.7096      23.084476     -435.99916     -98.062978    
 121372000   250.63844     -415.03022     -331.08814     -414.976        0              7299.3214      30.933001      21.326696      32.277203      21293.229      6337.0393      7533.663       8027.2618      1390.5552      568.9609      -95.328981    
 121374000   254.81424     -415.56128     -330.22066     -415.49924      0              5946.4055      30.933001      21.326696      32.619176      21518.829      4155.6512      6220.8935      7462.6719     -218.74246      489.57619      371.76866    
 121376000   254.6349      -415.84305     -330.5625      -415.78049      0              6087.7927      30.933001      21.326696      32.54604       21470.581      5814.4467      6089.5816      6359.3498     -523.24251      812.5881       340.92158    
 121378000   251.28582     -413.34285     -329.18395     -413.28055      0              6435.5243      30.933001      21.326696      32.553614      21475.577      4171.456       8340.9416      6794.1753      407.30661     -1650.2549      841.57251    
 121380000   250.33344     -415.26204     -331.42211     -415.19957      0              3218.2382      30.933001      21.326696      32.702523      21573.812      3222.5355      3198.5562      3233.6228      1495.2847     -36.464416     -1323.9423    
 121382000   248.01893     -415.31225     -332.24747     -415.27097      0              5917.9849      30.933001      21.326696      32.633005      21527.951      5206.5555      8054.3693      4493.0299     -786.90244      719.80686     -1563.1602    
 121384000   249.45497     -415.00551     -331.45979     -414.9428       0              6551.8474      30.933001      21.326696      32.612413      21514.367      7105.4514      5451.8118      7098.279       24.584336     -1352.6349     -751.90426    
 121386000   253.11779     -413.94594     -329.17349     -413.88391      0              5026.1546      30.933001      21.326696      32.626331      21523.548      5877.8617      4819.5525      4381.0495      1036.8928     -1706.481      -1581.9234    
 121388000   250.40642     -415.53027     -331.66589     -415.47013      0              7209.2339      30.933001      21.326696      32.496698      21438.03       7059.5845      9524.5311      5043.586       282.46511     -117.78671     -166.68615    
 121390000   250.63105     -414.43588     -330.49627     -414.37324      0              6675.7643      30.933001      21.326696      32.37276       21356.268      5264.9001      5364.6106      9397.7823      356.87432      728.48613     -1472.0754    
 121392000   256.83281     -414.44053     -328.42388     -414.40109      0              6186.7171      30.933001      21.326696      32.354786      21344.41       8760.418       6222.9485      3576.7847      34.08157       196.68603     -1769.5948    
 121394000   248.26656     -414.3594      -331.21169     -414.29743      0              7410.2157      30.933001      21.326696      32.394645      21370.705      7397.7452      9656.4742      5176.4278     -772.89692      979.06619     -286.73824    
 121396000   246.0632      -413.2946      -330.88483     -413.23378      0              7977.243       30.933001      21.326696      32.475179      21423.833      8981.1813      6043.7933      8906.7544     -386.52124     -1110.1631     -503.05509    
 121398000   246.23011     -414.6521      -332.18643     -414.59171      0              7092.6344      30.933001      21.326696      32.548407      21472.142      6886.3827      6373.1762      8018.3443     -542.72348      113.56473     -247.39154    
 121400000   254.91431     -413.87422     -328.50009     -413.82373      0              6107.8799      30.933001      21.326696      32.556069      21477.196      5999.4364      6161.0688      6163.1346     -612.48646      87.737248     -791.31023    
 121402000   246.36308     -416.43377     -333.92356     -416.37128      0              5606.9188      30.933001      21.326696      32.537248      21464.78       5406.5151      5934.892       5479.3494     -1396.3889     -357.86457     -376.49508    
 121404000   253.06514     -414.51384     -329.75903     -414.47133      0              4993.6422      30.933001      21.326696      32.33561       21331.76       4753.4723      6227.5168      3999.9374     -609.22517      1625.361       199.17527    
 121406000   255.96238     -414.71485     -328.98972     -414.66485      0              6595.8525      30.933001      21.326696      32.399423      21373.857      5155.8515      7922.0655      6709.6405      426.3861      -767.95215      1408.4287    
 121408000   255.27764     -415.67917     -330.18336     -415.617        0              7104.8128      30.933001      21.326696      32.483021      21429.007      6447.3085      7843.489       7023.641       201.81378     -407.30541     -553.78972    
 121410000   253.68498     -415.94943     -330.98702     -415.88781      0              6603.8223      30.933001      21.326696      32.470384      21420.671      7633.1152      6945.6479      5232.7038     -1346.9819      602.39248     -728.13355    
 121412000   247.88642     -414.26511     -331.24472     -414.22032      0              6274.8621      30.933001      21.326696      32.442394      21402.205      6225.739       8420.2235      4178.6236     -844.54149      1045.8448      630.79213    
 121414000   246.57634     -415.76257     -333.18094     -415.69978      0              7730.5257      30.933001      21.326696      32.479902      21426.95       7325.4552      7542.3298      8323.7923     -676.00014     -478.99423      1613.4112    
 121416000   247.71133     -416.87172     -333.90996     -416.81108      0              8163.0653      30.933001      21.326696      32.276249      21292.6        8315.3982      7428.192       8745.6058     -1377.2916      1849.8713     -2004.7863    
 121418000   248.8171      -413.16848     -329.83639     -413.10679      0              5304.7962      30.933001      21.326696      32.479136      21426.444      5698.3391      6284.1919      3931.8576      1586.868      -525.05004     -1172.9985    
 121420000   243.89714     -416.53324     -334.84891     -416.47111      0              6426.216       30.933001      21.326696      32.463057      21415.837      8274.4683      4737.4631      6266.7165     -1029.2006      307.38149     -768.81863    
 121422000   251.47723     -414.17919     -329.95619     -414.11643      0              6800.9421      30.933001      21.326696      32.653469      21541.451      9427.2537      4876.5187      6099.0538     -1034.337      -1714.2713     -346.09161    
 121424000   256.04414     -416.67573     -330.92321     -416.61461      0              4797.7594      30.933001      21.326696      32.369865      21354.358      5737.6922      3780.8699      4874.716      -25.311719      1025.4864      9.2139349    
 121426000   251.78249     -415.28993     -330.96469     -415.2431       0              6151.3067      30.933001      21.326696      32.369703      21354.251      7064.9314      6626.4427      4762.546      -249.00478      1208.9137     -2392.3763    
 121428000   248.94583     -414.00411     -330.6289      -413.94343      0              6517.5281      30.933001      21.326696      32.269728      21288.298      6094.7817      7632.6308      5825.1718      1582.3993      778.48953     -200.15984    
 121430000   250.36132     -415.63061     -331.78134     -415.56849      0              8922.4133      30.933001      21.326696      32.417321      21385.665      7975.4227      9356.2995      9435.5178     -1119.1363      650.30004     -1715.6345    
 121432000   254.99121     -415.83596     -330.43608     -415.77323      0              5773.7729      30.933001      21.326696      32.44611       21404.657      6007.7392      5044.0047      6269.5747     -212.60766      893.92678     -1539.4175    
 121434000   247.26952     -415.47452     -332.66074     -415.42435      0              5743.8579      30.933001      21.326696      32.469115      21419.833      7097.762       5061.7099      5072.102      -593.12431      294.47893      268.98225    
 121436000   249.11239     -415.74429     -332.31331     -415.68477      0              6421.0486      30.933001      21.326696      32.523555      21455.747      6027.3749      4928.0419      8307.729       4.2565075      523.31428     -1428.4749    
 121438000   242.23011     -416.58823     -335.4622      -416.53388      0              2567.8789      30.933001      21.326696      32.561754      21480.947      4266.9247      1038.7185      2397.9937     -1752.6065     -289.53055      58.100224    
 121440000   249.85339     -420.81369     -337.13453     -420.76167      0              7895.7477      30.933001      21.326696      32.409799      21380.702      9707.7393      6550.2397      7429.2641     -271.23732      300.5049       439.17517    
 121442000   249.54379     -415.30745     -331.73198     -415.25861      0              6194.9266      30.933001      21.326696      32.479441      21426.645      5180.5859      6404.4096      6999.7843     -1105.7667     -443.91368      617.03595    
 121444000   247.17976     -417.57254     -334.78882     -417.53221      0              6620.2525      30.933001      21.326696      32.509691      21446.601      6457.4022      5355.8401      8047.5153     -470.74562     -1075.7131      1567.3918    
 121446000   251.51349     -416.78412     -332.54898     -416.73482      0              6266.1353      30.933001      21.326696      32.419711      21387.241      8283.5306      5397.622       5117.2533      1184.5469     -837.79496      1509.5411    
 121448000   250.88732     -415.94763     -331.9222      -415.88483      0              6918.8254      30.933001      21.326696      32.495094      21436.972      6397.433       7358.7101      7000.333      -1726.4         654.73439      282.54368    
 121450000   252.51436     -413.62418     -329.05383     -413.56642      0              6986.6789      30.933001      21.326696      32.447971      21405.884      7627.9923      6731.8176      6600.2267     -95.742633     -632.60902      276.44024    
 121452000   245.0067      -416.64541     -334.58947     -416.58518      0              4816.0783      30.933001      21.326696      32.502739      21442.015      5856.2284      5700.241       2891.7653     -319.03459     -843.25183      676.47563    
 121454000   253.41257     -417.12654     -332.25536     -417.0704       0              5791.388       30.933001      21.326696      32.545284      21470.082      5769.0544      4938.2099      6666.8996     -1464.557      -614.52285     -569.99917    
 121456000   248.0068      -418.28596     -335.22525     -418.2283       0              5580.1886      30.933001      21.326696      32.521861      21454.629      5716.0183      6357.4944      4667.0531      1477.017      -2064.2352      242.71906    
 121458000   249.33936     -417.03944     -333.53244     -416.97679      0              6823.1942      30.933001      21.326696      32.476099      21424.44       5058.072       7242.5057      8169.005      -1483.091       746.34988     -1739.3315    
 121460000   251.7585      -415.62723     -331.31003     -415.57185      0              6281.3886      30.933001      21.326696      32.459526      21413.508      6746.8919      5432.4915      6664.7824     -184.14353      476.57613     -1005.2348    
 121462000   256.1144      -419.62614     -333.85009     -419.56632      0              7095.0856      30.933001      21.326696      32.640576      21532.946      7912.6457      7109.4868      6263.1243      1335.9211      269.55239     -472.20542    
 121464000   250.96782     -418.80716     -334.75476     -418.74987      0              4691.2334      30.933001      21.326696      32.517859      21451.989      2874.4976      4455.2899      6743.9128     -498.92678      1007.718      -1017.9957    
 121466000   243.3825      -419.29304     -337.78107     -419.24079      0              6574.4251      30.933001      21.326696      32.368888      21353.713      6214.022       6647.298       6861.9552      321.73295     -622.47029      1252.0754    
 121468000   248.40944     -415.36853     -332.17297     -415.32987      0              4969.2696      30.933001      21.326696      32.430771      21394.538      5595.4561      3597.3047      5715.0479      507.40684     -1232.4135     -1092.2961    
 121470000   250.94108     -416.95474     -332.9113      -416.89981      0              6247.5498      30.933001      21.326696      32.467877      21419.016      6087.2749      6798.4284      5856.946       56.336459     -418.44424      26.073528    
 121472000   249.27253     -416.17569     -332.69108     -416.12479      0              5786.7986      30.933001      21.326696      32.460572      21414.198      5739.2233      5132.1484      6489.0242     -174.93336     -424.2921       254.51995    
 121474000   248.75661     -416.24399     -332.93215     -416.18136      0              8232.9661      30.933001      21.326696      32.548165      21471.983      11035.593      7548.5151      6114.7907     -1027.241      -777.06498      107.41837    
 121476000   257.43727     -415.9966      -329.7775      -415.94296      0              5499.1585      30.933001      21.326696      32.634745      21529.099      5862.0249      5490.5103      5144.9402     -894.09954      1637.4391     -599.38901    
 121478000   256.18346     -415.47947     -329.68029     -415.41653      0              7682.3035      30.933001      21.326696      32.718482      21584.34       6750.3659      8162.2235      8134.321      -175.79873      998.05233      33.224839    
 121480000   244.77475     -417.74891     -335.77066     -417.68626      0              5222.5311      30.933001      21.326696      32.572831      21488.254      5863.0149      4467.1088      5337.4695     -24.653163      717.44731      718.68679    
 121482000   249.91698     -417.93538     -334.23493     -417.87823      0              6901.9736      30.933001      21.326696      32.439482      21400.284      6145.3482      8355.6735      6204.899      -2222.2229      371.30134      992.18692    
 121484000   252.20882     -416.57021     -332.10219     -416.50964      0              8918.2939      30.933001      21.326696      32.577224      21491.153      8460.1823      9732.918       8561.7814     -1078.6653      995.27046      739.30212    
 121486000   254.50322     -414.82958     -329.59313     -414.77203      0              3417.1804      30.933001      21.326696      32.528655      21459.112      2526.431       5491.1106      2233.9995      1354.8246      54.695806      386.55554    
 121488000   248.74464     -413.69532     -330.3875      -413.64446      0              6759.1245      30.933001      21.326696      32.468634      21419.516      7986.139       6900.7733      5390.4613      84.045382     -648.37225      583.85388    
 121490000   256.92468     -416.48712     -330.4397      -416.4242       0              6258.2225      30.933001      21.326696      32.574595      21489.418      5504.2392      6963.2851      6307.1431     -554.88294     -147.18404      73.96284     
 121492000   250.7468      -415.0794      -331.10102     -415.02697      0              6167.2813      30.933001      21.326696      32.563839      21482.323      4747.3654      7027.667       6726.8115     -1223.6806      692.31059      726.25544    
 121494000   247.80232     -417.23827     -334.24605     -417.17555      0              5056.7134      30.933001      21.326696      32.442011      21401.953      4916.2745      5766.4919      4487.374      -1005.1693      1476.8282     -388.82674    
 121496000   245.15697     -413.63249     -331.52623     -413.58665      0              5393.449       30.933001      21.326696      32.450687      21407.676      7098.5875      5232.266       3849.4935      1414.1675      72.860175     -1293.6116    
 121498000   249.64416     -415.97942     -332.37034     -415.94568      0              6778.6868      30.933001      21.326696      32.431811      21395.224      7834.7244      5834.3901      6666.9458     -1337.8997      451.67684      636.15532    
 121500000   250.25122     -415.79395     -331.98155     -415.75564      0              7176.2665      30.933001      21.326696      32.383902      21363.618      5771.9766      7008.4264      8748.3964     -45.48062       2267.57       -3.8592867    
 121502000   244.31201     -415.51353     -333.69026     -415.4584       0              5544.4625      30.933001      21.326696      32.509807      21446.678      6754.1888      6159.868       3719.3307      1393.6771      49.157053     -460.46776    
 121504000   248.1077      -415.93071     -332.83621     -415.89286      0              5685.6224      30.933001      21.326696      32.48499       21430.306      6454.6496      6506.1864      4096.0312      1946.7894     -128.58768      2612.3208    
 121506000   255.34092     -414.44857     -328.93156     -414.39126      0              6764.4625      30.933001      21.326696      32.370311      21354.652      7534.3153      7183.2999      5575.7723      194.92631     -968.23227      1088.0464    
 121508000   245.00715     -416.74656     -334.69048     -416.68371      0              3828.2757      30.933001      21.326696      32.504415      21443.121      3945.6042      2821.0488      4718.1743     -1276.6874     -2422.6483      678.78679    
 121510000   250.50124     -415.21861     -331.32248     -415.15986      0              7366.5225      30.933001      21.326696      32.423032      21389.433      6630.1012      8643.9257      6825.5407      1347.6756      566.10364     -650.78226    
 121512000   250.21794     -416.1661      -332.36485     -416.1238       0              8994.7564      30.933001      21.326696      32.303568      21310.622      8192.2721      8071.9009      10720.096     -790.69304      513.17623     -1059.666     
 121514000   248.11834     -413.56536     -330.4673      -413.50371      0              5548.515       30.933001      21.326696      32.459283      21413.347      4720.9171      5378.4964      6546.1314     -383.56271      74.654202     -314.39684    
 121516000   245.78149     -416.5015      -334.18607     -416.45441      0              7080.0217      30.933001      21.326696      32.423119      21389.489      7118.2655      7621.0427      6500.757      -397.61386      432.71388     -574.92803    
 121518000   246.78653     -418.74105     -336.08903     -418.69225      0              6365.1292      30.933001      21.326696      32.609407      21512.384      5080.7561      6483.2802      7531.3513      1213.4545     -856.37301     -1786.1422    
 121520000   246.8118      -415.7633      -333.10281     -415.70707      0              6043.1436      30.933001      21.326696      32.520179      21453.52       7630.7673      5286.3472      5212.3164     -886.8599       94.464802      702.98598    
 121522000   249.93703     -412.68395     -328.97678     -412.62332      0              7636.529       30.933001      21.326696      32.513969      21449.423      7974.3559      6065.1114      8870.1199      1055.6691      490.1723      -322.02276    
 121524000   247.58462     -417.19673     -334.27741     -417.1523       0              7139.3861      30.933001      21.326696      32.513691      21449.24       8313.4516      6539.3191      6565.3876     -89.217917     -356.95913      91.379512    
 121526000   249.21918     -416.99481     -333.52806     -416.94149      0              5656.627       30.933001      21.326696      32.381013      21361.712      5895.0313      5714.1522      5360.6974      471.67978      1526.2678     -822.75004    
 121528000   248.39375     -414.79996     -331.60965     -414.74518      0              7427.0689      30.933001      21.326696      32.459774      21413.671      7446.3864      6515.8769      8318.9434      602.07898     -161.26644      629.87344    
 121530000   251.24486     -414.92107     -330.77589     -414.86407      0              5668.6344      30.933001      21.326696      32.547285      21471.402      5037.4251      5893.7638      6074.7142      1150.0985      230.95903     -470.13196    
 121532000   246.78315     -414.18342     -331.53253     -414.12082      0              4284.6466      30.933001      21.326696      32.479737      21426.84       2567.6674      3855.8963      6430.376      -119.12928      899.13318     -418.51768    
 121534000   255.64205     -413.31911     -327.70125     -413.277        0              6721.5011      30.933001      21.326696      32.472787      21422.255      7344.716       7608.1834      5211.6038      1044.9024     -1286.7703     -666.75743    
 121536000   252.58757     -415.77115     -331.17628     -415.73074      0              6763.3406      30.933001      21.326696      32.612616      21514.501      6783.9036      6941.6217      6564.4965     -1117.6203     -1075.7404      1373.586     
 121538000   254.49863     -416.18471     -330.9498      -416.13173      0              4388.8118      30.933001      21.326696      32.600544      21506.537      3802.2009      4486.5171      4877.7175     -1244.5232      51.246867      469.61536    
 121540000   249.46429     -416.39088     -332.84204     -416.35362      0              4779.0427      30.933001      21.326696      32.475162      21423.823      2990.6656      6689.8145      4656.648       777.18472      118.86626     -744.86168    
 121542000   248.40303     -416.39221     -333.1988      -416.33394      0              4630.448       30.933001      21.326696      32.559385      21479.385      6584.4457      3231.6893      4075.2091     -896.33364      1402.871       1384.6463    
 121544000   249.65977     -417.72623     -334.11192     -417.68711      0              5672.3674      30.933001      21.326696      32.674713      21555.466      6359.9265      4821.3337      5835.8421      300.31171     -138.66986      2017.2584    
 121546000   250.22065     -418.48702     -334.68486     -418.4535       0              7009.0608      30.933001      21.326696      32.395458      21371.242      6861.0431      6369.25        7796.8894     -722.83965      643.33709      1310.8029    
 121548000   242.60557     -416.56664     -335.31488     -416.51844      0              6470.3088      30.933001      21.326696      32.465793      21417.642      8214.0876      2809.7307      8387.1081      518.06593      129.5877       1591.4255    
 121550000   253.36204     -419.20351     -334.34925     -419.14919      0              4954.9042      30.933001      21.326696      32.414697      21383.933      6423.2538      3271.7219      5169.7368     -1119.756       203.64591     -1437.2121    
 121552000   252.60338     -415.28685     -330.68668     -415.23886      0              8291.6485      30.933001      21.326696      32.423321      21389.623      6979.7539      10257.507      7637.6843      1327.151      -173.79532     -217.69661    
 121554000   247.02422     -416.00198     -333.27035     -415.93924      0              3936.5359      30.933001      21.326696      32.454767      21410.368      1644.989       3571.1235      6593.495       1104.1395     -1630.9948      301.66007    
 121556000   247.01609     -414.95723     -332.22832     -414.89838      0              6034.3594      30.933001      21.326696      32.403102      21376.285      5486.2606      6884.2104      5732.6074     -92.677893     -151.62813      212.71494    
 121558000   254.98143     -414.37757     -328.98097     -414.31477      0              8475.0264      30.933001      21.326696      32.552222      21474.659      9582.2631      7999.1155      7843.7005     -1451.041       167.07889     -1961.3626    
 121560000   247.82048     -417.81413     -334.81582     -417.7585       0              4626.0225      30.933001      21.326696      32.438779      21399.821      3425.1         5873.81        4579.1576     -114.8182      -783.90588      1319.4426    
 121562000   251.48958     -417.00491     -332.77777     -416.94894      0              8805.3558      30.933001      21.326696      32.447618      21405.652      10900.988      8601.2769      6913.8027      58.670143     -252.92511      288.63407    
 121564000   246.07264     -417.92564     -335.51271     -417.86994      0              6263.2172      30.933001      21.326696      32.553373      21475.418      5439.4348      6304.4736      7045.7432      355.68796     -880.86588      1877.447     
 121566000   248.86387     -413.6442      -330.29644     -413.58671      0              7982.7793      30.933001      21.326696      32.34735       21339.505      7026.4987      9500.44        7421.3992      167.62674      315.72582     -1877.2481    
 121568000   255.44895     -415.63529     -330.08211     -415.59086      0              6872.4297      30.933001      21.326696      32.21165       21249.984      4291.009       8702.4755      7623.8044     -389.51355     -437.39427      1214.7049    
 121570000   250.58641     -417.72866     -333.80401     -417.68117      0              7632.3465      30.933001      21.326696      32.192482      21237.339      9042.3347      7674.1101      6180.5945      109.7249      -1356.5371     -476.2071     
 121572000   248.80941     -416.99176     -333.66224     -416.94525      0              5168.1833      30.933001      21.326696      32.271933      21289.753      5887.9575      4332.8445      5283.7479     -1399.4702     -1089.8989      65.815455    
 121574000   252.02953     -419.36277     -334.95479     -419.31848      0              6409.1733      30.933001      21.326696      32.35623       21345.363      6506.5764      7015.2943      5705.6493      818.40509     -590.2696       1653.0145    
 121576000   252.56308     -414.6788      -330.09213     -414.62251      0              6757.746       30.933001      21.326696      32.345354      21338.188      7171.4665      6584.5879      6517.1837      93.723935      307.41545      599.9565     
 121578000   249.07354     -417.30403     -333.88605     -417.25442      0              2806.212       30.933001      21.326696      32.345051      21337.988      2284.1071      4518.4841      1616.0448      874.98647     -481.97216      358.62505    
 121580000   242.29082     -413.81148     -332.66512     -413.75311      0              8852.3271      30.933001      21.326696      32.310906      21315.463      9449.795       9379.5605      7727.6259      875.47505     -856.72476     -1105.6039    
 121582000   249.49063     -417.75236     -334.19469     -417.70928      0              6594.513       30.933001      21.326696      32.362891      21349.757      6407.0686      5510.7953      7865.6751      270.50713      297.85752     -1052.5366    
 121584000   247.46873     -413.81109     -330.93059     -413.75377      0              4891.1795      30.933001      21.326696      32.413313      21383.021      3444.4747      8057.6788      3171.3849     -57.631729     -1847.3265     -394.41521    
 121586000   249.33        -416.42837     -332.9245      -416.39291      0              5529.1659      30.933001      21.326696      32.395511      21371.277      4446.9096      6884.3774      5256.2106      2631.5049      422.27936     -407.13491    
 121588000   249.11487     -415.7141      -332.28229     -415.65162      0              6911.2043      30.933001      21.326696      32.48294       21428.953      8727.5013      6202.004       5804.1075     -221.53806     -501.53267     -327.07395    
 121590000   252.40079     -416.91795     -332.38563     -416.85666      0              4863.2982      30.933001      21.326696      32.545934      21470.51       7254.1737      3617.6085      3718.1124      254.65239      585.51255     -443.07758    
 121592000   245.16856     -415.67635     -333.5662      -415.62316      0              5205.0681      30.933001      21.326696      32.432864      21395.919      6250.3168      4663.5634      4701.3241     -1878.515       354.80187      875.25372    
 121594000   254.04792     -416.31076     -331.2268      -416.2588       0              7921.9335      30.933001      21.326696      32.427558      21392.418      10299.103      6766.2099      6700.4872     -187.08994     -860.31343      982.62765    
 121596000   247.68094     -415.3462      -332.39462     -415.29622      0              5749.6674      30.933001      21.326696      32.438513      21399.645      8715.6936      4410.7589      4122.5497      187.93996     -556.85415     -1172.904     
 121598000   250.97304     -414.64552     -330.59138     -414.60515      0              7660.25        30.933001      21.326696      32.434667      21397.108      8371.451       7251.0766      7358.2222     -1087.408      -1178.1772      574.05561    
 121600000   237.63603     -416.03878     -336.45137     -415.98634      0              5709.0414      30.933001      21.326696      32.302458      21309.89       6183.1805      5659.977       5283.9667     -814.69855      588.93936     -12.281055    
 121602000   251.59133     -417.84234     -333.58112     -417.78361      0              7123.9556      30.933001      21.326696      32.331994      21329.375      8583.5238      7553.8957      5234.4473      1492.1764      847.46131     -1457.8946    
 121604000   254.28724     -413.85        -328.68589     -413.78733      0              6485.1641      30.933001      21.326696      32.408581      21379.899      5927.1833      8207.1421      5321.1669     -73.915985      625.56708     -8.2945718    
 121606000   253.68434     -414.6123      -329.65011     -414.54963      0              5508.7643      30.933001      21.326696      32.448176      21406.02       6275.214       5291.7377      4959.341      -1782.3636      1561.4443     -1052.0047    
 121608000   249.16924     -414.07657     -330.62654     -414.02075      0              6444.1353      30.933001      21.326696      32.250165      21275.392      5672.1043      5574.9167      8085.3851      864.7784       883.10528     -196.52156    
 121610000   248.48052     -417.81552     -334.59616     -417.76551      0              7200.5458      30.933001      21.326696      32.371419      21355.383      8675.5839      7080.3931      5845.6604      83.11956      -467.81095      558.74649    
 121612000   251.8899      -414.39342     -330.03221     -414.34754      0              8041.6886      30.933001      21.326696      32.23988       21268.607      8087.042       8515.0774      7522.9462     -1056.5371     -875.41322      321.04733    
 121614000   253.49132     -416.0823      -331.18475     -416.04608      0              4871.5525      30.933001      21.326696      32.180493      21229.43       5502.8352      4585.8876      4525.9347      1279.9258     -1115.0033      502.20356    
 121616000   251.14484     -413.75601     -329.64433     -413.71849      0              5671.201       30.933001      21.326696      32.338567      21333.711      8177.7231      5392.5197      3443.3601      1514.3869      1457.9666     -893.78918    
 121618000   253.81098     -416.12239     -331.11778     -416.0881       0              8259.1796      30.933001      21.326696      32.421792      21388.614      9942.1467      5675.9093      9159.4827      588.6148      -1775.9062      777.47115    
 121620000   255.08245     -418.09785     -332.66741     -418.03619      0              6520.8544      30.933001      21.326696      32.412987      21382.806      6125.1863      7454.1166      5983.2604      1929.2505     -993.52429      934.06956    
 121622000   248.32226     -414.47691     -331.31055     -414.42153      0              6366.5656      30.933001      21.326696      32.456847      21411.74       5284.6958      8426.556       5388.4451     -865.27499     -673.47293      2779.3104    
 121624000   251.75521     -415.2301      -330.914       -415.17741      0              4756.8512      30.933001      21.326696      32.654436      21542.089      4233.6357      5922.0601      4114.8579     -2074.6992      809.1211       1216.0978    
 121626000   248.53549     -416.83945     -333.60168     -416.78208      0              7722.7102      30.933001      21.326696      32.427778      21392.563      7240.0652      8895.2588      7032.8067      2127.7505      24.346716      861.07999    
 121628000   258.99135     -416.80605     -330.06647     -416.76155      0              3910.6211      30.933001      21.326696      32.396842      21372.155      3397.8558      4528.4119      3805.5955      122.50657      1221.791      -702.23991    
 121630000   255.84341     -415.48157     -329.79628     -415.42953      0              6400.8931      30.933001      21.326696      32.560047      21479.821      6058.1315      6593.3068      6551.2411      688.15285      0.79430322    -377.50537    
 121632000   247.2119      -413.70935     -330.91487     -413.66149      0              7308.1348      30.933001      21.326696      32.473323      21422.61       8651.0118      7153.5489      6119.8438      1231.4083      14.231079      538.97251    
 121634000   251.66288     -416.06798     -331.78281     -416.01148      0              4965.6527      30.933001      21.326696      32.490041      21433.638      4904.669       4323.5729      5668.7161     -727.91368      280.50074      585.45826    
[...]
 128384000   248.79348     -420.25823     -336.93405     -420.25663      0              6941.1319      30.933001      21.326696      32.598274      21505.039      7735.2554      6454.3371      6633.8032      325.2093      -1119.6755      259.36482    
 128386000   255.2438      -422.04009     -336.55561     -422.03491      0              6496.5302      30.933001      21.326696      32.507088      21444.884      5155.2234      6719.8718      7614.4955     -416.51015      94.98023      -789.91178    
 128388000   250.06571     -422.1939      -338.44363     -422.19607      0              6440.005       30.933001      21.326696      32.480456      21427.315      6629.8777      6490.7531      6199.3843     -460.55194      760.52015     -139.73985    
 128390000   249.26877     -421.30463     -337.82127     -421.31476      0              4852.0182      30.933001      21.326696      32.328544      21327.098      4472.8326      6022.4654      4060.7566      124.96427     -1165.6046      789.44681    
 128392000   244.84839     -416.57167     -334.56876     -416.56995      0              6924.7212      30.933001      21.326696      32.449017      21406.575      5972.2382      7645.7554      7156.1701     -353.18324     -142.14913     -250.35416    
 128394000   243.6342      -418.62915     -337.03288     -418.62345      0              5764.8773      30.933001      21.326696      32.554053      21475.867      5839.5727      5071.4514      6383.6079     -923.24864      943.42279     -302.46044    
 128396000   242.34321     -421.36486     -340.20096     -421.35849      0              7375.0028      30.933001      21.326696      32.614935      21516.03       7511.1497      8019.9205      6593.9382      838.848       -1874.1643     -1170.0498    
 128398000   246.1746      -423.1647      -340.71761     -423.16239      0              5269.383       30.933001      21.326696      32.594055      21502.256      5251.367       6739.2991      3817.4828      663.40484     -1368.9641     -945.9933     
 128400000   252.00083     -422.56385     -338.16548     -422.56037      0              5703.5026      30.933001      21.326696      32.572522      21488.051      4969.4694      5016.1966      7124.8417      144.45533      775.94143      1043.1463    
 128402000   245.58283     -418.83713     -336.58824     -418.83889      0              4793.5881      30.933001      21.326696      32.440189      21400.751      5656.5606      4692.4214      4031.7824      526.88875      71.771916     -998.01591    
 128404000   245.27646     -423.29876     -341.15247     -423.2991       0              5738.6954      30.933001      21.326696      32.469518      21420.099      6296.3784      5168.9918      5750.7158      558.30591      165.87962      348.40015    
 128406000   249.83621     -422.06637     -338.39296     -422.06342      0              6470.3216      30.933001      21.326696      32.459444      21413.453      7116.0293      5660.5513      6634.3843      223.89237      826.37572      1096.6468    
 128408000   254.30746     -419.55756     -334.38668     -419.5541       0              6443.3854      30.933001      21.326696      32.404084      21376.932      4739.0802      6904.9186      7686.1573      970.59749      1438.0693      504.7019     
 128410000   250.94551     -418.60183     -334.55691     -418.60421      0              7275.3361      30.933001      21.326696      32.230873      21262.665      7595.7426      9251.6129      4978.6528      1406.6778     -23.460541     -893.59298    
 128412000   249.58769     -419.16366     -335.57348     -419.1728       0              6468.944       30.933001      21.326696      32.260471      21282.191      6447.5298      7071.9639      5887.3382     -1978.4301      1536.3855     -1608.8821    
 128414000   251.78172     -421.83588     -337.5109      -421.84066      0              6087.2366      30.933001      21.326696      32.479251      21426.52       5938.8293      6620.6044      5702.276       1074.172       2263.0088     -128.29601    
 128416000   251.25833     -419.72715     -335.57746     -419.72578      0              6162.4195      30.933001      21.326696      32.539054      21465.972      6410.4107      6383.3958      5693.4521     -366.4158       1073.2817     -3141.5456    
 128418000   247.41595     -421.02049     -338.15766     -421.02232      0              7268.5992      30.933001      21.326696      32.35719       21345.997      5975.1913      8457.6632      7372.9431      291.81687     -982.06967     -1425.4795    
 128420000   247.05697     -420.57924     -337.83664     -420.58708      0              3839.0663      30.933001      21.326696      32.427266      21392.226      3460.0851      3665.0013      4392.1124      823.84739     -1885.281       327.29359    
 128422000   247.8302      -419.64308     -336.64152     -419.63607      0              6386.1566      30.933001      21.326696      32.579207      21492.461      6712.5636      8062.5836      4383.3226     -707.55259     -1710.8443     -75.965517    
 128424000   241.71485     -422.62859     -341.67514     -422.634        0              5347.3918      30.933001      21.326696      32.409703      21380.639      2402.9035      6391.2732      7247.9986     -156.03793      779.91905     -1728.3225    
 128426000   246.49492     -419.56406     -337.0097      -419.57403      0              6903.6677      30.933001      21.326696      32.459301      21413.359      6308.2948      7405.5358      6997.1726     -31.302585      324.15809     -966.5833     
 128428000   244.47881     -418.95849     -337.07935     -418.95808      0              6781.9559      30.933001      21.326696      32.448009      21405.91       7235.4876      7213.1132      5897.2669      96.368184     -144.71154     -846.78919    
 128430000   246.04872     -419.37581     -336.97089     -419.37636      0              6013.9231      30.933001      21.326696      32.400072      21374.286      5520.1429      7060.0482      5461.5782      873.13684     -35.004026      100.15642    
 128432000   250.44415     -421.08814     -337.21113     -421.09507      0              5261.9946      30.933001      21.326696      32.510714      21447.276      6580.3374      5593.2617      3612.3849      1266.6495     -292.85831      689.56047    
 128434000   254.202       -417.8041      -332.66853     -417.80255      0              5079.0071      30.933001      21.326696      32.670593      21552.748      4099.0374      6299.9783      4838.0057     -147.75364     -316.2669      -1129.0603    
 128436000   251.21059     -422.66861     -338.53491     -422.67321      0              5550.3759      30.933001      21.326696      32.558818      21479.01       4211.7112      6761.3923      5678.0241     -119.47564      297.00619      1387.1713    
 128438000   256.77268     -420.7735      -334.77698     -420.78573      0              6813.3698      30.933001      21.326696      32.598616      21505.265      10116.586      5503.3127      4820.2108      1024.3025     -89.561213      743.88693    
 128440000   248.87756     -422.61011     -339.25777     -422.61706      0              7074.9629      30.933001      21.326696      32.37608       21358.458      6572.8147      7280.8406      7371.2333     -1054.5557      800.16681      1018.2588    
 128442000   251.38906     -419.2698      -335.07633     -419.2711       0              5970.0131      30.933001      21.326696      32.385502      21364.674      5011.0078      6341.2695      6557.762       1138.247       1341.4187      1105.196     
 128444000   247.1092      -418.39126     -335.63117     -418.39073      0              7948.0637      30.933001      21.326696      32.450701      21407.686      7612.5609      7786.5232      8445.107      -354.72649     -2390.9517     -1241.0144    
 128446000   247.50938     -421.90563     -339.01151     -421.90836      0              6770.7442      30.933001      21.326696      32.462063      21415.181      5236.1666      6764.4124      8311.6537     -2067.0862      848.39308     -221.5545     
 128448000   251.76585     -417.66758     -333.34791     -417.6652       0              8089.517       30.933001      21.326696      32.232566      21263.782      8284.3156      7353.9462      8630.2892      757.76121     -1225.1203     -782.20975    
 128450000   243.15912     -420.93189     -339.49473     -420.93956      0              6268.9881      30.933001      21.326696      32.378865      21360.296      5607.9612      7595.2769      5603.7262     -1655.2674      483.42873     -475.32302    
 128452000   247.38289     -418.81992     -335.96816     -418.82819      0              5595.0964      30.933001      21.326696      32.470751      21420.912      8101.6611      3817.0421      4866.586      -867.40004     -331.82317     -27.762675    
 128454000   250.57241     -419.10984     -335.18987     -419.10325      0              4888.8859      30.933001      21.326696      32.311037      21315.549      3028.2168      4174.4308      7464.0101      879.58246      1351.4404      356.81244    
 128456000   255.21994     -420.96493     -335.48844     -420.96254      0              5974.6049      30.933001      21.326696      32.289151      21301.111      6135.6817      6120.1314      5668.0014     -561.71081      1278.7815     -2012.1961    
 128458000   249.87811     -418.32594     -334.6385      -418.33529      0              5074.7737      30.933001      21.326696      32.556642      21477.575      6628.1786      3679.1722      4916.9704     -460.14489      501.86925      391.44098    
 128460000   246.14235     -420.18641     -337.75013     -420.19407      0              6224.7607      30.933001      21.326696      32.463348      21416.029      7091.7387      6992.3478      4590.1956      27.086299     -974.69609     -266.33704    
 128462000   250.03563     -418.44754     -334.70734     -418.44941      0              4224.6309      30.933001      21.326696      32.622571      21521.068      4129.5924      5830.7735      2713.5267      1436.0199     -275.88573     -128.77903    
 128464000   248.81824     -418.68647     -335.354       -418.69057      0              5742.0537      30.933001      21.326696      32.534504      21462.97       5162.9858      8374.3155      3688.8599      1263.956      -29.763159     -799.19092    
 128466000   252.94342     -420.70977     -335.99572     -420.72188      0              7168.7814      30.933001      21.326696      32.374058      21357.124      5786.9951      9212.272       6507.0772     -963.72362     -424.77413     -1006.1279    
 128468000   246.16942     -419.76587     -337.32053     -419.77035      0              6223.1491      30.933001      21.326696      32.471287      21421.266      8549.6296      5280.1189      4839.6988      462.57116      533.48538     -750.71812    
 128470000   249.51022     -419.39167     -335.82744     -419.41991      0              8235.7883      30.933001      21.326696      32.299651      21308.038      5946.769       8767.1559      9993.44        238.52019      234.04547      413.30606    
 128472000   252.61034     -418.29249     -333.69        -418.29584      0              6130.9746      30.933001      21.326696      32.405469      21377.846      6604.5264      6207.7407      5580.6566     -306.89563      455.95008      140.67902    
 128474000   242.72167     -419.48024     -338.18958     -419.49665      0              5822.3098      30.933001      21.326696      32.366244      21351.97       5912.5945      5060.7589      6493.5759      575.57393     -638.43334     -391.96758    
 128476000   252.86544     -422.31252     -337.62458     -422.32215      0              7213.4342      30.933001      21.326696      32.372591      21356.156      8241.1718      6859.702       6539.4288      833.38804     -895.66205     -1094.6722    
 128478000   246.45898     -417.69787     -335.15555     -417.71574      0              5720.3532      30.933001      21.326696      32.482322      21428.546      6140.2973      5614.6968      5406.0654     -1187.1683      235.17545     -489.7155     
 128480000   251.29132     -421.31488     -337.15414     -421.32743      0              6565.9862      30.933001      21.326696      32.409687      21380.629      7131.9291      6199.5217      6366.5079      1690.6262      255.04347     -1874.8356    
 128482000   248.05139     -420.05877     -336.98313     -420.07353      0              6344.1176      30.933001      21.326696      32.337376      21332.925      6876.1463      4947.0602      7209.1465     -1028.2185     -674.56268      316.2033     
 128484000   252.165       -422.03        -337.57665     -422.04786      0              7682.5036      30.933001      21.326696      32.438592      21399.697      9436.5065      6448.3549      7162.6492     -501.41898     -2256.2372     -1105.6087    
 128486000   251.24235     -419.97725     -335.83291     -419.98204      0              4755.2178      30.933001      21.326696      32.635083      21529.322      5228.4359      3620.3446      5416.8729     -110.09804     -156.2464      -1969.2176    
 128488000   251.96412     -421.84391     -337.45784     -421.85838      0              6634.393       30.933001      21.326696      32.495189      21437.034      6609.9668      6940.4304      6352.7818      1637.168       1031.8399     -756.54472    
 128490000   244.17829     -420.81063     -339.03214     -420.82657      0              6708.2284      30.933001      21.326696      32.504507      21443.181      5425.9177      6622.7378      8076.0298      1784.8711     -2584.4603     -929.72313    
 128492000   254.90184     -418.1803      -332.81035     -418.19816      0              5792.7788      30.933001      21.326696      32.430745      21394.52       5480.9879      6195.6508      5701.6979     -1520.4226      543.87309     -1425.6743    
 128494000   246.27372     -421.03161     -338.55133     -421.05495      0              7370.0789      30.933001      21.326696      32.370701      21354.91       5934.9887      8409.4488      7765.7992      1130.2621      54.873968      995.09652    
 128496000   250.81274     -419.85193     -335.85147     -419.87585      0              7143.0602      30.933001      21.326696      32.320926      21322.073      6760.1653      7534.6291      7134.3863      114.21454      86.075004      1284.5934    
 128498000   250.42369     -421.82628     -337.95612     -421.84166      0              5472.041       30.933001      21.326696      32.417623      21385.864      6241.9254      4804.1688      5370.0289      398.51931     -528.60377     -1050.2783    
 128500000   253.69002     -420.4007      -335.4366      -420.41179      0              8119.2675      30.933001      21.326696      32.425852      21391.293      7437.872       9850.0175      7069.9128      745.52737      1205.6609     -443.68859    
 128502000   253.4632      -419.78582     -334.89769     -419.80396      0              6194.2444      30.933001      21.326696      32.491913      21434.873      5922.0359      6430.9891      6229.7083     -1157.5472      501.18172     -812.3819     
 128504000   253.73745     -421.21939     -336.23941     -421.23928      0              6795.2702      30.933001      21.326696      32.439987      21400.618      8552.8393      5619.977       6212.9944     -404.22036      794.28887      706.67958    
 128506000   253.82718     -419.22191     -334.21188     -419.2279       0              5658.9073      30.933001      21.326696      32.747397      21603.416      5146.1953      6097.9673      5732.5594     -738.69744     -469.5892       115.94496    
 128508000   257.02479     -418.18871     -332.10776     -418.19873      0              7241.2338      30.933001      21.326696      32.582764      21494.807      7074.1519      7237.6454      7411.9041      2034.942      -529.07969      408.72976    
 128510000   251.78824     -419.1668      -334.83964     -419.17479      0              5455.5424      30.933001      21.326696      32.502638      21441.948      7136.9198      4083.8609      5145.8464     -295.47733      50.205168      1029.0183    
 128512000   254.226       -421.27647     -336.13287     -421.28747      0              5375.9539      30.933001      21.326696      32.468877      21419.676      5087.4828      5811.6648      5228.7142     -794.26484     -1032.4923      1019.9524    
 128514000   257.13432     -420.49308     -334.37544     -420.50802      0              7482.8257      30.933001      21.326696      32.348048      21339.966      7437.582       6617.2376      8393.6576      547.79707      69.954037     -60.219915    
 128516000   247.69097     -422.25163     -339.29669     -422.26855      0              5763.5386      30.933001      21.326696      32.217529      21253.862      6418.5944      5709.0714      5162.95        619.30129     -134.50724     -1407.4069    
 128518000   252.48268     -420.53388     -335.97413     -420.55175      0              7226.7862      30.933001      21.326696      32.401565      21375.271      7743.829       6481.059       7455.4707      484.21018      379.824        698.55391    
 128520000   253.97991     -422.08857     -337.02739     -422.10884      0              5350.1527      30.933001      21.326696      32.379716      21360.857      4836.8675      5046.4847      6167.1058      585.76775     -118.75221      474.80755    
 128522000   246.34394     -419.52746     -337.02366     -419.5422       0              4359.8258      30.933001      21.326696      32.486475      21431.286      5237.8531      5716.9848      2124.6395     -1008.8745      471.30661      701.41574    
 128524000   255.23934     -421.38903     -335.90605     -421.40777      0              6174.5022      30.933001      21.326696      32.478204      21425.829      6886.9804      6905.1534      4731.3728     -109.94806      801.93535     -61.064629    
 128526000   254.98396     -421.03544     -335.63799     -421.04994      0              6955.9701      30.933001      21.326696      32.323846      21323.999      8509.0769      5442.6992      6916.1342     -1407.8604     -2102.2402      1197.1603    
WARNING: Wall time limit reached (../timer.cpp:193)
Loop time of 85795.4 on 4 procs for 7460000 steps with 2592 atoms

Performance: 3.756 ns/day, 6.389 hours/ns, 86.951 timesteps/s
1455.4% CPU use with 4 MPI tasks x no OpenMP threads

MPI task timing breakdown:
Section |  min time  |  avg time  |  max time  |%varavg| %total
---------------------------------------------------------------
Pair    | 20995      | 21051      | 21183      |  52.7 | 24.54
Bond    | 0.73151    | 0.75006    | 0.77502    |   2.2 |  0.00
Neigh   | 632.71     | 642.25     | 653.39     |  32.8 |  0.75
Comm    | 2301.3     | 2444       | 2497.8     | 167.1 |  2.85
Output  | 5594       | 5594       | 5594.1     |   0.0 |  6.52
Modify  | 56040      | 56042      | 56046      |   0.9 | 65.32
Other   |            | 20.91      |            |       |  0.02

Nlocal:            648 ave         660 max         628 min
Histogram: 1 0 0 0 0 0 0 2 0 1
Nghost:        4227.25 ave        4254 max        4206 min
Histogram: 1 1 0 0 0 1 0 0 0 1
Neighs:              0 ave           0 max           0 min
Histogram: 4 0 0 0 0 0 0 0 0 0
FullNghs:       167694 ave      172122 max      160634 min
Histogram: 1 0 0 0 0 0 0 2 0 1

Total # of neighbors = 670774
Ave neighs/atom = 258.78627
Ave special neighs/atom = 0
Neighbor list builds = 149200
Dangerous builds not checked
unfix 3
unfix 1
unfix 2


# Finalize simulation
write_restart	restart.lmp.${pid}
write_restart	restart.lmp.0
System init for write_restart ...
Generated 0 of 1 mixed pair_coeff terms from geometric mixing rule
write_data	data.final.${pid} nocoeff
write_data	data.final.0 nocoeff
System init for write_data ...
Generated 0 of 1 mixed pair_coeff terms from geometric mixing rule
Total wall time: 23:50:09
