LAMMPS (23 Jun 2022)

include procedure.lmp
echo both
include		in.partitions
variable        pid world 0
include		in.temp
variable	temperature equal 250
variable        tempDamp equal 0.100 # this is 0.1 ps
include		in.pressure
variable        pressure equal 6079.5
variable        pressureDamp equal 1.0 #this is 1ps

variable	barostat string	   tri
variable	direction string   z
variable	direction_x_bool equal 0
variable	direction_y_bool equal 0
variable	direction_z_bool equal 1

include		in.seed
variable        seed world 745823

units           metal
atom_style	full
box tilt large
read_restart 	restart.lmp.${pid}
read_restart 	restart.lmp.0
Reading restart file ...
  restart file = 23 Jun 2022, LAMMPS = 23 Jun 2022
  restoring atom style full from restart
  triclinic box = (0 0 -0.72553157) to (30.933001 21.326696 31.682765) with tilt (-9.140633 0.98385872 -10.781817)
WARNING: Triclinic box skew is large (../domain.cpp:224)
  2 by 1 by 2 MPI processor grid
Summary of lammps deepmd module ...
  >>> Info of deepmd-kit:
  installed to:       /u/sigbjobo/software/DEEPMD_FROM_SOURCE/deepmd-kit/install
  source:             v2.1.3
  source branch:       master
  source commit:      5a32c49
  source commit at:   2022-07-01 09:52:58 +0800
  surpport model ver.:1.1 
  build float prec:   double
  build with tf inc:  /u/sigbjobo/software/DEEPMD_FROM_SOURCE/tensorflow/install/include;/u/sigbjobo/software/DEEPMD_FROM_SOURCE/tensorflow/install/include
  build with tf lib:  /u/sigbjobo/software/DEEPMD_FROM_SOURCE/tensorflow/install/lib/libtensorflow_cc.so;/u/sigbjobo/software/DEEPMD_FROM_SOURCE/tensorflow/install/lib/libtensorflow_framework.so
  set tf intra_op_parallelism_threads: 0
  set tf inter_op_parallelism_threads: 0
  >>> Info of lammps module:
  use deepmd-kit at:  /u/sigbjobo/software/DEEPMD_FROM_SOURCE/deepmd-kit/install
  source:             v2.1.3
  source branch:      master
  source commit:      5a32c49
  source commit at:   2022-07-01 09:52:58 +0800
  build float prec:   double
  build with tf inc:  /u/sigbjobo/software/DEEPMD_FROM_SOURCE/tensorflow/install/include;/u/sigbjobo/software/DEEPMD_FROM_SOURCE/tensorflow/install/include
  build with tf lib:  /u/sigbjobo/software/DEEPMD_FROM_SOURCE/tensorflow/install/lib/libtensorflow_cc.so;/u/sigbjobo/software/DEEPMD_FROM_SOURCE/tensorflow/install/lib/libtensorflow_framework.so
  restoring pair style deepmd from restart
  2592 atoms
Finding 1-2 1-3 1-4 neighbors ...
  special bond factors lj:    0        0        0       
  special bond factors coul:  0        0        0       
     0 = max # of 1-2 neighbors
     0 = max # of 1-3 neighbors
     0 = max # of 1-4 neighbors
     1 = max # of special neighbors
  special bonds CPU = 0.000 seconds
  read_restart CPU = 0.055 seconds
include 	in.setup
variable	out_freq equal 2000
variable	out_freq2 equal 2000

timestep        0.0005

neigh_modify    delay 7 every 1

include         in.deepmd
# This is deepMD model

# create groups ###
#group ox type 2
#group hy type 1

mass 2 15.999
mass 1 1.008

pair_style      deepmd ../graph.pb
pair_coeff      * *

bond_style      none
angle_style     none
dihedral_style  none
improper_style  none
neigh_modify exclude none


neighbor        2.0 bin
neigh_modify    every 50 delay 0 check no

thermo          ${out_freq}
thermo          2000
thermo_style 	custom step temp pe etotal epair emol press lx ly lz vol pxx pyy pzz pxy pxz pyz

restart 	${out_freq} restart.lmp.${pid} restart2.lmp.${pid}
restart 	2000 restart.lmp.${pid} restart2.lmp.${pid}
restart 	2000 restart.lmp.0 restart2.lmp.${pid}
restart 	2000 restart.lmp.0 restart2.lmp.0


timer           timeout 23:50:00 every 1000
New timer settings: style=normal  mode=nosync  timeout=23:50:00


# Set number of time steps
variable 	nsteps_wall		equal	 6000000
variable 	nsteps_enhanced_coex    equal	300000000

variable     nsteps_enhanced_coex_upto equal (${nsteps_wall}+${nsteps_enhanced_coex})
variable     nsteps_enhanced_coex_upto equal (6000000+${nsteps_enhanced_coex})
variable     nsteps_enhanced_coex_upto equal (6000000+300000000)


# Set temperature for first step
if "$(step) < 1  " then    "velocity 	all create ${temperature} ${seed} dist gaussian"


# Always run thermo and barostat


######################################
# Run simulation with wall potential #
######################################
if " $(step) < ${nsteps_wall} " then    "fix             3 all plumed plumedfile plumed.equil.dat outfile plumed.equil.out"   "fix             1 all nph ${direction} ${pressure} ${pressure} ${pressureDamp}"   "fix             2 all temp/csvr ${temperature} ${temperature} ${tempDamp} ${seed}"   "run             ${nsteps_wall} upto"
if " $(step) == ${nsteps_wall} " then    "unfix 3"   "unfix 1"   "unfix 2"


############################
# Run enhanced coesistence #
############################
if "$(step) == ${nsteps_wall}" then    "fix             3 all plumed plumedfile plumed.start.dat outfile plumed.out" else    "fix             3 all plumed plumedfile plumed.dat outfile plumed.out"
fix             3 all plumed plumedfile plumed.dat outfile plumed.out

if "$(step) < ${nsteps_enhanced_coex_upto} && $(step) >= ${nsteps_wall} " then    "include         in.dump"    "fix             1 all nph ${direction} ${pressure} ${pressure} ${pressureDamp}"   "fix             2 all temp/csvr ${temperature} ${temperature} ${tempDamp} ${seed}"   "run             ${nsteps_enhanced_coex_upto} upto"    "unfix 3"   "unfix 1"   "unfix 2"
include         in.dump
dump            myDump all atom ${out_freq2} dump.water.${pid}
dump            myDump all atom 2000 dump.water.${pid}
dump            myDump all atom 2000 dump.water.0
dump            myDump2 all dcd ${out_freq2} dump.${pid}.dcd
dump            myDump2 all dcd 2000 dump.${pid}.dcd
dump            myDump2 all dcd 2000 dump.0.dcd
dump_modify     myDump append yes
dump_modify     myDump2 append yes

fix             1 all nph ${direction} ${pressure} ${pressure} ${pressureDamp}
fix             1 all nph z ${pressure} ${pressure} ${pressureDamp}
fix             1 all nph z 6079.5 ${pressure} ${pressureDamp}
fix             1 all nph z 6079.5 6079.5 ${pressureDamp}
fix             1 all nph z 6079.5 6079.5 1
fix             2 all temp/csvr ${temperature} ${temperature} ${tempDamp} ${seed}
fix             2 all temp/csvr 250 ${temperature} ${tempDamp} ${seed}
fix             2 all temp/csvr 250 250 ${tempDamp} ${seed}
fix             2 all temp/csvr 250 250 0.1 ${seed}
fix             2 all temp/csvr 250 250 0.1 745823
run             ${nsteps_enhanced_coex_upto} upto
run             306000000 upto

CITE-CITE-CITE-CITE-CITE-CITE-CITE-CITE-CITE-CITE-CITE-CITE-CITE

Your simulation uses code contributions which should be cited:

- USER-DEEPMD package:

@article{Wang_ComputPhysCommun_2018_v228_p178,
  author = {Wang, Han and Zhang, Linfeng and Han, Jiequn and E, Weinan},
  doi = {10.1016/j.cpc.2018.03.016},
  url = {https://doi.org/10.1016/j.cpc.2018.03.016},
  year = 2018,
  month = {jul},
  publisher = {Elsevier {BV}},
  volume = 228,
  journal = {Comput. Phys. Commun.},
  title = {{DeePMD-kit: A deep learning package for many-body potential energy representation and molecular dynamics}},
  pages = {178--184}
}

CITE-CITE-CITE-CITE-CITE-CITE-CITE-CITE-CITE-CITE-CITE-CITE-CITE

Generated 0 of 1 mixed pair_coeff terms from geometric mixing rule
Neighbor list info ...
  update every 50 steps, delay 0 steps, check no
  max neighbors/atom: 2000, page size: 100000
  master list distance cutoff = 8
  ghost atom cutoff = 8
  binsize = 4, bins = 11 9 9
  1 neighbor lists, perpetual/occasional/extra = 1 0 0
  (1) pair deepmd, perpetual
      attributes: full, newton on
      pair build: full/bin
      stencil: full/bin/3d
      bin: standard
Per MPI rank memory allocation (min/avg/max) = 6.238 | 6.24 | 6.241 Mbytes
   Step          Temp          PotEng         TotEng         E_pair         E_mol          Press            Lx             Ly             Lz           Volume          Pxx            Pyy            Pzz            Pxy            Pxz            Pyz      
 204153000   244.70278     -417.05239     -335.09824     -417.05239      0              6648.2007      30.933001      21.326696      32.408296      21379.711      5722.3903      8534.1829      5688.0289      108.64156      422.02128     -539.46694    
 204154000   252.51325     -418.80318     -334.2332      -418.76624      0              4612.5982      30.933001      21.326696      32.670818      21552.897      5192.8009      4428.3915      4216.6022     -1560.1225     -811.11021     -1071.2032    
 204156000   254.68427     -418.26244     -332.96536     -418.24022      0              4842.7037      30.933001      21.326696      32.588035      21498.284      6357.1376      3887.205       4283.7685     -167.63918      214.66561      583.58982    
 204158000   249.37026     -417.14209     -333.62473     -417.12349      0              5982.5987      30.933001      21.326696      32.470874      21420.994      7614.2881      5918.7087      4414.7993      818.75107      65.517286     -341.59336    
 204160000   254.75833     -417.76483     -332.44295     -417.74999      0              6563.4996      30.933001      21.326696      32.532437      21461.607      6549.4157      7021.6213      6119.4617     -1333.7341     -606.21656     -757.96781    
 204162000   250.36308     -414.65505     -330.80519     -414.60809      0              6219.2267      30.933001      21.326696      32.632884      21527.871      5077.0012      6372.2352      7208.4437      134.16118      840.90324     -1145.2697    
 204164000   253.39848     -417.3052      -332.43875     -417.2814       0              4167.289       30.933001      21.326696      32.629488      21525.631      5451.9478      3596.8047      3453.1146     -463.31651      340.86877     -249.21654    
 204166000   257.16366     -416.04894     -329.92148     -416.02535      0              6082.9961      30.933001      21.326696      32.517214      21451.564      4399.8714      6861.79        6987.3268     -113.50798     -738.00243     -1165.241     
 204168000   251.42388     -416.9686      -332.76346     -416.94882      0              5681.2553      30.933001      21.326696      32.535124      21463.379      7056.3312      6077.0919      3910.3428      774.71353      96.681359     -1114.1352    
 204170000   247.96493     -417.02864     -333.98196     -417.00604      0              6004.2188      30.933001      21.326696      32.422577      21389.132      5668.0987      4715.2185      7629.339      -687.07344      150.76428      442.12705    
 204172000   251.05644     -419.66273     -335.58065     -419.63445      0              5574.2671      30.933001      21.326696      32.466181      21417.897      4788.0029      6143.9337      5790.8645      633.87029     -487.14677     -1917.4903    
 204174000   249.2055      -420.97666     -337.51449     -420.94746      0              7400.7695      30.933001      21.326696      32.358627      21346.945      8526.2958      5873.1841      7802.8286      1954.8605      1910.4655      663.375      
 204176000   243.57389     -418.13643     -336.56036     -418.11388      0              6668.4253      30.933001      21.326696      32.413304      21383.015      5867.9294      6010.99        8126.3566      731.46874      253.62235      729.7345     
 204178000   254.73398     -416.18628     -330.87255     -416.15201      0              6048.1994      30.933001      21.326696      32.477272      21425.215      6526.4162      7049.9159      4568.2661     -2264.5023      1236.6797     -725.92367    
 204180000   255.63639     -418.41422     -332.79826     -418.3872       0              4249.1939      30.933001      21.326696      32.544754      21469.732      3284.6298      3837.9711      5624.9808      1990.3641     -810.75617      238.4417     
 204182000   248.32188     -418.54318     -335.37694     -418.51523      0              7150.5307      30.933001      21.326696      32.494702      21436.713      6321.1528      7254.3295      7876.1097      682.98524     -664.99185      933.3933     
 204184000   252.03044     -415.36467     -330.95639     -415.33485      0              7042.5372      30.933001      21.326696      32.517454      21451.722      7456.7453      6990.098       6680.7684     -692.58702      787.99216     -1448.1485    
 204186000   252.84707     -418.17412     -333.49234     -418.1346       0              4560.1239      30.933001      21.326696      32.726858      21589.866      5972.9109      4067.4544      3640.0065      728.32991      1050.8267      681.36657    
 204188000   248.65547     -420.63511     -337.35715     -420.60588      0              4174.1425      30.933001      21.326696      32.72972       21591.754      1906.144       5061.0697      5555.2137      666.00852      339.29883      863.64952    
 204190000   251.80204     -421.59959     -337.26781     -421.58536      0              3564.4982      30.933001      21.326696      32.719902      21585.277      2909.4158      4241.3291      3542.7497      150.48047     -354.4552       1201.5232    
 204192000   248.08741     -418.74009     -335.65238     -418.71921      0              4070.2082      30.933001      21.326696      32.678915      21558.238      4074.1302      2550.8815      5585.613      -1245.3485      1589.6284     -1446.8428    
 204194000   243.1669      -419.55791     -338.11814     -419.52584      0              6495.2977      30.933001      21.326696      32.60611       21510.209      6438.8526      6759.4691      6287.5712      321.0726       1450.4553     -756.80516    
 204196000   252.5926      -419.53917     -334.94262     -419.5024       0              6231.4343      30.933001      21.326696      32.579011      21492.332      5031.378       5061.4266      8601.4982     -1153.4532      680.46716     -195.39202    
 204198000   242.97405     -417.98734     -336.61216     -417.9613       0              6633.0369      30.933001      21.326696      32.355938      21345.171      8006.2938      6544.4106      5348.4063      126.78481      2432.9344      838.00837    
 204200000   252.4675      -418.86634     -334.31168     -418.84867      0              7148.5928      30.933001      21.326696      32.456963      21411.816      5633.8626      7888.9781      7922.9378     -226.41592      348.53767     -917.36554    
 204202000   254.14696     -417.35131     -332.23418     -417.32733      0              6979.1918      30.933001      21.326696      32.527149      21458.118      6439.7185      6751.0241      7746.8327     -923.36327     -868.78893     -1129.3213    
 204204000   255.57536     -416.34397     -330.74845     -416.30617      0              5221.8543      30.933001      21.326696      32.589972      21499.562      4238.6872      5463.6873      5963.1884     -236.83967      533.43777      401.13298    
 204206000   251.81213     -418.66572     -334.33055     -418.68256      0              6302.6464      30.933001      21.326696      32.71077       21579.253      6806.5982      6049.3115      6052.0296     -722.35319     -1853.3281     -190.15623    
 204208000   249.83113     -416.46656     -332.79486     -416.4296       0              6191.2289      30.933001      21.326696      32.600514      21506.517      6323.77        4271.9517      7977.9649      98.524609      467.3154       2576.777     
 204210000   240.36233     -417.39555     -336.89507     -417.37501      0              5537.2494      30.933001      21.326696      32.724131      21588.067      5405.9281      5195.5924      6010.2278     -346.79814      74.662133      1412.8668    
 204212000   253.5965      -419.48824     -334.55547     -419.46439      0              7176.3785      30.933001      21.326696      32.737806      21597.088      7515.4763      7568.2963      6445.3629      185.201       -91.427784      405.64862    
 204214000   252.27935     -419.74791     -335.25627     -419.71699      0              6861.9689      30.933001      21.326696      32.47445       21423.352      6843.7972      9189.703       4552.4066     -457.56954      230.077       -1056.7426    
 204216000   254.66258     -415.45987     -330.17005     -415.41933      0              6728.3165      30.933001      21.326696      32.651808      21540.355      6976.6243      6375.6021      6832.7231      250.41832     -477.24806      267.80223    
 204218000   242.07462     -419.03584     -337.9619      -419.00675      0              6625.0328      30.933001      21.326696      32.578215      21491.806      6845.502       8353.2294      4676.3669      1859.7885      239.72405     -1065.9477    
 204220000   251.00341     -419.19653     -335.13222     -419.17868      0              9136.2308      30.933001      21.326696      32.555104      21476.56       8087.8046      9640.8068      9680.0809      851.23498      362.72725      1185.6423    
 204222000   247.95699     -420.99203     -337.948       -420.9643       0              5987.9404      30.933001      21.326696      32.621926      21520.642      6992.988       6351.4879      4619.3452     -1935.4778      393.75424     -1569.0074    
 204224000   243.36626     -418.89082     -337.38429     -418.87155      0              6897.3959      30.933001      21.326696      32.499975      21440.192      6283.3174      5548.3829      8860.4873      63.360837      1033.822      -605.99342    
 204226000   249.13285     -418.4077      -334.96986     -418.38873      0              5852.6604      30.933001      21.326696      32.283383      21297.306      5671.6539      5443.9721      6442.3551      1637.4408     -242.68933     -894.44658    
 204228000   251.53608     -417.4448      -333.20209     -417.40262      0              7810.9367      30.933001      21.326696      32.448081      21405.957      10183.386      5875.871       7373.5534      1688.7005      782.58237      1176.4345    
 204230000   244.25024     -419.85918     -338.05659     -419.8372       0              6507.0348      30.933001      21.326696      32.598824      21505.402      6912.1259      6057.0905      6551.8881      2041.308      -1054.1225      4.8868072    
 204232000   243.6986      -418.74779     -337.12995     -418.73446      0              6988.5932      30.933001      21.326696      32.363119      21349.908      6626.0084      8040.544       6299.2273      921.33833     -1127.8149     -1876.5738    
 204234000   243.16197     -417.02598     -335.58787     -417.00133      0              6183.1714      30.933001      21.326696      32.421281      21388.277      6912.562       6194.432       5442.5203     -1691.5378      205.45139      1247.9361    
 204236000   250.65802     -416.92084     -332.9722      -416.90303      0              5767.0241      30.933001      21.326696      32.554367      21476.074      6363.3054      4490.0254      6447.7416      2048.4982     -1502.7069      225.6526     
 204238000   250.20688     -418.86258     -335.06503     -418.86447      0              7648.0091      30.933001      21.326696      32.48778       21432.147      5980.6324      8852.2707      8111.1241     -127.1165      -159.15038      92.143728    
 204240000   250.56164     -417.86201     -333.94565     -417.84052      0              5245.9804      30.933001      21.326696      32.565049      21483.121      3991.8532      6204.084       5542.0039     -871.47255      819.11301     -773.73192    
 204242000   241.34105     -420.36025     -339.53198     -420.34942      0              6799.9813      30.933001      21.326696      32.56571       21483.557      5424.841       9875.9266      5099.1762      649.58631      770.81631     -461.29015    
 204244000   252.11186     -419.39036     -334.95481     -419.34561      0              3420.5461      30.933001      21.326696      32.815916      21648.617      3818.9965      3479.1499      2963.4918      479.62736     -1717.2685     -597.80449    
 204246000   255.54455     -420.15362     -334.56842     -420.12505      0              3797.0808      30.933001      21.326696      32.592837      21501.452      4296.155       4433.5399      2661.5474      546.04429     -1628.423      -1503.4133    
 204248000   251.57301     -421.28068     -337.0256      -421.25673      0              8573.8866      30.933001      21.326696      32.434799      21397.195      8568.6721      7829.0509      9323.9368     -25.331895      362.44479     -2178.2525    
 204250000   247.1482      -419.3315      -336.55834     -419.29733      0              5875.1056      30.933001      21.326696      32.52875       21459.175      7848.2332      4849.1561      4927.9274     -856.20353     -2769.5452     -572.24634    
 204252000   249.50777     -418.8026      -335.2392      -418.7818       0              6452.9748      30.933001      21.326696      32.522365      21454.962      6844.3197      7006.559       5508.0458      322.9896       184.64286     -833.31187    
 204254000   246.1442      -417.20403     -334.76713     -417.16553      0              7686.496       30.933001      21.326696      32.651905      21540.419      6364.5983      7852.351       8842.5387      969.3579       1512.3455     -1448.2799    
 204256000   254.05222     -420.70555     -335.62015     -420.69118      0              5474.5127      30.933001      21.326696      32.6984        21571.092      3732.0016      6788.144       5903.3925      119.39435      327.55092      151.79859    
 204258000   248.22592     -418.06842     -334.93432     -418.04778      0              7231.6008      30.933001      21.326696      32.478834      21426.245      6114.5505      7268.95        8311.302       1318.4664     -758.9937       27.150172    
 204260000   251.38572     -418.07614     -333.88378     -418.0528       0              7792.6384      30.933001      21.326696      32.393494      21369.946      8143.0972      8477.965       6756.8531      340.37497      834.73396     -814.80126    
 204262000   253.43388     -418.01501     -333.1367      -417.99127      0              7356.6038      30.933001      21.326696      32.525788      21457.22       8048.7677      6632.007       7389.0367     -345.87939      1094.4346     -766.55916    
 204264000   246.39737     -416.91463     -334.39294     -416.89397      0              4531.3927      30.933001      21.326696      32.599698      21505.979      4114.6809      5266.9056      4212.5916      149.99543      137.47788     -964.12257    
 204266000   248.769       -417.30464     -333.98866     -417.28412      0              5109.0194      30.933001      21.326696      32.455697      21410.982      4330.8714      5793.3707      5202.816       2463.3617      565.4788      -730.90279    
 204268000   258.45514     -418.98825     -332.42825     -418.96578      0              6299.08        30.933001      21.326696      32.610861      21513.343      6769.4958      6091.9273      6035.817      -1541.5035     -415.84338     -293.82275    
 204270000   247.70046     -418.95799     -335.99988     -418.94632      0              5423.2718      30.933001      21.326696      32.580373      21493.23       6956.7902      4287.9491      5025.0761     -1029.9948      252.18439      1633.5385    
 204272000   254.52637     -417.00557     -331.76137     -416.98187      0              5268.3566      30.933001      21.326696      32.647689      21537.638      4315.6479      6389.7871      5099.6348      682.71591     -78.280016     -417.64715    
 204274000   248.73443     -418.18745     -334.88305     -418.15943      0              4478.154       30.933001      21.326696      32.663114      21547.814      4125.6139      4536.8726      4771.9754     -985.90144      1248.9033      1310.3057    
 204276000   241.93633     -417.28277     -336.25514     -417.25099      0              5396.1349      30.933001      21.326696      32.594772      21502.729      5056.0352      4802.643       6329.7264      146.53979      885.57941      952.868      
 204278000   256.96878     -416.21873     -330.15654     -416.1815       0              4956.2835      30.933001      21.326696      32.472328      21421.953      3303.4642      5882.2361      5683.1501     -523.05482      1308.2575     -1627.0682    
 204280000   244.30721     -416.04118     -334.21952     -416.00979      0              6897.2944      30.933001      21.326696      32.459295      21413.355      6790.2115      7536.8556      6364.8161      333.95983      60.237165      829.83779    
 204282000   248.51832     -416.63703     -333.405       -416.61969      0              5461.7426      30.933001      21.326696      32.479242      21426.514      5437.0927      6008.2406      4939.8945     -117.70057     -40.887332     -1767.592     
 204284000   243.49726     -418.94413     -337.39372     -418.92564      0              5270.4147      30.933001      21.326696      32.349349      21340.823      4651.0649      6143.2453      5016.934       1641.6417     -504.02276     -649.54484    
 204286000   258.49983     -418.42653     -331.85157     -418.411        0              7975.4313      30.933001      21.326696      32.453238      21409.359      7802.5708      7380.1268      8743.5963      158.54981     -1065.9607     -492.97671    
 204288000   251.10456     -420.05817     -335.95998     -420.03459      0              4480.3618      30.933001      21.326696      32.604605      21509.216      5547.4733      3906.0275      3987.5845      1218.6323     -905.34693      758.6567     
 204290000   251.8303      -418.10327     -333.76202     -418.06145      0              6144.0643      30.933001      21.326696      32.82871       21657.058      7596.7367      6260.7637      4574.6926     -112.82957     -155.01875      332.85782    
 204292000   245.24678     -421.64851     -339.51216     -421.61721      0              4781.8503      30.933001      21.326696      32.704866      21575.358      3293.6141      6775.3526      4276.5841      113.24457      849.80458     -526.55463    
 204294000   251.54286     -418.91782     -334.67284     -418.90045      0              5604.2513      30.933001      21.326696      32.577893      21491.594      5748.6814      4288.6721      6775.4003     -155.25652     -95.626389     -549.09336    
 204296000   250.80463     -417.53171     -333.53397     -417.50665      0              5311.7693      30.933001      21.326696      32.432603      21395.746      4840.6605      5298.9316      5795.7159      1053.2616     -694.76509     -1215.0661    
 204298000   250.69418     -416.85048     -332.88973     -416.83098      0              9830.8145      30.933001      21.326696      32.371478      21355.422      8426.0826      11454.797      9611.5635     -120.48447     -557.21564     -1471.5731    
 204300000   253.04354     -420.6093      -335.86173     -420.5846       0              7035.4172      30.933001      21.326696      32.462369      21415.383      7467.0929      5648.193       7990.9655     -111.98882     -329.5531       1637.2557    
 204302000   257.71221     -416.68213     -330.37095     -416.65176      0              5205.9723      30.933001      21.326696      32.608226      21511.604      6349.5029      5298.6666      3969.7474     -528.23383     -607.27645     -195.03424    
 204304000   248.63386     -417.25925     -333.98853     -417.22782      0              5316.0274      30.933001      21.326696      32.462635      21415.558      6406.22        3502.9543      6038.9079      1049.7418     -1433.7473      546.02666    
 204306000   250.42419     -419.46913     -335.59881     -419.45356      0              4365.6583      30.933001      21.326696      32.477825      21425.579      4495.7717      4583.1865      4018.0168      1006.8631     -470.87663     -1320.473     
 204308000   253.43153     -419.13865     -334.26113     -419.12869      0              8654.291       30.933001      21.326696      32.552393      21474.772      9318.6997      8706.769       7937.4042      341.84339     -730.10808     -893.22449    
 204310000   249.56009     -420.24674     -336.66581     -420.23812      0              8245.6636      30.933001      21.326696      32.469091      21419.817      8528.6114      8341.6886      7866.691       201.02934      649.22316      922.41569    
 204312000   252.19792     -418.29289     -333.82851     -418.28015      0              6980.6941      30.933001      21.326696      32.475803      21424.245      7698.145       7445.3152      5798.6221     -550.12829     -1022.6973     -403.54597    
 204314000   253.28266     -421.50821     -336.68054     -421.47348      0              4810.3275      30.933001      21.326696      32.477799      21425.562      4717.2675      5888.7183      3824.9969     -25.453323     -690.28584     -194.65503    
 204316000   246.32281     -417.86845     -335.37173     -417.84923      0              6727.5192      30.933001      21.326696      32.459929      21413.773      7702.1761      4595.9617      7884.4199     -532.66469     -1775.5707     -863.47148    
 204318000   254.93294     -418.45609     -333.07572     -418.43813      0              6032.2787      30.933001      21.326696      32.409946      21380.8        4672.1891      6240.3969      7184.2501      159.29928      217.01087     -935.24974    
 204320000   244.15928     -419.43927     -337.66714     -419.44215      0              5913.5482      30.933001      21.326696      32.32635       21325.652      7505.4029      6645.8964      3589.3453      443.59168     -1937.6787     -1183.7381    
 204322000   249.24321     -417.7008      -334.226       -417.68494      0              7487.1086      30.933001      21.326696      32.366981      21352.455      10536.886      5944.2658      5980.1738     -441.20903     -1219.5688      1944.2415    
 204324000   246.90633     -419.46219     -336.77005     -419.4473       0              5458.1942      30.933001      21.326696      32.404902      21377.472      4029.8466      6404.7096      5940.0263      532.6376       71.755795      537.42387    
 204326000   249.27832     -416.98491     -333.49835     -416.96879      0              6250.3343      30.933001      21.326696      32.471444      21421.369      4893.4148      7631.0519      6226.5362     -653.35644      618.6923      -434.56798    
 204328000   245.63465     -416.99513     -334.72888     -416.96957      0              6160.5753      30.933001      21.326696      32.442615      21402.351      4417.6688      7905.1138      6158.9432      1458.5687     -923.01779     -2044.2028    
 204330000   250.12603     -419.38857     -335.6181      -419.38026      0              6212.7007      30.933001      21.326696      32.544228      21469.385      7587.2175      8663.3885      2387.496      -1814.1452     -1487.6197     -2673.784     
 204332000   245.48605     -418.59437     -336.37789     -418.57967      0              5903.5725      30.933001      21.326696      32.560208      21479.927      5713.8462      6695.8018      5301.0694      39.968445      210.6623      -1672.5999    
 204334000   246.54911     -419.12874     -336.55623     -419.11607      0              4932.1703      30.933001      21.326696      32.597786      21504.717      4563.9875      5173.756       5058.7673     -1861.6222     -1362.0051      573.49249    
 204336000   244.96457     -415.15139     -333.10956     -415.12764      0              5453.7952      30.933001      21.326696      32.711066      21579.448      5496.6498      5284.9292      5579.8065     -244.93535     -276.60963     -33.379468    
 204338000   245.81847     -418.58091     -336.2531      -418.5573       0              5909.883       30.933001      21.326696      32.519226      21452.891      7013.3812      5481.8341      5234.4338      302.82635      1321.6898      446.36074    
 204340000   245.54539     -417.46439     -335.22803     -417.45492      0              5918.41        30.933001      21.326696      32.487143      21431.726      5016.3679      5287.9772      7450.8849     -260.03677     -184.75585      322.46561    
 204342000   245.14159     -418.88796     -336.78685     -418.87502      0              6588.4358      30.933001      21.326696      32.418131      21386.199      5885.5572      7543.6494      6336.1007     -373.40745     -53.48838       1091.5842    
 204344000   254.52943     -417.37737     -332.13214     -417.37856      0              5747.9892      30.933001      21.326696      32.517389      21451.68       4660.7022      5354.9342      7228.3311     -1045.8818     -1860.7982      1197.1526    
 204346000   251.69665     -418.54272     -334.24623     -418.5311       0              5183.2587      30.933001      21.326696      32.55039       21473.45       5829.4543      6019.6018      3700.72        1907.0069      1113.8416     -972.86923    
 204348000   252.95104     -418.92754     -334.21094     -418.90168      0              3883.8415      30.933001      21.326696      32.658142      21544.534      2245.7043      5668.3477      3737.4725      168.03247     -1617.3307      561.61164    
 204350000   250.02542     -417.36802     -333.63125     -417.3569       0              4221.9209      30.933001      21.326696      32.636249      21530.091      3660.2194      3614.367       5391.1764      125.69959      355.91741      584.00617    
 204352000   250.37076     -416.54339     -332.69095     -416.52503      0              6011.4214      30.933001      21.326696      32.448749      21406.398      8320.1621      5755.7232      3958.3788     -2067.0965     -1094.0374     -926.34499    
 204354000   247.21389     -416.41483     -333.61968     -416.39486      0              6836.6435      30.933001      21.326696      32.379397      21360.646      6614.9589      5431.0896      8463.8819      2299.7473      791.45353      411.47919    
 204356000   242.18449     -419.75727     -338.64653     -419.7431       0              6764.4428      30.933001      21.326696      32.384791      21364.205      8387.5642      6202.6238      5703.1404      1972.9027     -343.50702     -345.69859    
 204358000   238.42961     -416.74897     -336.89579     -416.76         0              4874.5649      30.933001      21.326696      32.383981      21363.67       6957.3885      3379.4372      4286.869      -1063.0549      189.58318     -228.91479    
 204360000   250.52814     -419.29746     -335.39232     -419.29679      0              6871.3543      30.933001      21.326696      32.51897       21452.722      6476.3458      8413.0306      5724.6864      314.62873      413.16342      1074.8299    
 204362000   252.57141     -419.549       -334.95954     -419.54429      0              4092.6355      30.933001      21.326696      32.48651       21431.309      5332.6609      4182.8123      2762.4332     -241.15253     -25.849535     -1198.0647    
 204364000   248.87023     -417.72728     -334.3774      -417.71242      0              8215.1386      30.933001      21.326696      32.532077      21461.369      8481.1249      8736.1197      7428.1712     -185.25818     -86.352566      1515.8054    
 204366000   251.65702     -418.02844     -333.74522     -418.00908      0              6310.0758      30.933001      21.326696      32.570345      21486.615      6949.8116      6838.8208      5141.5952     -589.98072     -1265.1443     -542.10072    
 204368000   241.51077     -420.37        -339.4849      -420.35495      0              7473.784       30.933001      21.326696      32.503283      21442.374      8326.3903      6103.845       7991.1166     -92.419687     -1076.8326     -101.41919    
 204370000   248.50558     -415.63654     -332.40878     -415.60594      0              4539.0713      30.933001      21.326696      32.608671      21511.898      6278.856       2284.6835      5053.6743      93.606237      697.75825     -1331.0495    
 204372000   250.36212     -418.64485     -334.79531     -418.62329      0              5307.0225      30.933001      21.326696      32.592083      21500.955      4842.4712      4929.6022      6148.9942      1182.5729     -839.62755      1302.6499    
 204374000   251.66398     -418.78348     -334.49794     -418.75308      0              6442.5905      30.933001      21.326696      32.473866      21422.967      6078.6331      6680.0612      6569.0773     -319.44147      247.30305      346.29324    
 204376000   251.98071     -417.83144     -333.43982     -417.80589      0              6933.6768      30.933001      21.326696      32.536824      21464.501      7294.9885      6473.0775      7032.9643     -452.07016     -859.43939     -1603.9122    
 204378000   247.87335     -416.77099     -333.75497     -416.74022      0              5445.0232      30.933001      21.326696      32.673963      21554.971      2748.0299      8148.6121      5438.4278      126.9335      -747.59908      1922.1632    
 204380000   250.94465     -417.12762     -333.08299     -417.10949      0              5689.7008      30.933001      21.326696      32.579258      21492.494      6966.104       6235.7894      3867.209      -484.75101      375.45056      1804.6212    
 204382000   254.57366     -418.49512     -333.23508     -418.46829      0              4365.9426      30.933001      21.326696      32.565122      21483.169      2941.0051      2806.3117      7350.5109      836.55772     -268.27979      1486.8378    
 204384000   252.0926      -416.42875     -331.99965     -416.39607      0              7713.5043      30.933001      21.326696      32.55739       21478.068      7255.5612      5943.7631      9941.1886     -965.16403      167.98166     -1053.3793    
 204386000   252.67241     -419.2662      -334.64291     -419.24065      0              6427.2562      30.933001      21.326696      32.58324       21495.121      7503.0506      7101.302       4677.416      -463.55309     -1860.3882      704.3778     
 204388000   244.86535     -419.91611     -337.90751     -419.88787      0              6309.5462      30.933001      21.326696      32.647123      21537.265      8405.2284      5800.0809      4723.3291     -577.43973      65.462606     -1216.7029    
 204390000   247.47689     -419.0032      -336.11997     -418.97523      0              5222.3397      30.933001      21.326696      32.486261      21431.145      2949.0981      5968.7225      6749.1985     -1106.9683     -1006.1144      773.26827    
 204392000   253.75342     -421.01902     -336.03369     -420.99967      0              5681.0926      30.933001      21.326696      32.57679       21490.866      6757.5576      5589.0725      4696.6477     -1391.3         377.5765       665.25785    
 204394000   252.13235     -417.41736     -332.97495     -417.40649      0              5325.6309      30.933001      21.326696      32.2842        21297.845      5390.5157      5740.5895      4845.7874      725.07879      798.74379     -1837.2216    
 204396000   252.85048     -415.28536     -330.60244     -415.2405       0              5219.8445      30.933001      21.326696      32.489608      21433.352      4572.5118      5177.0172      5910.0044      247.29404     -1332.1279      175.60048    
 204398000   255.03346     -415.43        -330.01597     -415.39737      0              6715.9958      30.933001      21.326696      32.533187      21462.101      8142.5582      5966.8204      6038.6087     -205.79455      432.39664      373.27849    
 204400000   254.50525     -416.91351     -331.67638     -416.87558      0              8711.014       30.933001      21.326696      32.354583      21344.277      6473.9232      9728.9017      9930.217      -674.25854     -918.56972      669.09393    
 204402000   252.96347     -420.14673     -335.42597     -420.13426      0              5986.0233      30.933001      21.326696      32.357539      21346.227      4739.2476      6454.2199      6764.6023      298.80577      2449.1515      976.44614    
 204404000   255.06231     -415.74047     -330.31677     -415.71092      0              6371.1326      30.933001      21.326696      32.388528      21366.67       6743.1128      6218.7786      6151.5062     -1231.7155     -713.60715     -996.55815    
 204406000   244.22278     -417.06262     -335.26923     -417.02977      0              6983.5151      30.933001      21.326696      32.346439      21338.904      9181.474       5272.003       6497.0685      791.27184     -612.10961      896.49716    
 204408000   258.46082     -420.1055      -333.5436      -420.09558      0              7899.4996      30.933001      21.326696      32.442427      21402.227      7821.5588      8867.9944      7008.9455     -633.65144     -607.24949      408.7068     
 204410000   250.12074     -417.16791     -333.39921     -417.14549      0              6411.5444      30.933001      21.326696      32.393824      21370.164      5954.1586      6989.669       6290.8056     -214.44014     -1190.0137     -1993.6394    
 204412000   246.05461     -418.90646     -336.49957     -418.86764      0              5485.2106      30.933001      21.326696      32.489873      21433.527      5534.0207      7663.3191      3258.2921     -249.12558      1026.9672      1283.1237    
 204414000   248.68541     -419.27192     -335.98394     -419.25945      0              6409.2361      30.933001      21.326696      32.378412      21359.997      6366.0209      6159.7938      6701.8936      1049.4233      1117.3198     -838.88911    
 204416000   251.17582     -414.60511     -330.48305     -414.57065      0              4587.257       30.933001      21.326696      32.502577      21441.908      2221.8669      4755.5034      6784.4006      1062.1532      562.81497      1499.3248    
 204418000   253.04129     -419.72247     -334.97565     -419.69586      0              6731.0909      30.933001      21.326696      32.521638      21454.483      6690.0167      5436.6344      8066.6215      1385.3897      488.80728     -859.686      
 204420000   254.07951     -416.72995     -331.63541     -416.69921      0              6267.4228      30.933001      21.326696      32.580863      21493.553      7585.7658      5931.998       5284.5048      96.578835     -1153.7793     -1963.6342    
 204422000   246.53767     -418.62014     -336.05146     -418.58782      0              5789.5946      30.933001      21.326696      32.4983        21439.087      7090.5156      4271.3905      6006.8777      950.81186     -949.50314     -182.63958    
 204424000   245.75679     -418.64342     -336.33627     -418.65114      0              6119.4862      30.933001      21.326696      32.395479      21371.256      5325.7468      3999.6682      9033.0435      83.55894       623.25592      271.54664    
 204426000   254.92        -417.48366     -332.10763     -417.46698      0              4731.9544      30.933001      21.326696      32.430845      21394.587      3642.8505      4828.4004      5724.6121      2023.9552     -1515.0017      425.88849    
 204428000   253.48991     -417.52516     -332.62808     -417.49711      0              6008.4576      30.933001      21.326696      32.397238      21372.416      6580.0146      4017.5999      7427.7582     -720.6979      -1291.9439     -1287.323     
 204430000   255.49479     -418.28677     -332.71824     -418.26816      0              6388.7205      30.933001      21.326696      32.318372      21320.389      5077.7603      6159.2178      7929.1834      426.16589     -403.55046     -58.568935    
 204432000   251.38826     -415.11463     -330.92142     -415.09407      0              7975.6652      30.933001      21.326696      32.234202      21264.861      7062.2737      8757.184       8107.5379      1994.9615      569.80254      23.473       
 204434000   254.90224     -418.34515     -332.97506     -418.33602      0              6724.27        30.933001      21.326696      32.238429      21267.65       6225.5054      6263.1512      7684.1533      376.36239     -925.53638      1286.6219    
 204436000   252.6163      -417.64837     -333.04388     -417.6185       0              5076.9525      30.933001      21.326696      32.40916       21380.281      4100.0087      5748.5908      5382.258      -495.25831     -62.091866      278.18188    
 204438000   249.02637     -416.82864     -333.42647     -416.80431      0              7199.2539      30.933001      21.326696      32.367205      21352.603      8113.2378      5956.3724      7528.1514     -95.432546      1430.619       1057.2194    
 204440000   250.1971      -420.0075      -336.21323     -419.97631      0              5474.3159      30.933001      21.326696      32.582962      21494.938      5996.9466      3937.1029      6488.8981      183.43124     -395.73438      303.3654     
 204442000   251.62342     -417.44477     -333.1728      -417.39428      0              6736.3697      30.933001      21.326696      32.556007      21477.156      7050.0051      8292.3972      4866.7067      306.84073     -578.55001     -509.83137    
 204444000   251.74377     -416.01481     -331.70254     -415.95885      0              4965.2074      30.933001      21.326696      32.68502       21562.266      5863.447       6011.0656      3021.1096     -1.1867393     -194.38262     -558.45825    
 204446000   246.50672     -419.06389     -336.50557     -419.03539      0              5799.1028      30.933001      21.326696      32.421314      21388.299      4828.6253      6737.0564      5831.6267      873.97884      66.021692     -750.11665    
 204448000   253.54279     -415.72203     -330.80724     -415.68865      0              6505.4516      30.933001      21.326696      32.423367      21389.654      6748.6525      6232.7589      6534.9434      2226.4977     -57.032038      120.09983    
 204450000   245.84347     -418.78551     -336.44933     -418.76069      0              5762.8236      30.933001      21.326696      32.292919      21303.597      7650.5354      4750.2137      4887.7218      801.12028     -186.47872     -1096.8004    
 204452000   245.92439     -417.95813     -335.59485     -417.93534      0              6542.1398      30.933001      21.326696      32.192483      21237.339      7181.1065      6363.5476      6081.7654      168.77979      1201.9742     -328.69705    
 204454000   248.94845     -416.36176     -332.98568     -416.33094      0              7454.4327      30.933001      21.326696      32.237608      21267.108      8441.796       6686.3158      7235.1862     -1420.345       496.66902      670.74643    
 204456000   243.12394     -416.02568     -334.60031     -416.01102      0              8858.184       30.933001      21.326696      32.180538      21229.459      9663.0723      9419.1255      7492.3542     -183.94606      335.59153      840.99964    
 204458000   249.89735     -416.88927     -333.19539     -416.86604      0              5164.8362      30.933001      21.326696      32.264603      21284.917      5985.5934      5586.4202      3922.495      -1356.334      -1389.5984     -2552.8219    
 204460000   249.82841     -415.81881     -332.14801     -415.78868      0              7683.0668      30.933001      21.326696      32.44421       21403.403      8194.2959      8344.9136      6509.9909      857.58888      550.30226     -310.79892    
 204462000   252.00213     -417.97567     -333.57687     -417.94508      0              5523.4192      30.933001      21.326696      32.530173      21460.113      6584.0904      6929.0455      3057.1216     -186.26387      649.55417     -1690.3826    
 204464000   255.35108     -417.7501      -332.2297      -417.72173      0              5744.541       30.933001      21.326696      32.425085      21390.787      7119.1421      6259.6506      3854.8302      348.88114     -506.95991     -1486.979     
 204466000   246.25692     -417.48579     -335.01114     -417.45559      0              6967.8486      30.933001      21.326696      32.389868      21367.554      7563.5149      6350.1367      6989.8942      1763.4403     -1266.1169     -301.39594    
 204468000   252.52766     -418.49256     -333.91776     -418.44459      0              5470.527       30.933001      21.326696      32.336998      21332.676      5228.6939      3562.2853      7620.6017      438.7354      -1666.8809      784.56906    
 204470000   246.83546     -416.9101      -334.24168     -416.88947      0              7321.1095      30.933001      21.326696      32.356166      21345.321      7160.6951      7414.2053      7388.428       125.20192      151.04256     -801.07626    
 204472000   250.19598     -415.65927     -331.86538     -415.62098      0              6628.0791      30.933001      21.326696      32.271598      21289.531      6013.2727      6663.7768      7207.188      -778.84696      558.02682     -174.9908     
 204474000   251.67526     -419.76214     -335.47282     -419.73752      0              7889.5201      30.933001      21.326696      32.216059      21252.893      9126.7774      6819.541       7722.242       1507.4569      2700.9699     -929.32471    
 204476000   247.18215     -415.86755     -333.08302     -415.828        0              7334.153       30.933001      21.326696      32.284749      21298.207      8436.8338      6841.0712      6724.5539     -595.99502      949.29573      388.31728    
 204478000   256.40519     -417.22829     -331.35485     -417.21849      0              6960.6331      30.933001      21.326696      32.421386      21388.347      6600.2191      6342.186       7939.4941     -728.49706     -291.12245      605.36597    
 204480000   251.95818     -418.95027     -334.56619     -418.92852      0              4672.9061      30.933001      21.326696      32.433934      21396.625      4492.348       4451.9158      5074.4545      1437.0743      800.39442      739.95577    
 204482000   250.01941     -418.51338     -334.77862     -418.52015      0              6939.4401      30.933001      21.326696      32.497477      21438.544      8293.2572      6312.5953      6212.4677     -84.256253      237.90277      112.3111     
 204484000   245.60928     -417.59914     -335.34139     -417.56918      0              5495.8337      30.933001      21.326696      32.650698      21539.624      7007.0255      5304.6662      4175.8094      519.79265      309.16353     -3302.9952    
 204486000   255.01895     -418.31329     -332.90412     -418.27539      0              6511.4361      30.933001      21.326696      32.472075      21421.786      6536.8124      6048.6511      6948.8448      1937.2506      1020.0401     -301.76345    
 204488000   240.93963     -418.29632     -337.6025      -418.2749       0              6623.9972      30.933001      21.326696      32.381267      21361.88       5184.8039      7521.4453      7165.7425     -1216.4398      1903.8876      90.943835    
 204490000   250.25963     -416.12619     -332.31098     -416.09901      0              8125.3475      30.933001      21.326696      32.268884      21287.741      8378.972       9343.3073      6653.7633     -696.221        1044.8784      248.78447    
 204492000   247.63697     -414.86697     -331.93012     -414.84482      0              7064.7238      30.933001      21.326696      32.360886      21348.435      6724.3545      8042.7199      6427.097       359.70933      1356.36        101.87931    
 204494000   248.324       -416.38619     -333.21924     -416.3586       0              6399.2216      30.933001      21.326696      32.505282      21443.692      6434.0514      5945.2901      6818.3232      1085.8857     -218.33381     -21.090558    
 204496000   248.11369     -417.19487     -334.09836     -417.16356      0              6117.1124      30.933001      21.326696      32.462393      21415.399      6021.4656      6371.897       5957.9747      517.72628      1560.2092     -726.44066    
 204498000   245.36529     -416.63353     -334.45749     -416.60455      0              4764.3829      30.933001      21.326696      32.595782      21503.395      4515.376       5094.4569      4683.3158      1942.4108      455.99738      278.00639    
 204500000   249.05676     -419.00437     -335.59202     -418.98588      0              5742.6402      30.933001      21.326696      32.396739      21372.087      4163.5679      5920.4261      7143.9266     -2751.9686      1076.6215     -1194.3179    
 204502000   250.70006     -420.71344     -336.75072     -420.70189      0              6217.3448      30.933001      21.326696      32.558145      21478.566      5106.4282      6348.6351      7196.9712      1943.3187      1139.6798     -186.13638    
 204504000   254.81435     -418.70371     -333.36306     -418.66589      0              5385.9546      30.933001      21.326696      32.583391      21495.221      6112.6888      5058.8878      4986.2871     -55.922057     -1434.0089      505.56515    
 204506000   244.49575     -420.57278     -338.68797     -420.55018      0              5235.4953      30.933001      21.326696      32.509052      21446.18       4683.5844      5746.8215      5276.0801     -883.16511     -101.51135     -929.93955    
 204508000   253.8622      -418.75242     -333.73066     -418.72902      0              6250.5416      30.933001      21.326696      32.643375      21534.792      7872.8024      6405.5086      4473.3139     -976.89472     -2103.2065     -649.69201    
 204510000   250.24389     -418.39177     -334.58183     -418.36922      0              6241.0005      30.933001      21.326696      32.593545      21501.919      4803.5418      7739.6155      6179.8441     -335.41909      509.06589     -1945.7371    
 204512000   252.54071     -419.66964     -335.09047     -419.65212      0              6139.8587      30.933001      21.326696      32.805957      21642.047      5284.5818      7708.86        5426.1344     -1315.1273     -885.0512      -175.55041    
 204514000   252.9077      -419.87766     -335.17557     -419.86267      0              4610.8992      30.933001      21.326696      32.67198       21553.663      3973.2058      6035.9395      3823.5523      622.94868     -595.37178      337.2916     
 204516000   249.89627     -418.59558     -334.90206     -418.58559      0              4536.3506      30.933001      21.326696      32.67544       21555.945      4313.9523      5210.232       4084.8675     -1890.5557     -247.00054     -2214.4454    
 204518000   251.57094     -417.20481     -332.95042     -417.17398      0              7360.7353      30.933001      21.326696      32.797683      21636.589      8083.1538      7607.8916      6391.1605      2299.3581      979.03913     -803.58407    
 204520000   244.10518     -417.88185     -336.12784     -417.89082      0              6454.9765      30.933001      21.326696      32.762781      21613.564      8012.8258      7442.1209      3909.9829     -304.59915      216.07375     -1182.2632    
 204522000   248.25476     -418.10037     -334.95661     -418.07914      0              4512.3587      30.933001      21.326696      32.793364      21633.74       4742.3565      5430.5227      3364.1967      1795.2938      689.48094     -219.84818    
 204524000   243.52756     -418.62359     -337.06303     -418.60572      0              3649.5339      30.933001      21.326696      32.731151      21592.698      2405.8573      4477.3263      4065.418      -1777.1951      626.3549       557.56768    
 204526000   239.33844     -418.66608     -338.50851     -418.65305      0              6094.1937      30.933001      21.326696      32.445885      21404.509      4409.4937      7066.085       6807.0023      93.995783      2351.0575     -776.53601    
 204528000   246.41656     -416.39648     -333.86836     -416.3818       0              5376.0818      30.933001      21.326696      32.471157      21421.18       7099.676       5651.8685      3376.701      -347.48995     -679.88749     -2478.2682    
 204530000   247.49442     -420.2124      -337.3233      -420.23596      0              4975.0643      30.933001      21.326696      32.515046      21450.134      5695.2539      4000.0479      5229.8913     -159.2765       384.78639     -2020.5105    
 204532000   245.30968     -416.07888     -333.92147     -416.05721      0              4768.9348      30.933001      21.326696      32.435676      21397.774      5153.5441      3941.3367      5211.9237     -106.6963       1153.9684      1440.009     
 204534000   248.77011     -417.43021     -334.11386     -417.41399      0              7268.2056      30.933001      21.326696      32.396848      21372.159      7156.5455      8492.7501      6155.3211     -1083.2216     -1009.1548      806.72694    
 204536000   256.52053     -417.44836     -331.53629     -417.43551      0              5715.7486      30.933001      21.326696      32.539884      21466.52       6509.7904      3799.1077      6838.3477      434.81332      745.60664      1080.9693    
 204538000   245.62226     -419.04615     -336.78405     -419.02451      0              7138.4379      30.933001      21.326696      32.666692      21550.175      8115.0406      9182.9284      4117.3446     -1516.1758      256.18685     -284.71602    
 204540000   250.42975     -418.35786     -334.48567     -418.34659      0              4827.3205      30.933001      21.326696      32.578025      21491.681      5257.4402      3585.1979      5639.3233      250.20221     -821.0819       152.04695    
 204542000   245.09106     -419.29742     -337.21323     -419.28303      0              6449.2815      30.933001      21.326696      32.36574       21351.637      6254.8948      7415.0322      5677.9176      607.61016      176.02764      188.76782    
 204544000   248.11158     -417.436       -334.34019     -417.41818      0              6967.3142      30.933001      21.326696      32.553408      21475.441      4622.6128      9414.2458      6865.0841      441.1418       867.65686      1103.1861    
 204546000   248.0242      -415.11297     -332.04644     -415.0942       0              5525.1207      30.933001      21.326696      32.398475      21373.232      5547.5127      5689.973       5337.8765      1000.0168     -1649.0066     -416.63148    
 204548000   247.36655     -417.33279     -334.4865      -417.34574      0              5184.9857      30.933001      21.326696      32.43063       21394.445      4849.2498      5439.5212      5266.1861      1091.679       363.85746      1373.8905    
 204550000   248.50759     -418.75957     -335.53114     -418.74543      0              4076.5954      30.933001      21.326696      32.599143      21505.613      3431.4815      4721.0206      4077.2841      945.14841      44.473305      692.88229    
 204552000   243.20599     -420.81549     -339.36264     -420.80155      0              7458.2059      30.933001      21.326696      32.625828      21523.216      8338.2101      8296.8203      5739.5872     -461.07722     -1564.6733     -559.99438    
 204554000   246.83944     -416.71648     -334.04673     -416.69765      0              4060.7247      30.933001      21.326696      32.564998      21483.087      3328.8156      3351.4493      5501.9093     -449.0042      -1279.3551     -515.32017    
 204556000   250.08113     -417.68326     -333.92783     -417.67254      0              5825.1654      30.933001      21.326696      32.457407      21412.109      5792.5988      5947.0169      5735.8804     -228.13554      478.27264      194.91166    
 204558000   248.06567     -418.16314     -335.08272     -418.14275      0              7043.3339      30.933001      21.326696      32.632906      21527.886      7010.6178      5822.5313      8296.8526      134.22444     -2420.768       388.71445    
 204560000   246.41477     -417.40526     -334.87774     -417.39097      0              7169.4511      30.933001      21.326696      32.550365      21473.434      7322.8709      5505.4073      8680.075      -2450.3262      12.84927       155.56485    
 204562000   252.08558     -415.41454     -330.98779     -415.37241      0              6739.4466      30.933001      21.326696      32.449178      21406.681      7697.0199      5725.6681      6795.6518      1798.6961     -1012.5448      172.37508    
 204564000   256.01429     -417.32917     -331.58665     -417.29724      0              4730.4438      30.933001      21.326696      32.570228      21486.537      3541.4539      4821.135       5828.7425      1613.697      -1688.8693      620.11082    
 204566000   248.40452     -420.91525     -337.72134     -420.89196      0              5330.7838      30.933001      21.326696      32.735864      21595.807      6106.4403      4994.059       4891.852       200.13474     -510.45128      449.42981    
 204568000   247.40137     -418.96339     -336.10545     -418.92197      0              5562.4842      30.933001      21.326696      32.619901      21519.307      4756.1328      5506.017       6425.3029     -646.58183     -433.7446       255.31933    
 204570000   253.46223     -418.99892     -334.11111     -418.97157      0              7776.2854      30.933001      21.326696      32.417633      21385.87       6436.5218      7662.2208      9230.1138     -1829.5531      2729.9873      88.996882    
 204572000   253.76374     -416.69003     -331.70125     -416.66023      0              7237.5662      30.933001      21.326696      32.32448       21324.418      5927.0577      8071.8457      7713.7952      1002.4091      964.30622     -518.27303    
 204574000   254.55182     -418.28991     -333.03719     -418.26171      0              6728.4954      30.933001      21.326696      32.350474      21341.566      5822.9761      6683.4299      7679.0803      50.096014      907.06211      654.63351    
 204576000   253.03757     -416.207       -331.46142     -416.16779      0              4520.0422      30.933001      21.326696      32.618106      21518.123      5235.8991      4549.247       3774.9805      71.897174      1660.6494      1091.3886    
 204578000   248.51805     -416.10245     -332.87052     -416.06186      0              5083.3224      30.933001      21.326696      32.548696      21472.333      5922.6685      3811.5922      5515.7065      726.2789       1388.0191      828.38245    
 204580000   243.67569     -418.37242     -336.76225     -418.33958      0              4610.3529      30.933001      21.326696      32.596252      21503.705      3966.7749      4163.0127      5701.271       1622.138      -35.635996     -745.98765    
 204582000   248.89074     -418.46406     -335.1073      -418.43867      0              6415.0174      30.933001      21.326696      32.545443      21470.186      6807.1885      6456.4091      5981.4544     -1692.206       670.01485      41.909378    
 204584000   247.01835     -418.01561     -335.28594     -417.99026      0              4696.8696      30.933001      21.326696      32.526273      21457.54       3648.1678      5512.8003      4929.6408      255.25978      498.23491      2190.1279    
 204586000   255.47627     -420.42694     -334.8646      -420.39663      0              6494.3711      30.933001      21.326696      32.705249      21575.61       4377.9457      8356.1673      6749.0002      821.8437      -102.02928     -432.67845    
 204588000   244.85647     -418.3622      -336.35657     -418.32299      0              3155.7172      30.933001      21.326696      32.970211      21750.406      1839.5372      4441.1851      3186.4293     -1650.5099      1107.563       733.28577    
 204590000   247.30357     -418.79796     -335.97277     -418.76563      0              4780.756       30.933001      21.326696      32.790235      21631.676      4102.7065      5390.6991      4848.8623     -1040.707       991.98519      877.50388    
 204592000   245.54693     -413.46745     -331.23058     -413.42174      0              4842.6011      30.933001      21.326696      32.592578      21501.282      4566.9676      3500.9973      6459.8384      283.46393      1116.9116      919.11066    
 204594000   249.06033     -420.72595     -337.3124      -420.69945      0              4798.3145      30.933001      21.326696      32.595352      21503.111      3949.2912      4044.9781      6400.6742     -782.46246      1808.6636     -266.64791    
 204596000   257.63422     -419.66347     -333.37841     -419.64007      0              6181.7516      30.933001      21.326696      32.678332      21557.854      5986.7631      4943.7937      7614.698       278.6127      -312.50465      886.10481    
 204598000   252.06062     -419.70907     -335.29068     -419.67999      0              5547.4214      30.933001      21.326696      32.535207      21463.434      5534.325       5216.4339      5891.5054      56.057123      981.58659      64.088729    
 204600000   251.54901     -417.09722     -332.85017     -417.07007      0              5104.7119      30.933001      21.326696      32.350912      21341.855      3530.055       6334.5761      5449.5047     -631.89497      605.79737      163.71697    
 204602000   247.33545     -419.46305     -336.62718     -419.45021      0              7227.6626      30.933001      21.326696      32.498188      21439.013      5976.4705      7860.4016      7846.1156     -428.9085       1850.2507      391.17107    
 204604000   244.21008     -420.69583     -338.90669     -420.68064      0              7565.6526      30.933001      21.326696      32.437882      21399.229      6823.5809      8112.5572      7760.8199      314.99108      569.25377      738.76689    
 204606000   243.60438     -418.34016     -336.75387     -418.31437      0              5338.3221      30.933001      21.326696      32.399387      21373.834      5566.3413      5265.659       5182.9661     -302.61471      760.95467      333.31313    
 204608000   250.90264     -414.89695     -330.86639     -414.86428      0              7051.6485      30.933001      21.326696      32.416115      21384.869      6981.5842      7688.847       6484.5141      692.39158      1937.3526      1185.7059    
 204610000   247.55102     -420.23792     -337.32985     -420.21948      0              5728.1074      30.933001      21.326696      32.453142      21409.296      5780.3591      5606.2047      5797.7585     -1112.2856     -366.78007      90.136842    
 204612000   243.35501     -418.09567     -336.5929      -418.06417      0              4791.1718      30.933001      21.326696      32.508933      21446.101      6001.7423      4200.1996      4171.5735      1545.1225      223.7319       519.8993     
 204614000   249.15745     -417.3544      -333.90832     -417.33003      0              7068.7673      30.933001      21.326696      32.668627      21551.451      6183.8679      6171.2913      8851.1428     -144.94106      367.82835      173.84196    
 204616000   253.68295     -419.03859     -334.07686     -419.01515      0              5575.5236      30.933001      21.326696      32.607889      21511.383      6506.7226      4888.1923      5331.656      -367.08062      490.23302     -1249.048     
 204618000   254.81911     -420.27403     -334.93179     -420.24482      0              8641.6947      30.933001      21.326696      32.332054      21329.414      9790.8064      8611.5691      7522.7085      940.85864      699.06625     -242.93109    
 204620000   258.97337     -417.38624     -330.65268     -417.36165      0              5858.8376      30.933001      21.326696      32.427253      21392.217      4252.7301      5782.726       7541.0567      412.90855      977.33033      2149.1056    
 204622000   254.60795     -417.30346     -332.03194     -417.26826      0              6882.4153      30.933001      21.326696      32.383498      21363.352      9434.3764      4541.3123      6671.5572     -877.9843      -320.28278      1898.98      
 204624000   250.42006     -416.23608     -332.36714     -416.20914      0              4981.2887      30.933001      21.326696      32.630697      21526.429      4197.1926      4581.04        6165.6336     -1304.3379      947.56229      495.39353    
 204626000   243.05999     -415.44775     -334.04379     -415.42125      0              3817.5272      30.933001      21.326696      32.652133      21540.57       4031.6837      4189.1258      3231.7722     -764.09744     -1373.5201      1305.4585    
 204628000   250.59152     -418.45657     -334.53021     -418.4502       0              5010.5507      30.933001      21.326696      32.887869      21696.084      6508.2785      1874.9536      6648.4201     -1768.4086      643.64249      1816.6545    
 204630000   249.9462      -418.63094     -334.9207      -418.59286      0              6851.981       30.933001      21.326696      32.718443      21584.315      7422.2412      7587.4763      5546.2255     -236.03671     -125.23075     -18.476963    
 204632000   249.7446      -420.32728     -336.68456     -420.31538      0              5774.4473      30.933001      21.326696      32.571508      21487.382      5060.3529      5874.7314      6388.2575      23.094226      745.61176      753.05781    
 204634000   245.83058     -420.93316     -338.60129     -420.91259      0              7110.2405      30.933001      21.326696      32.645651      21536.294      7575.9653      7498.8747      6255.8814     -775.17853      1605.9921     -66.222945    
 204636000   252.1439      -420.28715     -335.84087     -420.26532      0              4853.9809      30.933001      21.326696      32.515184      21450.225      5041.8782      2854.3167      6665.7478     -267.33969      1062.3431      192.67923    
 204638000   248.74525     -415.74684     -332.43881     -415.72391      0              6320.3414      30.933001      21.326696      32.513802      21449.313      6568.6511      5769.9115      6622.4615     -171.19288     -541.60891      843.98171    
 204640000   254.05771     -421.4275      -336.34026     -421.4069       0              5249.3792      30.933001      21.326696      32.564345      21482.656      3706.8097      3972.6156      8068.7123      558.79829     -198.57282      508.16119    
 204642000   245.40644     -417.4787      -335.28888     -417.45023      0              4621.0612      30.933001      21.326696      32.59769       21504.654      4496.9316      4693.3458      4672.9061     -889.4668      -175.58439      309.23182    
 204644000   255.21376     -416.32802     -330.85361     -416.30641      0              7068.4919      30.933001      21.326696      32.463703      21416.263      6048.8269      7593.5952      7563.0537     -1137.597      -677.46359      684.98378    
 204646000   251.66654     -421.02525     -336.73885     -421.01267      0              6083.6274      30.933001      21.326696      32.41475       21383.969      6056.4847      4965.8961      7228.5014      285.46264      295.50082     -164.70956    
 204648000   251.55995     -418.37049     -334.11979     -418.36978      0              6714.3166      30.933001      21.326696      32.432843      21395.904      5891.0551      7220.2112      7031.6834      305.46402      60.744112     -840.93756    
 204650000   244.77966     -418.65175     -336.67185     -418.61507      0              5796.5342      30.933001      21.326696      32.461551      21414.844      4428.4194      7457.2869      5503.8962     -1582.8293     -1337.8056      793.68824    
 204652000   254.35523     -418.32936     -333.14248     -418.30557      0              4664.1272      30.933001      21.326696      32.557653      21478.242      4357.1923      5461.0211      4174.1682     -110.11233     -1247.9812     -1394.6027    
 204654000   257.05955     -418.32533     -332.23274     -418.28554      0              5241.746       30.933001      21.326696      32.645037      21535.889      4636.3496      4551.1538      6537.7347      1881.0797     -998.36911     -519.93117    
 204656000   246.57778     -418.21045     -335.62834     -418.17217      0              3995.2809      30.933001      21.326696      32.686886      21563.496      4701.7418      5085.2367      2198.864       459.75785     -1345.1303     -340.52106    
 204658000   252.35718     -419.80831     -335.2906      -419.83013      0              7255.6038      30.933001      21.326696      32.538688      21465.73       6642.0065      7167.3003      7957.5047      1870.2092     -388.33114      1078.7424    
 204660000   246.42877     -419.02103     -336.48882     -418.988        0              4675.0394      30.933001      21.326696      32.416952      21385.422      5259.2992      3937.0239      4828.795      -1600.7409     -1057.8931      748.39093    
 204662000   250.42611     -416.09244     -332.22147     -416.0466       0              4906.1393      30.933001      21.326696      32.345492      21338.279      4662.1777      4485.7239      5570.5165     -361.4771      -464.77936      646.42425    
 204664000   248.03407     -419.05086     -335.98101     -419.02396      0              7151.6467      30.933001      21.326696      32.357335      21346.092      6575.2088      8108.9713      6770.7599     -558.25105      820.53597     -827.96083    
 204666000   247.50671     -418.02316     -335.12993     -417.99422      0              5120.3976      30.933001      21.326696      32.458691      21412.956      4255.5197      6506.8359      4598.8372      183.57944      730.15458     -1403.3969    
 204668000   243.0759      -418.56662     -337.15733     -418.52655      0              6984.6623      30.933001      21.326696      32.47414       21423.148      8399.7504      8861.0611      3693.1755      1723.554      -987.22084      171.49724    
 204670000   254.60422     -418.15742     -332.88715     -418.1233       0              7457.1399      30.933001      21.326696      32.467094      21418.5        7240.8839      9204.559       5925.9766      77.611422     -605.58506      498.88686    
 204672000   245.16617     -417.58729     -335.47794     -417.55215      0              5413.699       30.933001      21.326696      32.544033      21469.256      5514.7442      5932.4274      4793.9253      549.67004      1201.3433      1092.1251    
 204674000   253.6326      -420.13651     -335.19164     -420.10516      0              7516.2842      30.933001      21.326696      32.640342      21532.791      7136.8827      7112.1922      8299.7778      11.181253      480.38366     -282.73495    
 204676000   252.69547     -418.93416     -334.30316     -418.88986      0              5033.4088      30.933001      21.326696      32.614766      21515.919      6436.9048      4459.8386      4203.4829      723.72182     -1855.4569      692.37178    
 204678000   251.30902     -420.36107     -336.1944      -420.34442      0              6564.9785      30.933001      21.326696      32.47113       21421.162      6085.7956      7680.9491      5928.1907     -113.76358     -466.60503     -577.52104    
 204680000   255.85219     -418.90429     -333.21606     -418.87367      0              6842.7899      30.933001      21.326696      32.471188      21421.201      4694.8384      7184.8822      8648.6492      206.21588     -776.80909      1151.6773    
 204682000   244.9945      -417.20675     -335.1549      -417.17561      0              8265.7907      30.933001      21.326696      32.395895      21371.53       8715.5955      9495.6586      6586.118      -829.74423     -1112.248       410.99583    
 204684000   252.95037     -418.37278     -333.6564      -418.34233      0              5369.1449      30.933001      21.326696      32.544064      21469.277      3764.077       6065.2257      6278.1321     -915.61328     -1084.0561      2616.1989    
 204686000   238.71987     -420.12266     -340.17227     -420.10127      0              4818.8532      30.933001      21.326696      32.682359      21560.51       5748.165       4907.7578      3800.6368      321.67423      1153.4349     -342.0066     
 204688000   246.24632     -418.27649     -335.80539     -418.23869      0              7151.5546      30.933001      21.326696      32.55068       21473.641      7909.4617      6585.8664      6959.3357     -122.85034     -849.7537      -2213.9144    
 204690000   253.65764     -416.90537     -331.95212     -416.88008      0              6147.8381      30.933001      21.326696      32.65065       21539.591      4127.5416      6130.2363      8185.7363     -260.35269     -331.69171      213.8179     
 204692000   257.02825     -417.26577     -331.18365     -417.21581      0              6150.1936      30.933001      21.326696      32.66047       21546.07       5223.0666      5719.4561      7508.058       592.45332     -56.627489     -153.87341    
 204694000   257.20255     -418.83224     -332.69175     -418.80094      0              5975.4526      30.933001      21.326696      32.626203      21523.464      6266.4184      4388.1816      7271.7577     -278.05195     -326.86846     -715.17061    
 204696000   242.6538      -417.43777     -336.16985     -417.3945       0              4481.8441      30.933001      21.326696      32.679503      21558.626      5115.5397      3887.3721      4442.6205     -2854.297       733.79434      697.08052    
 204698000   252.86471     -416.94303     -332.25534     -416.90155      0              6439.3953      30.933001      21.326696      32.647098      21537.249      4832.3276      7889.5948      6596.2635     -349.75986     -371.74643      490.24871    
 204700000   247.26995     -415.48482     -332.67089     -415.44162      0              6916.3361      30.933001      21.326696      32.54321       21468.713      5631.3898      6562.2438      8555.3747     -504.33877      177.11261     -142.32989    
 204702000   252.32985     -415.89725     -331.38869     -415.85267      0              7734.3383      30.933001      21.326696      32.597649      21504.627      7636.4068      8239.9325      7326.6755      1006.4332     -4121.9143     -638.37208    
 204704000   248.38992     -417.6458      -334.45677     -417.60526      0              7087.9984      30.933001      21.326696      32.536679      21464.405      7637.0786      8380.5964      5246.3204      153.3314       187.50172      854.90068    
 204706000   248.73292     -417.73795     -334.43405     -417.6901       0              5495.0915      30.933001      21.326696      32.832675      21659.673      5020.8837      5679.2603      5785.1307      438.0723       1092.8485     -296.0768     
 204708000   251.54578     -417.79084     -333.54488     -417.74463      0              5579.1949      30.933001      21.326696      32.721636      21586.421      6008.2598      4736.4517      5992.8733     -76.503532     -289.01137     -92.122691    
 204710000   254.32816     -417.74866     -332.57084     -417.71125      0              5921.3988      30.933001      21.326696      32.620221      21519.518      8980.8284      4359.4117      4423.9561     -1251.1959     -331.66099      747.49173    
 204712000   249.12457     -419.50114     -336.06607     -419.45523      0              5094.7982      30.933001      21.326696      32.490216      21433.753      5471.9091      5415.1103      4397.3751      1402.9007     -566.28084     -459.36446    
 204714000   254.0616      -416.87733     -331.78879     -416.83517      0              8536.67        30.933001      21.326696      32.426614      21391.795      7376.837       10597.307      7635.8657     -206.7694      -1615.1982      910.88418    
 204716000   253.38837     -416.03082     -331.16775     -415.98894      0              5434.1427      30.933001      21.326696      32.530872      21460.574      4879.2611      4917.1711      6505.996      -756.0056      -2282.6323      2639.2629    
 204718000   257.25993     -418.91457     -332.75487     -418.86705      0              5263.7553      30.933001      21.326696      32.64687       21537.098      5457.2813      4898.2085      5435.7762     -520.01088      61.673964     -359.96272    
 204720000   251.50918     -418.9453      -334.7116      -418.89707      0              4520.1521      30.933001      21.326696      32.916875      21715.22       4462.7715      2998.0125      6099.6723      240.67181      1359.3246      1420.4576    
[...]
 204840000   250.27177     -417.41804     -333.59876     -417.38178      0              5280.2843      30.933001      21.326696      32.573353      21488.599      5222.2649      5466.7734      5151.8147      181.29988      481.65577      1019.4785    
 204842000   247.6488      -418.27056     -335.32975     -418.22875      0              5395.0343      30.933001      21.326696      32.506573      21444.544      4596.5695      6700.609       4887.9245      360.04651      604.55584     -995.38898    
 204844000   250.01604     -416.62764     -332.89401     -416.58198      0              6036.4211      30.933001      21.326696      32.761164      21612.497      6751.8522      6564.4746      4792.9367      1189.7171      1865.2987     -35.473641    
 204846000   252.25793     -418.4265      -333.94203     -418.37396      0              5383.0688      30.933001      21.326696      32.526661      21457.797      3380.7327      6390.441       6378.0326      166.50014      451.30445     -664.5013     
 204848000   252.82575     -416.5826      -331.90796     -416.53057      0              7275.678       30.933001      21.326696      32.614374      21515.66       6983.8367      8472.6346      6370.5628     -100.85139      349.7944      -1294.5337    
 204850000   247.71919     -418.06181     -335.09742     -417.99953      0              5018.6102      30.933001      21.326696      32.66963       21552.113      4239.5897      3872.8337      6943.4071      953.60398     -332.62612      544.466      
 204852000   249.23001     -415.63083     -332.16045     -415.58179      0              5931.1157      30.933001      21.326696      32.568122      21485.148      4568.8343      6280.3239      6944.1889      285.06034      4.2853628      758.34631    
 204854000   253.29539     -417.86668     -333.03475     -417.83099      0              8182.7225      30.933001      21.326696      32.447102      21405.311      8266.5652      8028.4716      8253.1307      1099.498       940.88972      711.4292     
 204856000   256.26891     -419.05474     -333.22694     -419.0074       0              6439.7706      30.933001      21.326696      32.411888      21382.08       6493.3753      7300.7507      5525.1858     -322.98341     -1027.6013     -334.36904    
 204858000   250.18845     -417.72409     -333.93272     -417.67338      0              4864.5828      30.933001      21.326696      32.509494      21446.471      4964.5369      4626.1151      5003.0964     -385.48799      2107.1044     -488.74354    
 204860000   242.4111      -414.82376     -333.63712     -414.77933      0              5951.2305      30.933001      21.326696      32.682106      21560.343      6109.5406      5934.9891      5809.1618     -1252.5018      1051.5954      274.90644    
 204862000   245.18421     -415.91032     -333.79494     -415.87504      0              6637.1219      30.933001      21.326696      32.464734      21416.943      6471.9299      5847.0953      7592.3405     -123.89368     -54.545952      1367.9544    
 204864000   251.72513     -416.4763      -332.17027     -416.44031      0              6494.6869      30.933001      21.326696      32.46869       21419.553      6690.0576      5636.9469      7157.0562      360.03633      523.22748     -1408.4664    
 204866000   245.47548     -420.18383     -337.97089     -420.1447       0              8259.0171      30.933001      21.326696      32.452031      21408.563      7740.299       8346.5603      8690.192      -141.02394     -337.75878     -90.819791    
 204868000   251.09751     -417.16497     -333.06914     -417.11689      0              7987.38        30.933001      21.326696      32.541549      21467.618      9269.5643      6212.4421      8480.1336      1589.7561     -777.86497      1059.8504    
 204870000   250.74232     -418.03595     -334.05908     -417.98377      0              6187.5934      30.933001      21.326696      32.69331       21567.734      4776.7878      7040.9551      6745.0373      1789.4         79.573502     -168.60749    
 204872000   247.05609     -418.74067     -335.99836     -418.70168      0              4608.2211      30.933001      21.326696      32.689162      21564.998      3958.0643      5170.1258      4696.473      -194.92259     -219.28381     -405.95776    
 204874000   253.5169      -418.0243      -333.11819     -417.98085      0              4887.0018      30.933001      21.326696      32.537565      21464.989      5618.1685      3173.3164      5869.5205      760.56328     -585.6641      -283.98226    
 204876000   247.41489     -416.95971     -334.09724     -416.92036      0              6875.5972      30.933001      21.326696      32.550724      21473.67       6142.402       7511.4201      6972.9693      720.95021     -708.22238     -1938.8998    
 204878000   246.4841      -415.23865     -332.68791     -415.19107      0              5070.4978      30.933001      21.326696      32.709003      21578.087      4022.8813      4644.7544      6543.8575     -308.71958     -284.5952      -564.23037    
 204880000   250.98532     -416.81758     -332.75933     -416.75679      0              4349.2395      30.933001      21.326696      32.685289      21562.443      6196.7773      2065.2177      4785.7236      2216.515       532.90823     -2311.6363    
 204882000   249.52037     -418.00251     -334.43489     -417.94916      0              7366.5654      30.933001      21.326696      32.651446      21540.117      5834.6865      7448.8128      8816.197       1495.0568      252.68958      473.84815    
 204884000   246.78721     -418.20642     -335.55417     -418.15732      0              7441.1186      30.933001      21.326696      32.512512      21448.462      6061.1555      7511.7876      8750.4128      1604.1003      463.91414     -1838.599     
 204886000   246.32224     -414.41157     -331.91504     -414.35519      0              4593.2621      30.933001      21.326696      32.529991      21459.993      4341.8773      4549.4405      4888.4685      827.04743     -585.80422     -1592.3295    
 204888000   245.21334     -415.92158     -333.79644     -415.87236      0              5247.8649      30.933001      21.326696      32.574325      21489.24       5338.0428      4372.5059      6033.0461     -833.05366     -816.87853     -952.93163    
 204890000   245.29041     -417.4639      -335.31294     -417.41594      0              8191.113       30.933001      21.326696      32.521693      21454.519      7735.2711      8559.0007      8279.0674      1502.0491     -2459.2361     -643.43705    
 204892000   249.08856     -418.83352     -335.41051     -418.78288      0              6591.518       30.933001      21.326696      32.516794      21451.287      7077.5131      5420.7573      7276.2836      174.2548      -886.3408      -720.94461    
 204894000   253.99704     -417.57743     -332.51051     -417.5292       0              6673.738       30.933001      21.326696      32.634327      21528.823      6365.6704      7569.0066      6086.5371      147.99925     -118.708       -2433.5089    
 204896000   255.37634     -418.73091     -333.20204     -418.68362      0              5960.4472      30.933001      21.326696      32.63005       21526.002      6195.6524      7081.6234      4604.0659     -1068.2885     -1309.9204     -537.46732    
 204898000   249.59905     -415.53994     -331.94597     -415.48649      0              6428.4176      30.933001      21.326696      32.638109      21531.318      4918.3405      8645.5239      5721.3885     -40.159019     -1202.0353     -367.56022    
 204900000   249.66921     -415.84198     -332.22451     -415.78726      0              5524.9301      30.933001      21.326696      32.539941      21466.557      5671.8413      6620.4427      4282.5064     -377.04072      62.258462     -1164.2581    
 204902000   250.32796     -416.43098     -332.59288     -416.38233      0              7355.4584      30.933001      21.326696      32.390051      21367.675      7996.6978      7477.724       6591.9535     -39.353444     -655.39213     -15.463781    
 204904000   248.99753     -418.25989     -334.86737     -418.20741      0              6390.0126      30.933001      21.326696      32.366027      21351.826      5652.4666      6999.6403      6517.931      -1288.3975     -999.00608     -1302.8967    
 204906000   247.72181     -418.9027      -335.93743     -418.85459      0              7403.9273      30.933001      21.326696      32.440096      21400.689      8531.9664      5758.4068      7921.4089     -1218.1797     -1232.3951     -114.46004    
 204908000   246.05442     -416.48246     -334.07563     -416.43296      0              4958.9616      30.933001      21.326696      32.510298      21447.002      3481.8788      6986.5954      4408.4107      323.63019     -1571.5693     -1573.9412    
 204910000   252.45379     -418.50924     -333.95917     -418.45793      0              6086.8256      30.933001      21.326696      32.463784      21416.317      6149.9741      6113.312       5997.1907     -560.18813      678.0811      -447.4683     
 204912000   252.29318     -417.46013     -332.96385     -417.414        0              6125.4927      30.933001      21.326696      32.415929      21384.747      7877.171       4728.8514      5770.4557     -816.85251     -1367.6885      265.94601    
 204914000   251.52827     -418.02644     -333.78634     -417.97264      0              4935.5246      30.933001      21.326696      32.558757      21478.97       4611.5663      5461.8014      4733.2061     -261.46423      594.79685     -433.84901    
 204916000   246.83921     -416.67318     -334.00351     -416.62106      0              5536.7942      30.933001      21.326696      32.669245      21551.859      5227.718       5239.4585      6143.206       1312.8024     -183.66791      134.9309     
 204918000   247.19622     -419.28498     -336.49574     -419.23323      0              4542.2463      30.933001      21.326696      32.569423      21486.006      4841.1323      4001.36        4784.2467      1111.2562     -258.3674       2192.3006    
 204920000   250.4557      -417.90868     -334.0278      -417.85625      0              6334.1762      30.933001      21.326696      32.451242      21408.043      3345.4494      5872.0441      9785.0349     -161.33345      459.09185     -744.88206    
 204922000   248.20813     -417.57145     -334.44332     -417.51836      0              4347.9625      30.933001      21.326696      32.334682      21331.148      2386.7647      4901.7936      5755.3293     -21.595127      410.94238      390.73657    
 204924000   243.89123     -418.496       -336.81365     -418.45214      0              5397.9583      30.933001      21.326696      32.368986      21353.778      5474.4942      5756.0667      4963.314       1091.6276      685.06577     -282.89684    
 204926000   255.29414     -418.01525     -332.51391     -417.95624      0              6361.1732      30.933001      21.326696      32.516601      21451.159      7589.9566      5205.3218      6288.2413     -11.441931      348.00472     -303.74908    
 204928000   248.93569     -419.40336     -336.03155     -419.35663      0              6300.7088      30.933001      21.326696      32.521524      21454.407      8443.2932      6224.9225      4233.9106      2217.1302     -1142.1939     -558.7893     
 204930000   251.1083      -417.55585     -333.45641     -417.51769      0              5741.2517      30.933001      21.326696      32.66258       21547.462      6644.9829      4354.4375      6224.3347      1187.4974      882.85492     -1102.6329    
 204932000   255.13825     -417.32068     -331.87155     -417.27088      0              6721.235       30.933001      21.326696      32.505014      21443.516      6281.752       7141.5425      6740.4104      85.946626     -1588.6612     -434.16899    
 204934000   247.39474     -419.04665     -336.19093     -419.00867      0              7248.273       30.933001      21.326696      32.355512      21344.89       7729.6741      7280.5129      6734.6319      883.86072     -239.06862      862.17852    
 204936000   250.90248     -419.18672     -335.15621     -419.15417      0              6436.0685      30.933001      21.326696      32.394358      21370.516      7248.8559      6554.1857      5505.164       397.4875      -1008.0283     -149.15667    
 204938000   254.9307      -419.53428     -334.15467     -419.50391      0              7164.7024      30.933001      21.326696      32.291769      21302.838      4385.1524      8627.4924      8481.4623      579.14601      931.20374     -574.28717    
 204940000   249.94117     -418.25118     -334.54262     -418.20594      0              4977.8309      30.933001      21.326696      32.569453      21486.026      6051.266       3711.3331      5170.8937     -1112.6399      291.70864     -594.62724    
 204942000   243.28501     -418.52053     -337.04121     -418.46573      0              5212.5716      30.933001      21.326696      32.684983      21562.241      4643.1056      4940.4654      6054.1438      1240.3082      673.91812     -621.70887    
 204944000   252.92579     -417.53187     -332.82372     -417.4745       0              6003.8134      30.933001      21.326696      32.627519      21524.332      5758.6873      6603.6372      5649.1155      2105.3864      255.1382      -1359.2399    
 204946000   253.05769     -416.49629     -331.74397     -416.44005      0              5243.576       30.933001      21.326696      32.564225      21482.577      6122.0851      4648.9535      4959.6895      152.49636      935.99762     -147.05421    
 204948000   248.03745     -419.62795     -336.55697     -419.57711      0              5706.5731      30.933001      21.326696      32.620213      21519.512      6250.8783      4303.652       6565.1889     -2023.8963     -567.86257      1231.265     
 204950000   245.77144     -415.63882     -333.32676     -415.58322      0              6772.3492      30.933001      21.326696      32.736304      21596.098      7201.0074      6865.7835      6250.2567     -800.03124     -218.64863     -104.89344    
 204952000   246.01897     -415.83182     -333.43686     -415.75402      0              4346.8404      30.933001      21.326696      32.685534      21562.604      3248.0729      6237.4166      3555.0318     -736.5267       361.55856     -711.30092    
 204954000   249.7257      -418.83237     -335.19598     -418.7821       0              6148.2987      30.933001      21.326696      32.556736      21477.637      7047.6525      6052.8572      5344.3862     -639.49518      264.03005      2003.0353    
 204956000   247.46216     -419.85895     -336.98064     -419.80436      0              4355.7197      30.933001      21.326696      32.693675      21567.975      3152.9264      5066.4439      4847.7889      216.01945      757.08469     -164.4875     
 204958000   250.0608      -417.36726     -333.61864     -417.32669      0              6086.3676      30.933001      21.326696      32.49481       21436.784      7870.7445      4998.5201      5389.8384     -1083.6944      152.68604     -545.0865     
 204960000   247.94497     -414.55382     -331.51382     -414.50133      0              6180.7109      30.933001      21.326696      32.571511      21487.384      8094.9087      5040.3633      5406.8607     -879.82006      756.20714      627.25377    
 204962000   248.92455     -416.498       -333.12993     -416.45496      0              7525.0847      30.933001      21.326696      32.597712      21504.669      6878.4791      8373.9209      7322.8542     -801.06918     -213.50156     -805.31214    
 204964000   255.03888     -418.56684     -333.151       -418.52461      0              6711.0404      30.933001      21.326696      32.403612      21376.621      7641.8849      5676.4799      6814.7563     -1120.0533      450.53094      960.15661    
 204966000   252.47951     -418.5149      -333.95622     -418.46316      0              4508.42        30.933001      21.326696      32.483295      21429.187      5334.8178      4257.2035      3933.2389     -647.43476     -68.032537     -270.88543    
 204968000   239.34434     -418.50811     -338.34858     -418.47797      0              6035.7818      30.933001      21.326696      32.350942      21341.875      6201.0707      6752.7461      5153.5285     -541.17133      345.57938     -387.90661    
 204970000   246.82568     -416.29843     -333.6333      -416.25702      0              7825.3354      30.933001      21.326696      32.283642      21297.477      8193.1017      4785.6657      10497.239      500.4728      -113.46903      113.34562    
 204972000   254.34806     -416.25041     -331.06593     -416.20263      0              5942.9478      30.933001      21.326696      32.527859      21458.586      5040.243       6470.5054      6318.0949      80.854231      69.417849      247.62947    
 204974000   248.17389     -417.36949     -334.25282     -417.32834      0              6984.3305      30.933001      21.326696      32.532898      21461.911      4111.5474      9199.6103      7641.8337      495.56872      1075.7778     -505.58583    
 204976000   254.85708     -417.80744     -332.45248     -417.75205      0              5248.1994      30.933001      21.326696      32.630355      21526.203      3773.2585      5221.0074      6750.3323      1069.0182     -1178.6999      1076.9036    
 204978000   250.58931     -416.35509     -332.42946     -416.31896      0              4956.3807      30.933001      21.326696      32.614025      21515.43       6351.2594      3915.7916      4602.0912     -28.417124      744.94829     -2381.3956    
 204980000   252.15014     -416.99112     -332.54275     -416.95147      0              6705.0592      30.933001      21.326696      32.573278      21488.549      5947.8767      7379.9757      6787.3253      2261.2275      158.54069      303.82089    
 204982000   249.86922     -414.24858     -330.56412     -414.20514      0              6630.2827      30.933001      21.326696      32.488466      21432.599      4193.2647      7414.4106      8283.1727     -430.56305      492.51251      613.42471    
 204984000   255.08044     -418.60516     -333.17539     -418.56883      0              8783.22        30.933001      21.326696      32.33929       21334.188      8173.1507      9172.1718      9004.3375      145.56315      1539.0643     -252.06622    
 204986000   247.47147     -414.96621     -332.08479     -414.91253      0              5408.6427      30.933001      21.326696      32.490771      21434.12       3638.0263      5796.2931      6791.6087     -102.79734      1375.7185     -1212.8911    
 204988000   243.98128     -414.89829     -333.18578     -414.8528       0              6977.2796      30.933001      21.326696      32.462241      21415.298      5228.8757      7597.6417      8105.3215     -2151.2693     -1977.7948     -680.19303    
 204990000   247.40171     -415.26482     -332.40676     -415.21053      0              8034.4952      30.933001      21.326696      32.416101      21384.86       8514.2473      6490.4025      9098.8358      1088.6297     -1248.3949      103.62564    
 204992000   248.8981      -418.28234     -334.92313     -418.23412      0              8084.0846      30.933001      21.326696      32.547075      21471.264      6763.7085      9350.7095      8137.8359      343.67093      373.60174     -471.47162    
 204994000   250.40196     -415.0507      -331.18782     -415.00233      0              5543.0054      30.933001      21.326696      32.657002      21543.782      5750.2729      7780.318       3098.4253     -835.06628      1631.4635      103.58207    
 204996000   249.22963     -416.06664     -332.59639     -416.01711      0              5006.2716      30.933001      21.326696      32.614616      21515.82       5637.3708      6841.5125      2539.9313      1050.6805     -22.37968    