LAMMPS data file via write_data, version 29 Sep 2021, timestep = 400000

864 atoms
2 atom types

0.06729214810359352 18.1402808518976 xlo xhi
0.09179226121845119 23.537384738781096 ylo yhi
0.09764163507502488 22.115554364923888 zlo zhi

Masses

1 1.008
2 15.999

Atoms # full

706 0 1 -1.1794 3.203096338015276 2.033487359402791 3.093717775674231 0 0 0
708 0 2 0.5897 2.4237901448548875 2.643062661091294 2.8140064978375814 0 0 0
3 0 2 0.5897 0.39089243025188164 4.14307605137672 2.814426922128157 0 0 0
20 0 2 0.5897 0.48273312948703245 3.5105001634339636 0.5082291527881686 0 0 0
1 0 1 -1.1794 0.6204951206639663 3.2635557617282527 2.411188880691522 0 0 0
188 0 2 0.5897 3.382596322680669 0.4264399553927709 2.4391865831767223 0 0 0
707 0 2 0.5897 3.118257897682073 1.9075523746252598 4.058841082236579 0 0 0
29 0 2 0.5897 4.723923456065872 2.825791447662697 2.671655754439891 0 0 0
28 0 1 -1.1794 5.4930192357365275 3.2128481875139676 2.296661757146533 0 0 0
493 0 1 -1.1794 8.02237912897597 1.9384340497101726 2.806062707352223 0 0 0
494 0 2 0.5897 7.129508459933702 2.328887486689258 2.634743433651272 0 0 0
495 0 2 0.5897 8.654298370044902 2.5812167746031833 2.5297243744581532 0 0 0
30 0 2 0.5897 5.394026418036507 4.230303117746299 2.4422879957890107 0 0 0
668 0 2 0.5897 5.556911685353852 3.189343285717186 0.452488330291518 0 0 0
750 0 2 0.5897 10.005222104048011 3.457100908516682 1.032590777670295 0 0 0
748 0 1 -1.1794 10.212268148644833 3.6180472932531806 1.989387346105922 0 0 0
749 0 2 0.5897 9.945829647174685 4.519833103248067 2.291314995535602 0 0 0
106 0 1 -1.1794 12.117317567498194 1.7660125647538958 3.1702195621602356 0 0 0
108 0 2 0.5897 11.433210151359143 2.24779957302566 2.656570340983964 0 0 0
107 0 2 0.5897 11.871325094991047 1.851624436101998 4.133149314848898 0 0 0
215 0 2 0.5897 13.484392708168654 2.813980214498518 2.49036750441298 0 0 0
2 0 2 0.5897 17.96427531426828 2.6627849584281655 2.653050162051363 0 0 0
214 0 1 -1.1794 14.286092272636537 3.265595212917875 2.1061993682131086 0 0 0
216 0 2 0.5897 14.248900734723103 4.193364040675667 2.509762312629385 0 0 0
406 0 1 -1.1794 16.53749030964192 1.649013563670822 2.7761926564162205 0 0 0
408 0 2 0.5897 15.676675217195658 2.012987931174849 2.435379368211046 0 0 0
407 0 2 0.5897 16.693628658536625 0.7158928806461615 2.4185180971250446 0 0 0
369 0 2 0.5897 14.097686895485111 2.9931634123187982 0.3501069818909536 0 0 0
660 0 2 0.5897 16.494695084086892 1.7070672008371541 4.477033648174963 0 0 0
123 0 2 0.5897 2.9452048975228533 8.338054493755662 2.657872001464813 0 0 0
253 0 1 -1.1794 2.609305572512436 6.7954581692307565 1.9045620512168064 0 0 0
254 0 2 0.5897 2.498621710705414 6.959106726648134 0.923194205924701 0 0 0
255 0 2 0.5897 1.7930710626250994 6.389803590273283 2.283942619560853 0 0 0
597 0 2 0.5897 0.6083583249194998 5.977577496039474 4.252431194338193 0 0 0
595 0 1 -1.1794 0.4183967823191894 5.904216761732972 3.332571662706291 0 0 0
138 0 2 0.5897 4.217021451713156 6.1699977407546704 2.4537429705209757 0 0 0
122 0 2 0.5897 3.341193935168176 9.357583070305775 3.8567319467146137 0 0 0
121 0 1 -1.1794 2.9783201116323745 9.22261270429779 2.9633483927581303 0 0 0
136 0 1 -1.1794 5.149589879192332 5.922433314156454 2.765407346314397 0 0 0
65 0 2 0.5897 7.38943693735135 9.065465933337238 2.8570413815153453 0 0 0
415 0 1 -1.1794 7.37353581232787 7.338197777719874 2.1138101611111697 0 0 0
416 0 2 0.5897 6.67001874481024 6.709706683748665 2.346148897023604 0 0 0
417 0 2 0.5897 8.221453866021934 6.824405883283415 2.3493587433658765 0 0 0
137 0 2 0.5897 5.157376900400926 5.952941740547511 3.766312414660984 0 0 0
162 0 2 0.5897 7.344956711619796 7.1656279040637445 0.31719517306347295 0 0 0
298 0 1 -1.1794 9.71764790120377 6.211242832453875 2.9797588317744212 0 0 0
190 0 1 -1.1794 12.159284970707144 6.989017572331824 2.2439451568972073 0 0 0
191 0 2 0.5897 12.025259689632973 6.936643739074715 1.2613243849573947 0 0 0
192 0 2 0.5897 12.006415848469226 7.945664678433244 2.439486567593481 0 0 0
299 0 2 0.5897 10.656962865416022 6.448428039068049 2.772517729379525 0 0 0
300 0 2 0.5897 9.717084425815731 6.322790930804805 3.9506934547341968 0 0 0
110 0 2 0.5897 13.66021421218246 6.237688792218297 2.6830130270972568 0 0 0
596 0 2 0.5897 17.65293643801147 6.304632461211429 3.026940607548244 0 0 0
109 0 1 -1.1794 14.367468538174391 5.746242952729769 3.1054766363985578 0 0 0
111 0 2 0.5897 15.189124451287444 6.077259865821276 2.732185273228602 0 0 0
838 0 1 -1.1794 16.44669062967446 7.082919395971279 1.9584274038948173 0 0 0
839 0 2 0.5897 16.68079217554079 7.955263702860323 2.344403133679559 0 0 0
840 0 2 0.5897 16.69855392605075 6.974412384893425 1.0399516354815894 0 0 0
842 0 2 0.5897 16.732602185097917 9.284117712600985 4.142780991930112 0 0 0
841 0 1 -1.1794 16.70278450586749 9.411915681949075 3.1847174190948735 0 0 0
44 0 2 0.5897 1.6836472552546093 10.44524000839467 2.5207965186575776 0 0 0
45 0 2 0.5897 0.706060896868241 11.729370830540132 2.6833688009536836 0 0 0
43 0 1 -1.1794 0.8055343027521498 10.816379934935005 2.359072609076851 0 0 0
373 0 1 -1.1794 0.6767404075023846 13.253439488879504 3.241163725543556 0 0 0
374 0 2 0.5897 0.9061984982099672 13.262311016177577 4.210096564724217 0 0 0
396 0 2 0.5897 0.966217718985002 11.023580733514088 0.45123970314966716 0 0 0
173 0 2 0.5897 4.434872782309419 13.6008597277461 2.3769314881104986 0 0 0
557 0 2 0.5897 2.1072457557580404 14.023965990254453 2.4771023646758894 0 0 0
66 0 2 0.5897 7.397462307213466 9.591327957393144 4.258614540241773 0 0 0
64 0 1 -1.1794 7.401518249096771 9.885317231324061 3.3580148129550937 0 0 0
219 0 2 0.5897 4.644862613967975 10.060903163139981 1.9621384161417446 0 0 0
172 0 1 -1.1794 5.220494400161614 13.194379670315538 2.841339402750778 0 0 0
174 0 2 0.5897 5.09521179448625 12.263372428260936 2.5430967814378684 0 0 0
217 0 1 -1.1794 5.4703894136809295 10.485347165163377 1.6450548080446177 0 0 0
218 0 2 0.5897 6.126892571534297 10.375068034309498 2.327575331803088 0 0 0
773 0 2 0.5897 9.104522662981319 10.24674545447263 2.473216329859525 0 0 0
92 0 2 0.5897 12.375098710607482 9.682105082443595 3.9291945559153665 0 0 0
91 0 1 -1.1794 12.29922555103008 9.549218294102726 2.9469993085775497 0 0 0
774 0 2 0.5897 9.544381340142705 10.548849274041356 1.09119686308288 0 0 0
772 0 1 -1.1794 9.784886424070958 10.76572424693848 1.9832729082946972 0 0 0
156 0 2 0.5897 9.880525226449729 12.507182670466786 2.5096783416295962 0 0 0
93 0 2 0.5897 11.522603618524737 10.060928859956901 2.6445258747818974 0 0 0
154 0 1 -1.1794 9.878942479653396 13.431373462960364 2.857946435933408 0 0 0
155 0 2 0.5897 10.527699772839933 13.863352432434038 2.362521046172627 0 0 0
860 0 2 0.5897 13.710061534219957 10.365419287887958 2.304380976776117 0 0 0
55 0 1 -1.1794 14.258782137530622 13.433756593093708 2.6608734497110293 0 0 0
859 0 1 -1.1794 14.500520828638317 10.753292186090167 1.8791524598391933 0 0 0
57 0 2 0.5897 14.351858366346299 12.51570828336725 2.365391239271596 0 0 0
843 0 2 0.5897 17.4950099917454 9.907268112914988 3.0049135907833757 0 0 0
861 0 2 0.5897 15.30439071105319 10.30247689173585 2.3214886771462426 0 0 0
56 0 2 0.5897 14.055377321447656 13.413253258172263 3.616731733621343 0 0 0
375 0 2 0.5897 18.002161752431068 13.836040910004746 3.0869334779973694 0 0 0
556 0 1 -1.1794 2.8845339476722245 14.429014668181216 1.9930653896019135 0 0 0
292 0 1 -1.1794 2.7935303141926817 17.046073096070973 3.0831835905747367 0 0 0
293 0 2 0.5897 2.83697920272164 16.098183917998142 2.6659489462466963 0 0 0
558 0 2 0.5897 2.6821764186056947 14.417659451623862 1.0679343601629676 0 0 0
344 0 2 0.5897 1.4338338306725238 18.46048524920012 2.2445915972289665 0 0 0
227 0 2 0.5897 4.124124884656346 18.10297806769562 2.7734731490826787 0 0 0
345 0 2 0.5897 0.8952791551055903 18.44122536742492 0.8834914297226693 0 0 0
294 0 2 0.5897 2.8680456385233777 16.94417119605136 4.030023698767234 0 0 0
480 0 2 0.5897 6.632231290031077 14.338164055334428 2.3791161091609636 0 0 0
479 0 2 0.5897 8.282883880918929 14.398624387057682 2.3583938932206823 0 0 0
448 0 1 -1.1794 7.237087087869814 17.397956503725187 3.7064801937159424 0 0 0
449 0 2 0.5897 7.229094583674727 16.53710467831927 3.257293543694435 0 0 0
450 0 2 0.5897 6.365590885955155 17.81167896122659 3.419918031756974 0 0 0
478 0 1 -1.1794 7.448910581432266 14.860464601573458 2.1636624781424647 0 0 0
321 0 2 0.5897 8.800905653233313 18.213197651928436 2.6099075234131117 0 0 0
317 0 2 0.5897 7.638278333952279 15.268718698026863 0.3374204560522693 0 0 0
602 0 2 0.5897 5.423551321443834 18.558416042490407 0.4561547910869397 0 0 0
226 0 1 -1.1794 4.917583656576966 18.537395548880557 2.538654546504273 0 0 0
560 0 2 0.5897 12.737836540080854 14.457537172064301 1.792991778936565 0 0 0
559 0 1 -1.1794 11.890920823775192 14.77395734295248 1.5040004723707017 0 0 0
320 0 2 0.5897 10.2691447473979 18.07397698604255 2.56112483372906 0 0 0
561 0 2 0.5897 11.996761614292307 14.72400102857637 0.5142099707250387 0 0 0
832 0 1 -1.1794 11.756563685051635 17.364023747723543 2.9043470515083825 0 0 0
833 0 2 0.5897 12.584973220650799 17.74969784763994 2.641045893324743 0 0 0
834 0 2 0.5897 11.81503837334139 16.425771037562743 2.5622008828791847 0 0 0
319 0 1 -1.1794 9.504700367627846 18.60665363183379 2.135186916618435 0 0 0
389 0 2 0.5897 9.714980254600054 18.509500027077674 0.4495492870456462 0 0 0
179 0 2 0.5897 15.707476192126373 14.220695511508984 2.700405710954735 0 0 0
178 0 1 -1.1794 16.590095898701232 14.659741041565555 2.647765876142799 0 0 0
180 0 2 0.5897 16.3635980328341 15.589924066444343 2.889833251332016 0 0 0
745 0 1 -1.1794 16.31630414587724 17.46088252345749 2.8068238409714468 0 0 0
746 0 2 0.5897 16.988067312160624 18.035343464358146 2.338550456027565 0 0 0
747 0 2 0.5897 15.55003443324842 18.074446426346622 2.781911213579799 0 0 0
614 0 2 0.5897 16.586860715631698 15.039327107207189 0.6930644354710078 0 0 0
343 0 1 -1.1794 0.832224657238856 18.982253613594366 1.6542114491988775 0 0 0
187 0 1 -1.1794 3.300868092137284 22.915488025494227 2.2267045012100324 0 0 0
189 0 2 0.5897 3.1192800118481006 22.876146746410114 1.2818988380386889 0 0 0
694 0 1 -1.1794 1.1523472353342008 21.392930125093837 2.913039822136773 0 0 0
695 0 2 0.5897 1.1403218702778335 20.64233875336024 2.3407592477608192 0 0 0
696 0 2 0.5897 1.8290854250558068 21.994873366666834 2.7309321293543163 0 0 0
819 0 2 0.5897 7.7456983925227565 23.527362967064033 2.5259094999961773 0 -1 0
266 0 2 0.5897 4.598034008050356 21.912108511238593 2.7952565926857633 0 0 0
265 0 1 -1.1794 5.272487829318549 21.303153950486283 3.2011887964599244 0 0 0
228 0 2 0.5897 4.7835368530277105 19.487028058010484 2.527410839462012 0 0 0
267 0 2 0.5897 6.1316005044720105 21.761763043938203 2.973998649836414 0 0 0
817 0 1 -1.1794 7.707511231600501 22.539801853947843 2.498590673183773 0 0 0
818 0 2 0.5897 8.54599411894536 22.183070213334844 2.765084383008378 0 0 0
498 0 2 0.5897 7.372659955014657 22.509770067066846 0.5365095539850193 0 0 0
63 0 2 0.5897 12.062984720914898 23.429859027702378 2.2235263223866917 0 -1 0
61 0 1 -1.1794 11.985914996983164 22.473391338635032 2.116409673962985 0 0 0
397 0 1 -1.1794 9.843045734024889 21.18983605540511 2.9852903949559306 0 0 0
398 0 2 0.5897 9.809493509817358 20.22839367919437 2.6696616027707787 0 0 0
399 0 2 0.5897 10.716557168841256 21.488845474866427 2.66434017246178 0 0 0
62 0 2 0.5897 12.882399729342794 22.06336600224343 2.4207958142125143 0 0 0
425 0 2 0.5897 11.852421916968808 22.25554006493305 0.24999542979319966 0 0 0
305 0 2 0.5897 14.17613100644083 18.87855927447475 1.1920396280540804 0 0 0
304 0 1 -1.1794 14.083933254059536 18.856172860196853 2.146683990882219 0 0 0
729 0 2 0.5897 17.49903689268687 22.16787331337082 2.5008346634933547 0 0 0
306 0 2 0.5897 14.2500548365053 19.81184834368683 2.4563877463745705 0 0 0
118 0 1 -1.1794 14.235672326289682 21.411070576230863 3.0334828680333197 0 0 0
120 0 2 0.5897 15.070655361706539 21.838392985483807 2.731462910829047 0 0 0
727 0 1 -1.1794 16.70218801228672 22.485085981077688 2.042532850514717 0 0 0
728 0 2 0.5897 16.80174796591878 22.414336181499063 1.0527140581349288 0 0 0
119 0 2 0.5897 14.214861828142949 21.40359913801272 3.9769589192760515 0 0 0
487 0 1 -1.1794 3.1708557523625647 1.9381267823877018 5.879637467437819 0 0 0
488 0 2 0.5897 2.3630232870852352 2.376037165938055 6.156221052741531 0 0 0
489 0 2 0.5897 3.176599657887499 0.9757128398882252 6.0242413683596885 0 0 0
784 0 1 -1.1794 0.6846096612191274 3.0662515435838418 6.78401571837395 0 0 0
785 0 2 0.5897 0.40740285770403784 3.1344721482536824 7.710738703055805 0 0 0
183 0 2 0.5897 0.7440347802090269 4.708984443369231 6.338913300913522 0 0 0
846 0 2 0.5897 7.953887474473384 1.8087357075879604 4.620713969913446 0 0 0
83 0 2 0.5897 4.775957648890127 2.879849316264236 6.221720277652505 0 0 0
82 0 1 -1.1794 5.551132678279408 3.481982583938701 6.40288350889213 0 0 0
84 0 2 0.5897 6.293307056217789 2.9065488129048234 6.295628120457482 0 0 0
844 0 1 -1.1794 7.6321113479878 1.7701818159672196 5.536070132533266 0 0 0
845 0 2 0.5897 7.479728200887742 0.8452903084374866 5.725776435521424 0 0 0
275 0 2 0.5897 5.360923488557493 3.5910594612539635 8.082538122093393 0 0 0
419 0 2 0.5897 9.003530048359279 2.808385819421634 6.318155383040073 0 0 0
420 0 2 0.5897 9.76931918331179 4.26507650222568 6.193279364951241 0 0 0
418 0 1 -1.1794 9.784512750372327 3.3041131767295253 6.55282919104075 0 0 0
177 0 2 0.5897 9.802872757411077 2.9672660775219066 8.422573437242553 0 0 0
802 0 1 -1.1794 11.841067011445492 2.000059369230827 5.821412653251339 0 0 0
803 0 2 0.5897 10.989450881784867 2.4169696195344406 6.08844976000102 0 0 0
804 0 2 0.5897 12.547615461900294 2.4043211381198946 6.271370002893947 0 0 0
171 0 2 0.5897 12.08799813456028 0.18986680094003844 6.3271773978035215 0 0 0
786 0 2 0.5897 18.063170366858127 2.5924819785414783 6.302752163256172 0 0 0
437 0 2 0.5897 14.257430877985648 2.834809011572275 7.726299926923015 0 0 0
436 0 1 -1.1794 14.372120562629242 2.8723666197509425 6.770279099938743 0 0 0
438 0 2 0.5897 15.292754248423089 2.61726503797452 6.559670874952053 0 0 0
658 0 1 -1.1794 16.843471592557655 1.5950719104407047 5.429002415103233 0 0 0
659 0 2 0.5897 16.867817111317926 0.6792118195924032 5.69177493965203 0 0 0
732 0 2 0.5897 14.14358823472226 4.428205399404025 6.065359856144395 0 0 0
10 0 1 -1.1794 3.050664747760252 6.967847654273526 6.677192297604256 0 0 0
11 0 2 0.5897 2.1374848008533824 6.637604270976779 6.516359287808307 0 0 0
12 0 2 0.5897 3.067653226264141 7.845774640591649 6.286990714690805 0 0 0
181 0 1 -1.1794 0.8086988976653626 5.677972152520798 6.150036516793786 0 0 0
650 0 2 0.5897 3.195128629154397 6.762724436185407 8.555540099719128 0 0 0
687 0 2 0.5897 4.483469622501041 6.436144462952215 6.119113413166863 0 0 0
686 0 2 0.5897 5.373460199836814 5.200898546272795 5.9335202768935975 0 0 0
685 0 1 -1.1794 5.301629255439849 6.158220614676466 5.6980083799040875 0 0 0
145 0 1 -1.1794 7.409622962187394 6.86997488054646 6.971375856496571 0 0 0
146 0 2 0.5897 6.577587151028432 6.576137253656521 6.465338278846934 0 0 0
147 0 2 0.5897 7.264307691687379 7.096783819995853 7.88190470804101 0 0 0
714 0 2 0.5897 7.814850097142365 8.42398113401838 6.314993238731923 0 0 0
712 0 1 -1.1794 7.681950566246815 9.339724167310509 6.09268323378946 0 0 0
165 0 2 0.5897 8.959369058616108 6.383258201614112 6.44140148513553 0 0 0
163 0 1 -1.1794 9.610452716314105 6.050831427000066 5.781662265183968 0 0 0
164 0 2 0.5897 10.477516259826363 6.3791316925442905 6.008912749516097 0 0 0
230 0 2 0.5897 12.423210772979258 8.642579401909638 5.928781684098281 0 0 0
391 0 1 -1.1794 12.142067245382487 6.921990478322636 6.562073169040891 0 0 0
392 0 2 0.5897 12.2487781420138 7.026171650873235 7.5014669727037795 0 0 0
393 0 2 0.5897 12.8908570644937 6.48428640270955 6.1210169466469315 0 0 0
731 0 2 0.5897 14.436848062787575 5.372526088598166 4.786115664675993 0 0 0
730 0 1 -1.1794 14.258492303153092 5.370400736327344 5.767885067622357 0 0 0
182 0 2 0.5897 17.965419010388114 5.9104268443319885 6.291245547833529 0 0 0
525 0 2 0.5897 16.58956094719381 8.548482832383995 6.247684190536437 0 0 0
541 0 1 -1.1794 16.205867752230706 6.696839497965379 6.785390039666835 0 0 0
542 0 2 0.5897 15.554969054942282 6.031015951589435 6.6092993358949474 0 0 0
543 0 2 0.5897 16.12121518994071 6.897096594463736 7.723378712619575 0 0 0
523 0 1 -1.1794 16.69444930302879 9.430493123796957 5.85265680829265 0 0 0
793 0 1 -1.1794 3.132700357831246 9.59080609914519 5.980493627977271 0 0 0
795 0 2 0.5897 4.0281114586111855 9.94723188536387 6.187819919783108 0 0 0
552 0 2 0.5897 0.6652530304290418 11.730854016693625 6.479607440970868 0 0 0
794 0 2 0.5897 2.4300125486592288 10.198211031555521 6.275779322798648 0 0 0
551 0 2 0.5897 0.652217461163759 10.898506297220807 7.761235692626277 0 0 0
550 0 1 -1.1794 0.9085997633402406 10.854762312859904 6.811197557293 0 0 0
655 0 1 -1.1794 0.4831298864384071 13.53185013307277 5.994545354429632 0 0 0
656 0 2 0.5897 1.23733077587771 14.007839366051357 6.347698777508352 0 0 0
200 0 2 0.5897 5.272697243365724 13.500786086452914 4.724909629001162 0 0 0
713 0 2 0.5897 8.516219062695543 9.802211521768033 6.28210243238382 0 0 0
577 0 1 -1.1794 5.440509612514138 10.926753249998846 6.593617670060734 0 0 0
578 0 2 0.5897 6.168725493190789 10.297666803947173 6.401208369279434 0 0 0
579 0 2 0.5897 5.54080221610344 11.717949868473754 6.053246479018626 0 0 0
582 0 2 0.5897 4.908758318867908 10.915998446967654 8.288854824974853 0 0 0
199 0 1 -1.1794 5.400821658560846 13.451567555503326 5.694612273001032 0 0 0
201 0 2 0.5897 6.210767270983546 13.909352789612262 5.944724419039214 0 0 0
229 0 1 -1.1794 12.320745006561026 9.527770931753077 5.578813773005951 0 0 0
231 0 2 0.5897 13.082582977797625 9.99542289495184 6.031190634273677 0 0 0
806 0 2 0.5897 10.024980656290722 13.628340495604343 4.784661500220867 0 0 0
807 0 2 0.5897 9.745255542735945 12.432190163452626 5.807633105811615 0 0 0
805 0 1 -1.1794 9.730848890795357 13.450074622566456 5.658273411559292 0 0 0
741 0 2 0.5897 10.166707514843583 10.935058101057015 7.610113762537078 0 0 0
739 0 1 -1.1794 10.089993800246852 10.942659016770323 6.618121275363661 0 0 0
740 0 2 0.5897 10.838254775585247 10.436917927239877 6.32361179617992 0 0 0
726 0 2 0.5897 13.232263357900457 14.066836091619974 5.8756955550251595 0 0 0
642 0 2 0.5897 11.14456592350604 14.145299635348271 6.544356616931766 0 0 0
857 0 2 0.5897 14.10925128335254 11.165425842821458 8.551009378564293 0 0 0
524 0 2 0.5897 17.594046787519087 9.702217995473193 6.10176507927421 0 0 0
634 0 1 -1.1794 14.379567455257071 11.197064555580315 6.612539112367153 0 0 0
635 0 2 0.5897 15.161943294896272 10.767549658154376 6.235142620710523 0 0 0
636 0 2 0.5897 14.264180397375974 12.074497143658 6.1647941392861005 0 0 0
724 0 1 -1.1794 14.036326436895452 13.654906023224639 5.568668637741002 0 0 0
657 0 2 0.5897 17.783926992258607 14.029288894470893 6.384670614099822 0 0 0
18 0 2 0.5897 3.817442706339964 14.162037571114913 6.433209865052134 0 0 0
17 0 2 0.5897 2.938126761158607 14.690500545310822 7.611627031597458 0 0 0
16 0 1 -1.1794 2.9164870516470973 14.434822058414385 6.659585964156096 0 0 0
238 0 1 -1.1794 3.059062760011832 17.224178829611155 5.869979075889153 0 0 0
239 0 2 0.5897 3.0200319495322523 16.25969484232093 6.166975571611385 0 0 0
240 0 2 0.5897 3.8769769970733265 17.6187641963053 6.2704979970988814 0 0 0
341 0 2 0.5897 1.7990177034849035 18.093408064477348 6.203670529714652 0 0 0
340 0 1 -1.1794 0.9819618837480679 18.590020954550763 6.412661623212798 0 0 0
342 0 2 0.5897 0.9279343349662393 18.661508071359517 7.395418633459422 0 0 0
308 0 2 0.5897 7.932613680827506 17.634257968459195 5.425522384642651 0 0 0
519 0 2 0.5897 8.40177932380703 14.198926669643926 6.439079262176569 0 0 0
517 0 1 -1.1794 7.667934258894344 14.741238404296087 6.830381012793535 0 0 0
307 0 1 -1.1794 7.895175075388928 17.376982730749948 6.3921593717921095 0 0 0
518 0 2 0.5897 7.761073804520199 15.666880593551069 6.517283521103708 0 0 0
309 0 2 0.5897 8.629065459199376 17.850546327123453 6.799200478564484 0 0 0
378 0 2 0.5897 7.2463623951116585 14.629223062372098 8.588229214167214 0 0 0
386 0 2 0.5897 6.329112560004371 17.901685981442597 6.8282921652309 0 0 0
102 0 2 0.5897 5.66070717362139 18.365591246963252 8.657812974112893 0 0 0
385 0 1 -1.1794 5.465697721521845 18.306691966200606 7.015653041313329 0 0 0
645 0 2 0.5897 12.034139610230964 16.997796610143848 4.696814136214621 0 0 0
640 0 1 -1.1794 11.84151050865523 14.686380482270845 6.937364677965128 0 0 0
641 0 2 0.5897 11.655349630337339 14.655979299256868 7.904767335645999 0 0 0
643 0 1 -1.1794 12.204502210438548 17.107879136234118 5.616151275007344 0 0 0
644 0 2 0.5897 11.943426414085613 16.247455048415688 5.990222620869244 0 0 0
303 0 2 0.5897 11.03119405803632 18.246538502085414 6.28109599394296 0 0 0
734 0 2 0.5897 10.508340016032546 18.5993637026223 8.749398222356845 0 0 0
301 0 1 -1.1794 10.433013649943272 18.841721088892168 6.783191699876223 0 0 0
725 0 2 0.5897 14.757489152570072 14.1659953284775 5.961338212522975 0 0 0
348 0 2 0.5897 13.74406332259376 18.026734646388558 6.629206920358827 0 0 0
564 0 2 0.5897 16.613023889072238 17.544125228093435 4.659384939796402 0 0 0
205 0 1 -1.1794 16.180623424705125 14.91575908022059 6.66460102693969 0 0 0
206 0 2 0.5897 16.23711691708583 15.786285378497125 6.341449120472998 0 0 0
207 0 2 0.5897 16.423823157662397 15.037496660670595 7.632468111725527 0 0 0
562 0 1 -1.1794 16.644146600366287 17.492508538679086 5.641517327184372 0 0 0
563 0 2 0.5897 17.47237848906635 17.84848842531995 5.87521558775387 0 0 0
347 0 2 0.5897 15.297767491318586 18.36570835395633 6.420914706883112 0 0 0
371 0 2 0.5897 14.717435030542319 18.84228743426894 8.615772978065884 0 0 0
346 0 1 -1.1794 14.510450902398025 18.65020618667403 6.891809446124043 0 0 0
413 0 2 0.5897 0.8427708377181393 21.452135065975973 4.803288379267324 0 0 0
700 0 1 -1.1794 3.1072066672859795 22.68941368067492 6.680457451402905 0 0 0
701 0 2 0.5897 3.074838695429607 22.78569205524234 7.66826703481502 0 0 0
702 0 2 0.5897 2.2963565646741575 22.238145821163638 6.432721628966487 0 0 0
414 0 2 0.5897 0.7565385009005456 20.55419834238372 6.010748342412011 0 0 0
248 0 2 0.5897 4.327284665591408 21.63034386431029 6.082957393488299 0 0 0
412 0 1 -1.1794 0.7198692985231128 21.442519958209637 5.745432570945885 0 0 0
249 0 2 0.5897 5.245810886882704 21.154274467921297 4.897318833578147 0 0 0
247 0 1 -1.1794 5.088502543570455 21.07240248955299 5.884408098445218 0 0 0
31 0 1 -1.1794 7.414039503371866 22.544664459851653 6.346767436573278 0 0 0
32 0 2 0.5897 8.18188314598497 22.063471889477217 6.053875826272115 0 0 0
33 0 2 0.5897 6.656372964073709 21.976963108817635 6.195119939190647 0 0 0
86 0 2 0.5897 7.269617149684695 22.88725959365236 8.15024543977135 0 0 0
387 0 2 0.5897 5.48743819686315 19.19906589526896 6.640608744821834 0 0 0
591 0 2 0.5897 9.852622256275723 21.220739714566825 4.622184015073515 0 0 0
169 0 1 -1.1794 12.148169412088698 22.6994600288494 6.6148452457723295 0 0 0
170 0 2 0.5897 13.03058945597789 22.32764012954187 6.503441070251664 0 0 0
302 0 2 0.5897 10.403000735667229 19.713507904467892 6.343224310941526 0 0 0
330 0 2 0.5897 12.03611212176137 22.389099036111638 8.317762442583742 0 0 0
589 0 1 -1.1794 9.864208292944966 21.348166550189166 5.576107990122422 0 0 0
590 0 2 0.5897 10.618468670064788 21.908930834979007 5.794201383173764 0 0 0
532 0 1 -1.1794 14.410534975955382 21.2921711577088 5.842317830642684 0 0 0
534 0 2 0.5897 14.499231321850914 20.41945951186906 6.208440503229961 0 0 0
352 0 1 -1.1794 16.561314661562587 22.645045065251214 6.764916884058908 0 0 0
353 0 2 0.5897 17.432566108565904 22.23652995993122 6.829655746866515 0 0 0
354 0 2 0.5897 16.462274535075302 23.00022802925204 7.697193231046931 0 0 0
533 0 2 0.5897 15.185526684709801 21.775879142322285 6.1851749033708465 0 0 0
36 0 2 0.5897 1.217418362086862 2.907181926833742 9.641377708398265 0 0 0
167 0 2 0.5897 2.9840586545570633 2.0963109672543148 11.931913770229317 0 0 0
673 0 1 -1.1794 2.8570008863529748 2.3306828126952213 10.119104296288402 0 0 0
675 0 2 0.5897 2.892716849453563 1.4031713476668677 9.961267156156312 0 0 0
674 0 2 0.5897 3.5688292902095275 2.8231527746575353 9.652413243190416 0 0 0
34 0 1 -1.1794 0.3491459830629702 3.3640815211897297 9.50075075164154 0 0 0
35 0 2 0.5897 0.3880013791416979 4.340882898896443 9.688388056366701 0 0 0
166 0 1 -1.1794 2.9917785433899704 1.9809624880848633 12.904245934765191 0 0 0
168 0 2 0.5897 2.1444254398915006 2.2094264037264795 13.2235443459603 0 0 0
274 0 1 -1.1794 5.151145194927289 3.387836524636247 9.01168384090123 0 0 0
276 0 2 0.5897 5.771504765517501 2.6954147808210736 9.343786857913088 0 0 0
355 0 1 -1.1794 7.28876356307582 1.8664260858490476 10.050324613434306 0 0 0
356 0 2 0.5897 7.427531472527392 0.8884603194777168 9.895694897693142 0 0 0
357 0 2 0.5897 7.354741472151241 1.9841503060210608 11.003400370955035 0 0 0
176 0 2 0.5897 8.74900505775187 2.716966243781388 9.586043734140585 0 0 0
592 0 1 -1.1794 7.610460739776258 1.84786356274786 12.966633649491909 0 0 0
594 0 2 0.5897 8.429003613046437 2.344819661070646 13.15135337362272 0 0 0
175 0 1 -1.1794 9.640702802501407 3.0776317778713165 9.36864027001694 0 0 0
514 0 1 -1.1794 11.699519268996228 1.5451934609648048 10.202184293224283 0 0 0
515 0 2 0.5897 11.77503629216653 1.5872493881102594 11.170370799801205 0 0 0
516 0 2 0.5897 11.006811445628117 2.1935821267239235 9.944522086380843 0 0 0
757 0 1 -1.1794 11.777537003758658 1.7191800974362212 13.042641854531531 0 0 0
849 0 2 0.5897 13.363663493956674 2.3790023311348345 9.645862793293313 0 0 0
847 0 1 -1.1794 14.172282210028937 2.883102618252538 9.441742945355777 0 0 0
652 0 1 -1.1794 16.429504698065678 2.0151945628738686 10.610058481604153 0 0 0
653 0 2 0.5897 16.66421414540746 2.1403157865194884 11.508282469808142 0 0 0
654 0 2 0.5897 17.175183950188963 2.511924480253661 10.200340611328185 0 0 0
848 0 2 0.5897 15.017593040361607 2.5822402459521165 9.862395724141864 0 0 0
439 0 1 -1.1794 16.463241630983422 1.9413134089557142 13.303435349569012 0 0 0
545 0 2 0.5897 14.196284729580448 4.575489200669675 9.863912900381523 0 0 0
131 0 2 0.5897 16.419893291805455 0.4155859150601011 9.769405739114081 0 0 0
649 0 1 -1.1794 2.983617852595173 6.589619171904039 9.479533826065634 0 0 0
112 0 1 -1.1794 0.45225933773801613 5.8383996052847165 10.399308714572454 0 0 0
113 0 2 0.5897 0.6076818665180893 5.730170259455858 11.318737198291316 0 0 0
114 0 2 0.5897 1.2072140182707307 6.1566047935501595 9.882009973574398 0 0 0
257 0 2 0.5897 2.7413437160751526 8.655846995104842 9.918439718065247 0 0 0
651 0 2 0.5897 3.8080516126947224 6.363185910870213 9.984252656905134 0 0 0
364 0 1 -1.1794 0.7218592839655109 5.6608333352622875 12.995627857922818 0 0 0
678 0 2 0.5897 5.220610672165597 5.000359974573674 10.012724528851264 0 0 0
761 0 2 0.5897 4.850732381317572 5.386579955775105 12.551852974870664 0 0 0
526 0 1 -1.1794 7.286637776233718 7.280004536751355 9.739422328240227 0 0 0
527 0 2 0.5897 7.33811525569025 8.233191127824147 9.598626926980135 0 0 0
528 0 2 0.5897 8.132628891276942 6.9494353537273446 10.034611205412272 0 0 0
676 0 1 -1.1794 5.194727680505603 5.779257532285051 10.577465330694832 0 0 0
677 0 2 0.5897 5.865673221380688 6.32524727040376 10.131218899006127 0 0 0
705 0 2 0.5897 9.576282208712293 4.8879458055956535 9.765686105008914 0 0 0
703 0 1 -1.1794 9.838217882552918 5.787070210246946 10.09266976765566 0 0 0
704 0 2 0.5897 9.847517676969344 5.701175535608068 11.074065513194139 0 0 0
313 0 1 -1.1794 12.04985756580008 7.258721577507715 9.231765730673544 0 0 0
314 0 2 0.5897 11.25907400189911 6.825978262375128 9.56515579108046 0 0 0
315 0 2 0.5897 12.730822285713087 6.6310033640711605 9.563648446947008 0 0 0
444 0 2 0.5897 12.30355317638439 8.860092217511976 9.943930662475447 0 0 0
850 0 1 -1.1794 9.716133418491916 5.947586401111142 12.975300044968684 0 0 0
816 0 2 0.5897 14.05464626817124 5.8687446440774345 11.921233568361384 0 0 0
544 0 1 -1.1794 14.209815381113252 5.548701405073627 10.101434419515803 0 0 0
546 0 2 0.5897 14.839592360664366 5.933914312805658 9.518229782295801 0 0 0
622 0 1 -1.1794 16.307293425009455 7.342514254042192 9.411228554772453 0 0 0
623 0 2 0.5897 16.964459430184263 6.773447807459158 9.867359970256615 0 0 0
624 0 2 0.5897 16.29179643918865 8.299966926495749 9.730529270371123 0 0 0
814 0 1 -1.1794 13.97341055951571 5.715845932826078 12.838910290374987 0 0 0
796 0 1 -1.1794 2.6761964380628775 9.63551000534418 12.824746607198636 0 0 0
256 0 1 -1.1794 2.5653968478218507 9.54082383637829 10.18924468511922 0 0 0
797 0 2 0.5897 2.614306470376384 9.81944550351387 11.901432354043834 0 0 0
258 0 2 0.5897 3.3446183554560838 10.091941290469949 9.926578951508366 0 0 0
13 0 1 -1.1794 0.33611955567733637 11.111611791185176 9.685364661810047 0 0 0
14 0 2 0.5897 0.3679795469964984 12.049386301094653 9.895044971567888 0 0 0
15 0 2 0.5897 1.1505038987547085 10.655144584607678 9.94499052901212 0 0 0
767 0 2 0.5897 0.43272840579081023 13.729828557162707 11.197251905866334 0 0 0
766 0 1 -1.1794 0.4885068557004579 13.795786183834053 10.221960004412933 0 0 0
798 0 2 0.5897 1.8420628862876167 9.976449526274324 13.2137831359299 0 0 0
637 0 1 -1.1794 0.42749192180726536 13.229912652663776 13.21588996194587 0 0 0
475 0 1 -1.1794 7.365756625440955 9.677214807509037 13.15678376424579 0 0 0
821 0 2 0.5897 7.243653706635159 9.762474330894626 11.218603765268442 0 0 0
820 0 1 -1.1794 7.332446654898889 9.962400890502849 10.283362717645762 0 0 0
580 0 1 -1.1794 4.789648020845187 10.893487499669236 9.269624135656976 0 0 0
456 0 2 0.5897 4.983158533118577 12.630384249733414 9.969937923057332 0 0 0
454 0 1 -1.1794 5.013941126540878 13.546258522754986 10.417703560706233 0 0 0
455 0 2 0.5897 5.0493727653728016 13.47746096204953 11.401113142698934 0 0 0
581 0 2 0.5897 5.653876547690384 10.542344806294292 9.564298648068254 0 0 0