LAMMPS (29 Sep 2021 - Update 2)
  using 1 OpenMP thread(s) per MPI task
plugin load libdeepmd_lmp.so
Loading plugin: deepmd pair style v2.0 by Han Wang
Loading plugin: compute deeptensor/atom v2.0 by Han Wang
Loading plugin: fix dplr v2.0 by Han Wang
echo both

include		in.partitions
variable        pid world 0
include		in.temp
variable        temperature equal 260
variable        tempDamp equal 0.100
include		in.pressure
variable        pressure equal 986.923
variable        pressureDamp equal 1.0 # This is 1 ps
include		in.seed
variable        seed world 745823

units           metal
atom_style	full
include		in.box
read_data       water.data
Reading data file ...
  orthogonal box = (0.0000000 0.0000000 0.0000000) to (18.207573 23.629177 22.213196)
  1 by 1 by 1 MPI processor grid
  reading atoms ...
  864 atoms
  reading velocities ...
  864 velocities
Finding 1-2 1-3 1-4 neighbors ...
  special bond factors lj:    0        0        0       
  special bond factors coul:  0        0        0       
     0 = max # of 1-2 neighbors
     0 = max # of 1-3 neighbors
     0 = max # of 1-4 neighbors
     1 = max # of special neighbors
  special bonds CPU = 0.000 seconds
  read_data CPU = 0.050 seconds
include 	in.setup
variable	out_freq equal 500
variable	out_freq2 equal 500

timestep        0.0005

neigh_modify    delay 7 every 1

include         in.deepmd
# This is deepMD model

# create groups ###
#group ox type 2
#group hy type 1

mass 2 15.999
mass 1 1.008

pair_style      deepmd ../graph.pb
pair_coeff      * *

bond_style      none
angle_style     none
dihedral_style  none
improper_style  none
neigh_modify exclude none


neighbor        2.0 bin
neigh_modify    every 10 delay 0 check no

thermo          ${out_freq}
thermo          500
thermo_style 	custom step temp pe etotal epair emol press lx ly lz xy xz yz vol pxx pyy pzz pxy pxz pyz cella cellb cellc cellalpha cellbeta cellgamma


restart 	${out_freq} restart.lmp.${pid} restart2.lmp.${pid}
restart 	500 restart.lmp.${pid} restart2.lmp.${pid}
restart 	500 restart.lmp.0 restart2.lmp.${pid}
restart 	500 restart.lmp.0 restart2.lmp.0


include         in.dump
dump            myDump all atom ${out_freq2} dump.water.${pid}
dump            myDump all atom 500 dump.water.${pid}
dump            myDump all atom 500 dump.water.0
dump            myDump2 all dcd ${out_freq2} dump.dcd
dump            myDump2 all dcd 500 dump.dcd
dump_modify     myDump append yes
dump_modify     myDump2 append yes


timer           timeout 23:50:00 every 1000
New timer settings: style=normal  mode=nosync  timeout=23:50:00

fix             2 all nph aniso ${pressure} ${pressure} ${pressureDamp}
fix             2 all nph aniso 986.923 ${pressure} ${pressureDamp}
fix             2 all nph aniso 986.923 986.923 ${pressureDamp}
fix             2 all nph aniso 986.923 986.923 1
fix             3 all temp/csvr ${temperature} ${temperature} ${tempDamp} ${seed}
fix             3 all temp/csvr 260 ${temperature} ${tempDamp} ${seed}
fix             3 all temp/csvr 260 260 ${tempDamp} ${seed}
fix             3 all temp/csvr 260 260 0.1 ${seed}
fix             3 all temp/csvr 260 260 0.1 745823
velocity 	all create ${temperature} ${seed} dist gaussian
velocity 	all create 260 ${seed} dist gaussian
velocity 	all create 260 745823 dist gaussian

run             400000

CITE-CITE-CITE-CITE-CITE-CITE-CITE-CITE-CITE-CITE-CITE-CITE-CITE

Your simulation uses code contributions which should be cited:

- USER-DEEPMD package:

@article{Wang_ComputPhysCommun_2018_v228_p178,
  author = {Wang, Han and Zhang, Linfeng and Han, Jiequn and E, Weinan},
  doi = {10.1016/j.cpc.2018.03.016},
  url = {https://doi.org/10.1016/j.cpc.2018.03.016},
  year = 2018,
  month = {jul},
  publisher = {Elsevier {BV}},
  volume = 228,
  journal = {Comput. Phys. Commun.},
  title = {{DeePMD-kit: A deep learning package for many-body potential energy representation and molecular dynamics}},
  pages = {178--184}
}

CITE-CITE-CITE-CITE-CITE-CITE-CITE-CITE-CITE-CITE-CITE-CITE-CITE

Neighbor list info ...
  update every 10 steps, delay 0 steps, check no
  max neighbors/atom: 2000, page size: 100000
  master list distance cutoff = 8
  ghost atom cutoff = 8
  binsize = 4, bins = 5 6 6
  1 neighbor lists, perpetual/occasional/extra = 1 0 0
  (1) pair deepmd, perpetual
      attributes: full, newton on
      pair build: full/bin
      stencil: full/bin/3d
      bin: standard
Per MPI rank memory allocation (min/avg/max) = 7.189 | 7.189 | 7.189 Mbytes
Step Temp PotEng TotEng E_pair E_mol Press Lx Ly Lz Xy Xz Yz Volume Pxx Pyy Pzz Pxy Pxz Pyz Cella Cellb Cellc CellAlpha CellBeta CellGamma 
       0          260   -169.12462   -140.12123   -169.12462            0   -24374.872    18.207573    23.629177    22.213196            0            0            0    9556.7825   -24725.589   -23827.692   -24571.334    -2.235479    312.46159   -222.91034    18.207573    23.629177    22.213196           90           90           90 
     500    246.00828   -149.82383   -122.38123   -149.82383            0   -226.41871    17.908891    23.197896    21.815458            0            0            0    9063.2015   -3599.5607    1432.5868    1487.7178   -923.30289   -140.49489   -400.16892    17.908891    23.197896    21.815458           90           90           90 
    1000    242.34199   -144.37807   -117.34446   -144.37807            0    -493.2126    17.756536    23.035502    21.774696            0            0            0    8906.5195   -323.16233   -2024.6556    868.18014     411.7083    552.16065    197.79514    17.756536    23.035502    21.774696           90           90           90 
    1500    260.77886   -147.74233   -118.65206   -147.74233            0    2233.7405    17.982444    23.338714    22.141509            0            0            0    9292.5064    4473.3195    1110.9669     1116.935   -953.52567    631.96107    107.92744    17.982444    23.338714    22.141509           90           90           90 
    2000    264.72859   -145.49402   -115.96314   -145.49402            0   -317.69824    18.011384    23.321621    22.069149            0            0            0     9270.249    600.96727    1439.4604   -2993.5224   -3238.7275    593.03671   -969.72272    18.011384    23.321621    22.069149           90           90           90 
    2500    263.92568    -145.1166   -115.67529    -145.1166            0    1144.4852    18.018191      23.3248    21.927707            0            0            0    9215.5731   -117.89186    5259.4655   -1708.1179    550.65321    173.15395   -209.69729    18.018191      23.3248    21.927707           90           90           90 
    3000    258.44865   -143.45688   -114.62655   -143.45688            0    1939.7772    17.843122    23.268813    21.952433            0            0            0    9114.3929     3570.124   -1820.4234    4069.6311   -940.36988    -1377.109   -3009.5335    17.843122    23.268813    21.952433           90           90           90 
    3500    268.28837     -146.492   -116.56403     -146.492            0    2297.8857    17.875886    23.391351    22.153516            0            0            0     9263.296    4919.6878     757.4567    1216.5126    856.80874    1139.6983    1151.4586    17.875886    23.391351    22.153516           90           90           90 
    4000    257.17567   -146.15089   -117.46256   -146.15089            0   -1201.4185    18.083609     23.49707    22.272159            0            0            0    9463.7036   -1289.8337    -1576.056    -738.3659    -735.7347   -1994.6913   -1159.5347    18.083609     23.49707    22.272159           90           90           90 
    4500    245.71291   -144.53128   -117.12164   -144.53128            0    4021.9046    17.937655    23.135711    21.815139            0            0            0    9053.2914    4462.8965    5480.1244    2122.6931    87.332461    2058.9531   -626.08116    17.937655    23.135711    21.815139           90           90           90 
    5000     266.4173   -145.81809   -116.09884   -145.81809            0    4069.9169    18.011335    23.246959    21.983987            0            0            0    9204.8881    3901.6032    3505.8355    4802.3119     1104.711    -1473.473    -591.8621    18.011335    23.246959    21.983987           90           90           90 
    5500     247.6499   -145.32963   -117.70391   -145.32963            0    143.49255    18.072592    23.348103    22.193027            0            0            0    9364.5861   -615.33407     3144.237   -2098.4253   -909.19932    -283.8572    1251.2664    18.072592    23.348103    22.193027           90           90           90 
    6000     259.9894   -145.89588   -116.89367   -145.89588            0     1483.814    17.993672    23.236138    22.062611            0            0            0    9224.4536     1904.756    1005.2526    1541.4333    1467.0306   -130.34327   -1261.9445    17.993672    23.236138    22.062611           90           90           90 
    6500    259.06383   -146.54411   -117.64515   -146.54411            0    1589.7629    18.007385    23.301063    22.020234            0            0            0    9239.4967    833.91899    4905.8235   -970.45388   -2961.0115   -1393.5954    625.94387    18.007385    23.301063    22.020234           90           90           90 
    7000    266.56513   -144.84838   -115.11264   -144.84838            0    1912.3404    17.909515    23.362988    22.035255            0            0            0    9219.9866    1833.5455    3314.3019    589.17383    1668.5988    1669.9557   -1777.0603    17.909515    23.362988    22.035255           90           90           90 
    7500    261.11637   -144.55199   -115.42406   -144.55199            0   -1291.4478    18.022518    23.552456    22.204636            0            0            0    9425.3036   -378.65058   -4736.9577    1241.2648    370.60071    -831.8823   -887.37342    18.022518    23.552456    22.204636           90           90           90 
    8000    259.86048   -145.59189   -116.60407   -145.59189            0    1251.2038    17.981381    23.265969      22.0254            0            0            0    9214.4194    2649.3464   -1052.8948    2157.1598      2064.63    -569.3521    120.42657    17.981381    23.265969      22.0254           90           90           90 
    8500    253.85811   -145.17685    -116.8586   -145.17685            0    867.80831    18.020105    23.141046    21.973506            0            0            0    9163.0419   -1252.7502    1044.6054    2811.5697   -2890.9685   -1468.2303    133.87771    18.020105    23.141046    21.973506           90           90           90 
    9000    268.10436   -144.68483   -114.77739   -144.68483            0    1405.0948    18.085042    23.279241    22.104352            0            0            0     9306.066    920.17831    2328.0453    967.06061    -540.9822   -1465.8172   -948.73328    18.085042    23.279241    22.104352           90           90           90 
    9500    271.69442   -145.59224   -115.28432   -145.59224            0     2043.438    18.078746    23.413946    22.085931            0            0            0    9348.8591   -1030.3061    5358.4966    1802.1237   -692.52737    1115.1836    195.88992    18.078746    23.413946    22.085931           90           90           90 
   10000    264.83152   -144.45643   -114.91408   -144.45643            0    2743.3363    17.845176    23.378208    21.912803            0            0            0    9141.7634    1633.7383     1128.523    5467.7476   -882.23286   -1748.2289   -767.31535    17.845176    23.378208    21.912803           90           90           90 
   10500    273.09305   -143.08667   -112.62273   -143.08667            0    1157.4656     17.88143    23.594669    22.145389            0            0            0    9343.2819    6439.5865   -2472.7909   -494.39883   -316.58417    277.40824    771.09687     17.88143    23.594669    22.145389           90           90           90 
   11000     273.9054   -145.43108   -114.87652   -145.43108            0   -513.16664    17.951561    23.393829     22.18481            0            0            0    9316.6388    1928.8548   -893.24875    -2575.106   -2923.6725    -830.3006    735.19188    17.951561    23.393829     22.18481           90           90           90 
   11500    270.92259   -146.36538   -116.14356   -146.36538            0    5729.2122    18.112614    23.015859      22.0469            0            0            0    9190.8538    7847.4625    3780.4745    5559.6995    266.47682     9.615574   -986.19458    18.112614    23.015859      22.0469           90           90           90 
   12000    258.72399   -144.09015    -115.2291   -144.09015            0   -1744.2267    18.242276     23.07194    22.045792            0            0            0    9278.7368   -3636.8747   -938.97299   -656.83252   -117.46587     559.2639   -99.418368    18.242276     23.07194    22.045792           90           90           90 
   12500    265.11401   -144.15939   -114.58552   -144.15939            0    2790.0199     18.04329    23.336874    21.973261            0            0            0    9252.3684    2692.4058    5470.0928    207.56112   -1954.9373   -1184.8628   -1513.9151     18.04329    23.336874    21.973261           90           90           90 
   13000    272.47019   -144.35334   -113.95888   -144.35334            0     3008.974    17.770563    23.597273    22.036937            0            0            0    9240.8993    3126.8005    741.35882    5158.7625   -2482.6702   -789.87785    1093.7418    17.770563    23.597273    22.036937           90           90           90 
   13500    251.69271   -145.16103   -117.08433   -145.16103            0    659.19897    17.783681    23.518259    22.148257            0            0            0    9263.3139    612.15679    3675.4696   -2310.0295    2108.0741   -1095.7722   -1650.6527    17.783681    23.518259    22.148257           90           90           90 
   14000    247.21524   -144.76846   -117.19123   -144.76846            0    1192.9182    18.064479    23.279764    22.149618            0            0            0    9314.7297    2687.7915   -157.33743    1048.3005   -1295.7077    291.94461   -1863.8257    18.064479    23.279764    22.149618           90           90           90 
   14500    247.94946   -144.93531   -117.27618   -144.93531            0     2572.736    18.196404    23.111243    21.923933            0            0            0    9219.9238    2324.9481    4522.7797    870.48022    2388.9179    1412.3996   -463.56953    18.196404    23.111243    21.923933           90           90           90 
   15000    267.44707   -146.07024   -116.23612   -146.07024            0    553.27158    18.150295    23.198258    21.992276            0            0            0    9259.9631    4195.1871   -318.98251   -2216.3898    298.95142    520.93155    747.00061    18.150295    23.198258    21.992276           90           90           90 
   15500    252.96184   -144.48375   -116.26548   -144.48375            0   -1519.2893    17.945913    23.413361     22.17942            0            0            0    9319.2189   -1339.3439   -3265.2566    46.732617    205.66981   -565.41589   -649.27255    17.945913    23.413361     22.17942           90           90           90 
   16000    255.98993   -144.91517   -116.35911   -144.91517            0    2962.7482     17.78326     23.41897    22.100418            0            0            0    9204.0645    3149.3093    2939.3613     2799.574   -674.19141    411.90281   -181.62832     17.78326     23.41897    22.100418           90           90           90 
   16500    261.99743   -145.11693   -115.89072   -145.11693            0    1806.0849    17.949801    23.458885    22.047964            0            0            0    9284.0074    887.84915    3240.6909    1289.7145   -105.97768     251.2217    505.03422    17.949801    23.458885    22.047964           90           90           90 
   17000    259.73467   -145.12065   -116.14686   -145.12065            0    1399.4566    18.058617    23.354529    22.015133            0            0            0    9284.8928    2148.1414    1766.2641    283.96431    779.40868   -2027.5064   -764.34832    18.058617    23.354529    22.015133           90           90           90 
   17500    263.60535   -145.50575   -116.10018   -145.50575            0   -405.31956    18.112922    23.234272    22.088708            0            0            0    9295.8245    1696.8234    -578.9364   -2333.8457     615.2145    502.90705    454.10999    18.112922    23.234272    22.088708           90           90           90 
   18000    257.86828   -146.34832   -117.58272   -146.34832            0    2087.8415    18.014698    23.236558    22.133918            0            0            0    9265.2483    1472.9502    3405.6092    1384.9651    812.92845   -1038.7023     851.5199    18.014698    23.236558    22.133918           90           90           90 
   18500    250.12825   -144.45933   -116.55715   -144.45933            0   -37.199561    17.946278    23.427123    22.068213            0            0            0    9278.1313   -260.15777   -213.05779    361.61688   -628.93294    289.41402    463.66653    17.946278    23.427123    22.068213           90           90           90 
   19000     261.8026     -146.311   -117.10653     -146.311            0    875.84435    17.920286    23.547084    21.990176            0            0            0     9279.205    1603.6159    1649.8818   -625.96463    181.71048    287.25762    346.23499    17.920286    23.547084    21.990176           90           90           90 
   19500    265.25195   -145.61411   -116.02486   -145.61411            0    1744.9803    17.990051    23.472003    22.073833            0            0            0    9320.9521    1590.7441     4000.935   -356.73821   -2822.9261    1818.1465    508.86353    17.990051    23.472003    22.073833           90           90           90 
   20000    247.76019   -145.12506   -117.48704   -145.12506            0    -2013.849     18.01209    23.108335    22.176233            0            0            0    9230.4002   -343.78112   -1550.3797   -4147.3863   -84.027367   -2876.3625   -162.66456     18.01209    23.108335    22.176233           90           90           90 
   20500    260.58504   -146.38116   -117.31251   -146.38116            0    3437.3656    18.088517     22.96664    22.230143            0            0            0    9235.1229    4857.4925    5643.5936   -188.98951    248.48721    2069.0137    1403.5287    18.088517     22.96664    22.230143           90           90           90 
   21000    248.86637   -145.61087   -117.84945   -145.61087            0    1205.6094    18.202074    23.419829    22.071771            0            0            0    9408.9632     991.6704   -1577.2648    4202.4228    892.06617   -1420.1216   -322.18703    18.202074    23.419829    22.071771           90           90           90 
   21500    242.55885   -145.86198   -118.80418   -145.86198            0    208.16801    17.946627    23.648655    21.767108            0            0            0    9238.2565    2789.2624   -1263.5635   -901.19496    566.20494   -374.68452    631.60205    17.946627    23.648655    21.767108           90           90           90 
   22000     263.0241   -146.17118   -116.83045   -146.17118            0    3990.4158    17.793453    23.556937    22.002995            0            0            0     9222.759    3706.3161    4689.2896    3575.6417   -1799.6303   -345.88427   -808.26959    17.793453    23.556937    22.002995           90           90           90 
   22500    257.66486   -145.92824   -117.18534   -145.92824            0   -1459.7808    17.865003    23.317594    22.350524            0            0            0     9310.533   -2552.9829     1711.467   -3537.8266    185.61131     738.6085    1239.3222    17.865003    23.317594    22.350524           90           90           90 
   23000    252.86551   -145.86909   -117.66156   -145.86909            0    513.60545    18.028586    23.225609    22.209392            0            0            0    9299.6255    2273.3874   -2299.0619    1566.4908   -235.30062    185.93492    204.71568    18.028586    23.225609    22.209392           90           90           90 
   23500    269.26019   -146.04211   -116.00573   -146.04211            0    1775.8119    18.163809     23.24843    21.976006            0            0            0    9280.0288   -1927.4829    856.79918    6398.1195   -1046.3969    428.46835    967.78492    18.163809     23.24843    21.976006           90           90           90 
   24000    271.27664   -144.54491   -114.28359   -144.54491            0    2850.1624    18.085751    23.251104    21.937192            0            0            0    9224.8891    3683.7039    4097.4052    769.37814    214.25349    2689.8041    976.69997    18.085751    23.251104    21.937192           90           90           90 
   24500    260.87155   -145.30215   -116.20154   -145.30215            0    1041.9786    18.041048    23.477352    22.195011            0            0            0    9400.8309    1464.9897   -2470.9349    4131.8811   -494.17952     263.4692     686.8784    18.041048    23.477352    22.195011           90           90           90 
   25000    276.57331   -145.73936    -114.8872   -145.73936            0    1321.4483    17.872795    23.378232    22.168408            0            0            0    9262.7224    2805.3871    841.89346    317.06422    912.97412    1352.9922    1065.0105    17.872795    23.378232    22.168408           90           90           90 
   25500    263.69505   -143.81441   -114.39883   -143.81441            0     3094.367     17.96715    23.384954     22.11016            0            0            0    9289.8268    5534.8431    2903.5657    844.69211    1744.3386    974.08497   -4.6185058     17.96715    23.384954     22.11016           90           90           90 
   26000    278.88959   -145.59016   -114.47961   -145.59016            0   -982.52543    18.064471     23.35617    22.013416            0            0            0    9287.8315    1391.9651   -2522.5588   -1816.9826    302.91798   -1993.1199   -139.45797    18.064471     23.35617    22.013416           90           90           90 
   26500    268.46561   -146.23911   -116.29137   -146.23911            0    512.78017    18.099666     23.34132    21.989101            0            0            0    9289.7376    1800.1332   -786.78507    524.99239   -3465.1212    202.06666     937.8456    18.099666     23.34132    21.989101           90           90           90 
   27000     274.8648   -145.63618    -114.9746   -145.63618            0     2648.215    18.083347    23.362088    22.158348            0            0            0    9361.1209    1640.3059    5719.4915    584.84768   -1005.5816    941.69103   -666.61325    18.083347    23.362088    22.158348           90           90           90 
   27500    256.53121   -143.90235    -115.2859   -143.90235            0   -300.18882    17.917729    23.202708    22.119246            0            0            0    9195.8515    1409.0367   -3258.5118    948.90863    864.47454    201.95759    1524.6151    17.917729    23.202708    22.119246           90           90           90 
   28000    253.04877   -145.30283   -117.07486   -145.30283            0     2540.385    17.960769    23.325334    22.120306            0            0            0    9267.1015   -1701.4729    3359.1933    5963.4347    399.34225   -1787.5448   -1288.1462    17.960769    23.325334    22.120306           90           90           90 
   28500    264.50287   -144.60951   -115.10382   -144.60951            0    764.44739    18.085828    23.529167    22.131731            0            0            0    9418.0357     81.20052    3039.7597   -827.61807    1249.4964    1017.4212   -899.85636    18.085828    23.529167    22.131731           90           90           90 
   29000    251.61546   -144.62918    -116.5611   -144.62918            0   -260.64797     17.98528    23.344197    21.977649            0            0            0    9227.3581    618.83298   -2488.7307    1087.9538    63.301239   -1556.7438   -1132.6636     17.98528    23.344197    21.977649           90           90           90 
   29500     263.5569   -143.94343   -114.54326   -143.94343            0   -182.61213    18.015862    23.257385    22.118001            0            0            0     9267.483   -323.85994   -1001.5643    777.58786   -550.82976    382.67978   -2822.5974    18.015862    23.257385    22.118001           90           90           90 
   30000    263.48749   -142.18858   -112.79616   -142.18858            0   -1043.8175    18.109961    23.334998    22.221756            0            0            0    9390.8232   -1867.4687   -1033.4059    -230.5778     290.3373   -793.32765   -1821.2739    18.109961    23.334998    22.221756           90           90           90 
   30500    271.82338   -144.83484   -114.51253   -144.83484            0    1284.5004    18.057408    23.332939    22.041262            0            0            0    9286.6979    824.71943    1530.0656    1498.7162   -652.81632   -1257.8839    629.97169    18.057408    23.332939    22.041262           90           90           90 
   31000    266.32692   -144.49189   -114.78272   -144.49189            0    2712.9126    17.960435    23.408748    21.975384            0            0            0    9239.1393    3487.4225    2770.0544    1881.2609    416.41074     1000.303   -1144.0204    17.960435    23.408748    21.975384           90           90           90 
   31500     268.4655   -145.29641   -115.34867   -145.29641            0    720.23866    17.879503    23.473731    22.157704            0            0            0    9299.5582   -915.54607    1963.3866    1112.8755   -374.81781    624.13863    1544.3851    17.879503    23.473731    22.157704           90           90           90 
   32000    275.08044   -146.50822   -115.82258   -146.50822            0    4131.4483    17.870406    23.435204    22.289758            0            0            0    9334.8749     4986.899    2594.6339    4812.8121    301.14854   -53.025666    2424.1244    17.870406    23.435204    22.289758           90           90           90 
   32500     258.2721   -144.43956   -115.62892   -144.43956            0    1367.4132    18.024303    23.256965    22.096653            0            0            0    9262.7089    1703.9216    2453.6244   -55.306349   -335.89988   -1389.2837   -211.53124    18.024303    23.256965    22.096653           90           90           90 
   33000    254.45544   -144.12077   -115.73588   -144.12077            0    398.99845    18.288212     23.24668    21.898325            0            0            0    9309.8586   -815.76109   -1357.8724    3370.6288   -3962.0185    298.77605    1080.4076    18.288212     23.24668    21.898325           90           90           90 
   33500    264.32709   -145.07075   -115.58467   -145.07075            0    1852.4862    18.140683    23.231702    21.944755            0            0            0    9248.3741    2426.1652     1217.235    1914.0584    -2005.887   -703.13318   -2550.8893    18.140683    23.231702    21.944755           90           90           90 
   34000     251.7386   -146.17199   -118.09017   -146.17199            0    1243.6239    17.877705    23.396402    22.274449            0            0            0    9316.8221    3571.1554    88.933445    70.782977   -133.94579    167.25394    1007.5544    17.877705    23.396402    22.274449           90           90           90 
   34500    239.11716   -145.16233   -118.48845   -145.16233            0   -50.151088    17.803722    23.509315    22.301896            0            0            0    9334.5321     1376.793    118.37632   -1645.6226   -597.55076    -1394.517   -1903.8282    17.803722    23.509315    22.301896           90           90           90 
   35000    260.84403   -147.77725    -118.6797   -147.77725            0    5342.4875    17.934843    23.378145    21.939058            0            0            0    9198.6817    6872.0234    4206.5414    4948.8976   -451.27731   -1134.9045    1541.2489    17.934843    23.378145    21.939058           90           90           90 
   35500    247.80448   -145.09882   -117.45586   -145.09882            0    222.53488    18.202078    23.338961    22.010952            0            0            0    9350.6393   -1999.2271   -120.88199    2787.7137   -2227.2893   -1413.4275    105.97728    18.202078    23.338961    22.010952           90           90           90 
   36000    249.10658   -144.80359   -117.01538   -144.80359            0   -691.66566    18.089723    23.190463    22.074457            0            0            0    9260.4344    327.04763   -2030.6725   -371.37209   -850.50335    -506.0399     384.8674    18.089723    23.190463    22.074457           90           90           90 
   36500    265.57528   -146.11169   -116.48636   -146.11169            0    2781.8711    18.023981       23.304    22.158051            0            0            0    9307.0649    2216.5362    3993.1535    2135.9237   -313.65752    500.90968   -406.16525    18.023981       23.304    22.158051           90           90           90 
   37000    256.44228   -144.80857   -116.20205   -144.80857            0    1493.7923    17.985775    23.464577    22.156363            0            0            0     9350.619    987.92189     1990.395    1503.0601   -393.49248   -404.00657   -608.80083    17.985775    23.464577    22.156363           90           90           90 
   37500    267.61471   -146.49955   -116.64673   -146.49955            0   -1529.4188    17.930843    23.383081    22.014065            0            0            0    9230.0212   -367.82787   -2569.7295    -1650.699   -31.681495   -1476.4867     1119.962    17.930843    23.383081    22.014065           90           90           90 
   38000    263.16809   -144.70987   -115.35307   -144.70987            0    1092.5119    18.114708    23.446449    22.139706            0            0            0     9403.299    1070.8004    844.14173    1362.5937   -504.88106   -2134.8472    1129.3232    18.114708    23.446449    22.139706           90           90           90 
   38500    263.02612   -145.15128   -115.81032   -145.15128            0    1180.3218    18.052682    23.175123    22.090523            0            0            0    9242.0813    975.06704     2965.803   -399.90468    2948.9698   -312.26662   -774.62921    18.052682    23.175123    22.090523           90           90           90 
   39000    259.79696   -145.49969   -116.51895   -145.49969            0    1412.1097    18.048551    23.208236    22.105692            0            0            0    9259.5221    1205.9391    3252.8908   -222.50062    -319.9735   -341.42121    409.22063    18.048551    23.208236    22.105692           90           90           90 
   39500    269.30337   -145.85835   -115.81716   -145.85835            0    746.21995    18.057458    23.608135    22.126798            0            0            0    9432.7188    1226.7029    1853.3904    -841.4334    6.0451282    325.53241   -844.49722    18.057458    23.608135    22.126798           90           90           90 
   40000    248.94736   -144.08979   -116.31934   -144.08979            0    -324.4625    17.797218    23.603926    21.929943            0            0            0     9212.423    2877.2754   -5140.0711    1289.4083   -1425.1726   -24.043358   -1237.7397    17.797218    23.603926    21.929943           90           90           90 
   40500    249.30111   -145.20182    -117.3919   -145.20182            0   -396.79322    17.874046    23.483272    22.211473            0            0            0    9323.0677    1042.4335    22.353012   -2255.1661     2.953058    1460.3613   -1980.7406    17.874046    23.483272    22.211473           90           90           90 
   41000    264.63675   -145.50571   -115.98508   -145.50571            0   -8.7329308    18.103045    23.214297     22.33037            0            0            0    9384.3264   -181.93253    2152.1081   -1996.3743    956.99358   -612.64775   -40.245072    18.103045    23.214297     22.33037           90           90           90 
   41500      266.507   -145.70799   -115.97873   -145.70799            0    1222.8538    18.095876    22.986019     21.93864            0            0            0    9125.4248   -761.44794    4367.9148    62.094562   -1594.8933   -1691.9391    758.12552    18.095876    22.986019     21.93864           90           90           90 
   42000    266.58586   -145.69754   -115.95949   -145.69754            0    853.11644    18.221822    23.398729    22.058495            0            0            0    9405.0248   -503.25363     1807.715    1254.8879   -902.76571    1167.6442    512.53083    18.221822    23.398729    22.058495           90           90           90 
   42500    258.62687   -144.54443   -115.69421   -144.54443            0   -891.14871     18.00158    23.428819    22.119947            0            0            0     9329.215    251.41554    -13.48843   -2911.3733    582.90814   -1084.6996   -759.35073     18.00158    23.428819    22.119947           90           90           90 
   43000    261.64126   -144.27347   -115.08699   -144.27347            0    666.39418    17.826306    23.282063    22.109138            0            0            0    9176.0258    1938.8126    1585.3163   -1524.9463    453.98389    297.04752    510.10505    17.826306    23.282063    22.109138           90           90           90 
   43500    265.82196   -146.15562   -116.50278   -146.15562            0    1229.4972    18.013231    23.475228    22.271848            0            0            0    9417.9785    393.99006     2788.506    505.99542   -444.12319    453.78252    170.40026    18.013231    23.475228    22.271848           90           90           90 
   44000    262.97776   -145.81624   -116.48068   -145.81624            0    2602.1924    18.019965    23.301094    22.092118            0            0            0    9276.1465    2616.4241    1184.2635    4005.8897   -1738.1132    1583.7156    -1670.152    18.019965    23.301094    22.092118           90           90           90 
   44500    258.06204   -144.60384   -115.81663   -144.60384            0    386.80826    18.095573    23.275742    22.035322            0            0            0    9281.0107    64.225966     1529.798   -433.59917    151.43605   -49.041796   -635.94932    18.095573    23.275742    22.035322           90           90           90 
   45000    246.13539   -145.43169   -117.97492   -145.43169            0    1034.2076    18.062302    23.354143    22.141708            0            0            0    9340.0275    -1243.549    2457.8381    1888.3339   -867.20573    317.55554    2495.6491    18.062302    23.354143    22.141708           90           90           90 
   45500    253.06039   -146.30117    -118.0719   -146.30117            0    2823.2201    17.899025    23.379725    22.074296            0            0            0    9237.5253   -696.56986    3364.8282     5801.402    -456.7629     654.1232   -1212.0078    17.899025    23.379725    22.074296           90           90           90 
   46000    253.49101   -145.16357   -116.88626   -145.16357            0   -900.02399    17.967537    23.534819    22.090563            0            0            0    9341.2757    920.18196   -1372.2811   -2247.9728    795.50941   -1558.1028    758.74883    17.967537    23.534819    22.090563           90           90           90 
   46500    258.10347   -145.22228   -116.43045   -145.22228            0    1217.5253    18.000416    23.417275    22.046265            0            0            0    9292.9569   -889.85165    3177.5286     1364.899   -1438.1357   -954.65488    137.75436    18.000416    23.417275    22.046265           90           90           90 
   47000    258.24037   -145.30975   -116.50265   -145.30975            0    2427.3197    17.987662    23.158021    22.191116            0            0            0    9243.9016    4612.3341    4038.7966   -1369.1717   -452.08576   -440.61734    1437.4183    17.987662    23.158021    22.191116           90           90           90 
   47500    258.86089   -144.42128   -115.54496   -144.42128            0    718.10486    18.172161    23.197504     22.35236            0            0            0      9422.61    1986.7186    3414.9473   -3247.3513   -1924.1392    632.48554    -208.7086    18.172161    23.197504     22.35236           90           90           90 
   48000    263.18673   -144.41837   -115.05949   -144.41837            0    2656.8756    18.112872    23.333718    21.952531            0            0            0    9278.0318    3330.3229    1203.4674    3436.8367    1218.6203    139.09958    1000.3338    18.112872    23.333718    21.952531           90           90           90 
   48500    252.85826    -143.9292   -115.72248    -143.9292            0    2530.0723    17.975261    23.572513    21.801468            0            0            0    9237.7629    1119.2966    614.07378    5856.8465   -1663.5752   -188.66415   -285.15344    17.975261    23.572513    21.801468           90           90           90 
   49000    266.91425   -144.37047   -114.59578   -144.37047            0    957.02379    17.919802    23.587804    22.144878            0            0            0    9360.3913    990.65829   -743.73178    2624.1449    855.99653    570.98772   -410.08404    17.919802    23.587804    22.144878           90           90           90 
   49500    279.00348     -142.921   -111.79774     -142.921            0     1279.348     17.97174    23.273935    22.388674            0            0            0    9364.5807    3786.4402    498.06213   -446.45844    658.65783    244.59374   -1516.3728     17.97174    23.273935    22.388674           90           90           90 
   50000    272.71737   -144.64498   -114.22294   -144.64498            0    782.30663    18.056104    23.138685    22.189789            0            0            0    9270.7715   -1029.0078    3615.3616   -239.43399    278.81897   -620.83372    1021.9286    18.056104    23.138685    22.189789           90           90           90 
   50500    258.36984    -144.8775   -116.05595    -144.8775            0   -1423.4916    18.197758    23.323935    21.995545            0            0            0    9335.8622   -1994.1181    -524.9971   -1751.3595   -853.29255    -285.2464   -1827.2534    18.197758    23.323935    21.995545           90           90           90 
   51000    259.51041   -144.06296   -115.11418   -144.06296            0   -261.79175    18.074337    23.431307    21.951097            0            0            0    9296.4066    604.99378    57.941923    -1448.311   -3870.5933    -2442.157    -1065.849    18.074337    23.431307    21.951097           90           90           90 
   51500    254.18817   -145.04237    -116.6873   -145.04237            0    421.16657    17.924762     23.41411    22.168225            0            0            0    9303.8342    1007.2938   -1202.4899    1458.6958     -463.737    153.49302   -1199.5627    17.924762     23.41411    22.168225           90           90           90 
   52000    247.82464   -145.82718   -118.18197   -145.82718            0    1621.3578     17.96201    23.434646    22.250588            0            0            0    9366.0148    3755.6315    368.31623     740.1258   -98.769874    433.45561    1213.6605     17.96201    23.434646    22.250588           90           90           90 
   52500    259.30664   -144.07333   -115.14729   -144.07333            0     4992.934    17.980494    23.333462    22.036824            0            0            0     9245.487    4045.7975    4898.8572    6034.1471   -388.25017    1208.2676   -568.48024    17.980494    23.333462    22.036824           90           90           90 
   53000    258.60249   -145.56254   -116.71504   -145.56254            0   -231.00761    18.100778    23.348169    22.019367            0            0            0    9305.8252    288.17538    1024.6566   -2005.8547    412.63322    106.97853    827.88064    18.100778    23.348169    22.019367           90           90           90 
   53500    261.50196   -146.01484   -116.84391   -146.01484            0   -1096.9064    18.102408    23.399097    22.100669            0            0            0    9361.4014   -435.81149   -1422.5785   -1432.3291    137.50824   -43.808109    1069.2781    18.102408    23.399097    22.100669           90           90           90 
   54000    265.62201   -144.70616   -115.07563   -144.70616            0    2967.6208    17.951685    23.311314    22.106884            0            0            0    9251.2304    3119.9705    3069.0865    2713.8056   -1321.6484   -533.29878    143.24591    17.951685    23.311314    22.106884           90           90           90 
   54500    252.82386   -146.84917   -118.64628   -146.84917            0    3012.1218    17.950171    23.352204    22.155087            0            0            0    9286.8818    4524.5191    407.87322    4103.9731    -369.4462   -1431.5969    1904.3417    17.950171    23.352204    22.155087           90           90           90 
   55000     254.9712    -145.1338   -116.69138    -145.1338            0     1063.099    18.009281    23.475119    22.168855            0            0            0     9372.327     1708.328    1325.7449    155.22404   -608.64444   -1205.9732    203.40219    18.009281    23.475119    22.168855           90           90           90 
   55500    250.83917   -145.76926   -117.78777   -145.76926            0    143.64898    18.048965    23.404543     21.97556            0            0            0    9283.0868   -192.03834    1661.9266   -1038.9413     1048.617   -1128.6957   -81.775982    18.048965    23.404543     21.97556           90           90           90 
   56000    275.54811   -145.65213   -114.91433   -145.65213            0    1728.3752     18.09698    23.327307     21.96957            0            0            0    9274.5382   -560.61314    1149.8263    4595.9126    600.45379   -576.11308   -1497.6216     18.09698    23.327307     21.96957           90           90           90 
   56500    265.17115    -144.6806   -115.10036    -144.6806            0   -2669.0472    18.139258     23.25981      22.2168            0            0            0    9373.6164   -2790.0238   -1067.5869   -4149.5309   -2.1614388    1299.1969    361.52488    18.139258     23.25981      22.2168           90           90           90 
   57000    268.21304   -145.53809   -115.61852   -145.53809            0    626.41424    17.946396    23.219525    22.289244            0            0            0    9288.0796    3618.6939    1544.8545   -3284.3057    272.40642     1414.269   -1940.6522    17.946396    23.219525    22.289244           90           90           90 
   57500    265.53054   -145.70524   -116.08491   -145.70524            0    3133.9518    17.873151    23.459698    22.081148            0            0            0    9258.5974    1870.6693    3412.4551    4118.7309    2883.8652   -83.302707    2035.2044    17.873151    23.459698    22.081148           90           90           90 
   58000    267.12847   -145.44011   -115.64153   -145.44011            0    -2396.818     17.99977    23.733302    21.926169            0            0            0    9366.7274    2631.9715   -5316.6702   -4505.7553     447.2957   -762.28656    482.45167     17.99977    23.733302    21.926169           90           90           90 
   58500    269.50574   -146.54056   -116.47679   -146.54056            0    4298.5141    18.041994    23.388787    21.950279            0            0            0    9262.5863    8163.6109    2901.7983     1830.133    1638.3997    1331.8652   -406.07228    18.041994    23.388787    21.950279           90           90           90 
   59000    262.62851   -144.16533   -114.86873   -144.16533            0    1049.4678    18.196424    23.163815    22.259297            0            0            0    9382.2627   -981.32287    303.48537    3826.2408    955.15084     1457.062    1084.2612    18.196424    23.163815    22.259297           90           90           90 
   59500    260.08866   -144.43261   -115.41932   -144.43261            0    1349.5977    18.103762    23.107784    22.284122            0            0            0    9322.2915    377.27063    2563.6775    1107.8451   -536.30339   -112.58111   -362.31918    18.103762    23.107784    22.284122           90           90           90 
   60000    258.41914   -144.91739   -116.09034   -144.91739            0     830.4966    17.954696    23.424151    22.095821            0            0            0    9292.9171   -248.42365    522.16556    2217.7479    -1411.519    234.70187   -426.75099    17.954696    23.424151    22.095821           90           90           90 
   60500    255.22314   -145.24649   -116.77596   -145.24649            0    2994.5767    17.935765    23.687844    21.983176            0            0            0    9339.7633     2020.277    2832.6954    4130.7577   -719.06395    1176.3248    620.58099    17.935765    23.687844    21.983176           90           90           90 
   61000    255.39124   -144.58845   -116.09918   -144.58845            0   -1343.2169    17.931499    23.603359     22.02167            0            0            0    9320.5315    4082.8356   -3507.0613   -4605.4251    394.32426     530.2749   -1466.9217    17.931499    23.603359     22.02167           90           90           90 
   61500    267.03401   -145.51744   -115.72939   -145.51744            0    1050.5245    18.049493    23.348245    22.194758            0            0            0    9353.4037    801.18045    1624.3676    726.02553   -1182.2905   -239.35622   -1078.1558    18.049493    23.348245    22.194758           90           90           90 
   62000    268.14505   -145.01975   -115.10777   -145.01975            0    1873.2286    18.093806    23.000297    22.202283            0            0            0    9239.7664   -655.68214    1359.2381    4916.1297   -597.48833    -904.4425    -534.4062    18.093806    23.000297    22.202283           90           90           90 
   62500    258.36948   -144.63667   -115.81517   -144.63667            0    647.37734    18.173762    23.160692    22.161511            0            0            0    9328.1544   -324.06713    4136.8211   -1870.6219   -845.62474   -724.92785   -131.25218    18.173762    23.160692    22.161511           90           90           90 
   63000    267.15166   -143.43139   -113.63022   -143.43139            0   -598.32004    18.108811    23.623902    22.044185            0            0            0    9430.5197   -2713.7893    2527.9196   -1609.0904    -919.3678    307.61057     575.3778    18.108811    23.623902    22.044185           90           90           90 
   63500    258.51178   -145.07688    -116.2395   -145.07688            0    2210.3811    17.785583    23.636809    21.890975            0            0            0    9202.8439    4398.2223   -2119.2405    4352.1615   -1266.1804   -212.97246     787.0714    17.785583    23.636809    21.890975           90           90           90 
   64000    263.45242   -144.49823   -115.10971   -144.49823            0   -380.97473      17.8592    23.518211    22.256259            0            0            0    9347.9944    686.45879    758.53534   -2587.9183   -1651.1367   -209.72322   -45.270528      17.8592    23.518211    22.256259           90           90           90 
   64500    262.47639   -145.07287   -115.79323   -145.07287            0    3274.5139    17.994818    23.272589     22.29175            0            0            0    9335.4732    5994.3577    3472.6876    356.49633   -1034.0125    368.62349    292.97439    17.994818    23.272589     22.29175           90           90           90 
   65000    243.10478   -145.03556   -117.91686   -145.03556            0    -1876.858    18.173105    23.237449    22.100067            0            0            0    9332.7834   -2587.0513    -1324.587   -1718.9357     809.8645    637.85952    80.954249    18.173105    23.237449    22.100067           90           90           90 
   65500    259.81062   -145.95847   -116.97621   -145.95847            0   -486.63982    18.078056    23.284833    21.995753            0            0            0    9258.9917   -1645.1775    598.87107   -413.61301   -683.23183    940.56081   -793.71168    18.078056    23.284833    21.995753           90           90           90 
   66000    273.17516   -145.22764   -114.75454   -145.22764            0    1744.2825     17.96542    23.400098    22.123251            0            0            0    9300.4503    3529.5245    1072.3581    630.96496   -121.18519    2221.5519    1723.0894     17.96542    23.400098    22.123251           90           90           90 
   66500    266.45298   -144.75353    -115.0303   -144.75353            0   -2415.4168    18.037868    23.552989     22.25885            0            0            0    9456.5768   -3546.2814    53.741868   -3753.7107   -2510.2547     -2007.37    2057.2122    18.037868    23.552989     22.25885           90           90           90 
   67000    255.72188   -144.73607   -116.20991   -144.73607            0    3319.9834    17.959945    23.356083     22.01099            0            0            0    9233.0369    758.47661    2855.9847     6345.489   -373.25471    817.12587    953.68436    17.959945    23.356083     22.01099           90           90           90 
   67500    253.31138    -145.5686   -117.31134    -145.5686            0    1650.6273      18.0617     23.36941    22.128124            0            0            0    9340.0878    1586.3515    2753.4347    612.09565   -145.37683    127.65674   -954.03385      18.0617     23.36941    22.128124           90           90           90 
   68000     252.4717   -145.08334   -116.91974   -145.08334            0   -1150.7971    18.058351     23.34018    22.223056            0            0            0    9366.6883   -1660.9446   -2806.5305    1015.0838   -399.38875   -740.89302    -1274.984    18.058351     23.34018    22.223056           90           90           90 
   68500    256.91747   -144.41289   -115.75336   -144.41289            0    5311.3693    17.959634    23.313024    22.061983            0            0            0    9237.2063    5935.7444    2887.9298    7110.4338   -810.79788   -776.38171    665.06425    17.959634    23.313024    22.061983           90           90           90 
   69000     252.7175   -146.01044   -117.81942   -146.01044            0   -1346.5072    18.073059    23.555079    22.097557            0            0            0    9407.2021   -5103.7495   -2336.6399    3400.8678    923.88014    -1873.862     1271.575    18.073059    23.555079    22.097557           90           90           90 
   69500     258.6708   -146.38467   -117.52956   -146.38467            0    2541.8462    17.990966    23.318391    22.033054            0            0            0    9243.3152    3880.3458    2987.5634    757.62954     3264.538    639.00136    768.04628    17.990966    23.318391    22.033054           90           90           90 
   70000    262.02816   -146.41706   -117.18743   -146.41706            0    3653.5608    18.066561    23.304605    22.239535            0            0            0    9363.6021    3125.9226    5068.3983    2766.3615    688.72666    1141.3312   -1825.9635    18.066561    23.304605    22.239535           90           90           90 
   70500     256.1665   -145.10909   -116.53334   -145.10909            0   -1559.5959    18.105306    23.352858    22.200796            0            0            0    9386.7325   -2284.3788   -4235.8594    1841.4506   -855.88994    2347.6763    150.32729    18.105306    23.352858    22.200796           90           90           90 
   71000    255.95827   -145.15231   -116.59978   -145.15231            0    2397.1287    17.972827    23.300495    21.895504            0            0            0    9169.3066    2366.2579    1203.2302     3621.898    25.713622   -1112.7751    -411.2105    17.972827    23.300495    21.895504           90           90           90 
   71500    251.68814   -144.69171   -116.61552   -144.69171            0   -593.37199    18.018508    23.589092     22.13218            0            0            0    9407.0672   -895.69427   -161.97071     -722.451    18.478953    52.427618    254.47211    18.018508    23.589092     22.13218           90           90           90 
   72000    268.22805   -143.06104   -113.13979   -143.06104            0     -564.056    17.917871    23.461535    22.235362            0            0            0    9347.3181    290.65761   -1277.9053   -704.92036   -412.37549    1183.7612     995.5014    17.917871    23.461535    22.235362           90           90           90 
   72500    265.99791   -144.52513   -114.85266   -144.52513            0    1692.7161    17.930041     23.16438    22.122828            0            0            0    9188.4572    1211.6982   -243.50648    4109.9567    830.47713    1759.6223   -297.30781    17.930041     23.16438    22.122828           90           90           90 
   73000    264.77231     -145.788   -116.25225     -145.788            0   -925.74289    18.267717    23.291213    22.172287            0            0            0    9433.8042    -316.4368   -611.94677   -1848.8451   -861.72858   -209.22423    248.91417    18.267717    23.291213    22.172287           90           90           90 
   73500    271.16251   -146.40548    -116.1569   -146.40548            0    5325.2651    18.090185    23.149899    21.888876            0            0            0    9166.7539    2420.8388       7478.5    6076.4565    916.12698   -222.73417   -401.69358    18.090185    23.149899    21.888876           90           90           90 
   74000    256.58122   -145.36947   -116.74745   -145.36947            0   -216.73195    18.048243    23.441481    22.109649            0            0            0    9354.0961    50.054611   -537.80444   -162.44601    534.51351    290.33406    -765.4467    18.048243    23.441481    22.109649           90           90           90 
   74500    256.59229   -144.19219   -115.56894   -144.19219            0   -440.41551    17.893599    23.542772     22.19468            0            0            0      9349.84    377.90886    643.18778   -2342.3432   -255.63194    977.67742   -782.23055    17.893599    23.542772     22.19468           90           90           90 
   75000    263.34292   -145.08449   -115.70819   -145.08449            0    4010.9155    17.845621    23.411723    22.154091            0            0            0    9255.9069     6011.847     2920.602    3100.2974    1314.7388    1400.4443   -389.46347    17.845621    23.411723    22.154091           90           90           90 
   75500    261.65465   -146.43418   -117.24621   -146.43418            0   -9.6679942    18.041586    23.383922    22.156104            0            0            0    9347.2846   -1740.8265     -834.224    2546.0465   -1041.3016   -864.29006    1058.1711    18.041586    23.383922    22.156104           90           90           90 
   76000    260.84546    -145.2802   -116.18249    -145.2802            0    46.326539    18.079157    23.209307    22.051871            0            0            0     9253.069   -822.69406   -157.07663    1118.7503    569.11206    1210.8467    -212.6386    18.079157    23.209307    22.051871           90           90           90 
   76500    248.28519   -147.65154   -119.95496   -147.65154            0    3151.4387    18.059612    23.278074    22.123272            0            0            0    9300.4685    1849.4383    4983.2457    2621.6322    1175.3105   -502.11066   -1574.0875    18.059612    23.278074    22.123272           90           90           90 
   77000    251.63888   -146.95807   -118.88737   -146.95807            0    2253.6477    17.957168    23.450382    22.122505            0            0            0    9315.8413     3945.065    2373.6322    442.24598   -1262.8297    699.70579    1179.7966    17.957168    23.450382    22.122505           90           90           90 
   77500    252.09747   -144.78692   -116.66507   -144.78692            0    1814.0154    17.952784    23.492971    22.015522            0            0            0      9285.36    1691.3333   -1283.5133    5034.2263    -459.9139   -215.86171   -561.41259    17.952784    23.492971    22.015522           90           90           90 
   78000    263.88664   -143.54534   -114.10838   -143.54534            0    1772.1079    18.070097    23.449051    22.087653            0            0            0    9359.1267    1474.1354    2061.7797    1780.4087    2283.6634   -1118.7728   -442.96433    18.070097    23.449051    22.087653           90           90           90 
   78500    247.15836   -145.56149   -117.99061   -145.56149            0    471.44564    18.127492    23.206788    22.210551            0            0            0    9343.5542   -2320.4706    1121.4428    2613.3647   -104.12356   -343.87239   -680.39805    18.127492    23.206788    22.210551           90           90           90 
   79000    251.56923   -145.41967   -117.35675   -145.41967            0    118.14637    18.061081    23.035999    22.235929            0            0            0    9251.3703     600.3194    1566.5292   -1812.4095    698.92984   -245.91991    1026.0725    18.061081    23.035999    22.235929           90           90           90 
   79500    263.50508   -144.44765   -115.05326   -144.44765            0    1234.7022    18.111336    23.415513    22.124184            0            0            0    9382.5613    502.44307     1005.825    2195.8387    1393.3161   -665.08521    774.41174    18.111336    23.415513    22.124184           90           90           90 
   80000    260.16733   -143.77014   -114.74808   -143.77014            0    520.43554    17.936109    23.674805    21.808101            0            0            0    9260.4585    339.65064    -2304.503     3526.159   -213.43018    2179.5027   -802.87985    17.936109    23.674805    21.808101           90           90           90 
   80500    267.98723   -145.57234   -115.67796   -145.57234            0    2078.4501    17.793454    23.638181    21.956464            0            0            0    9234.9956      3667.36    522.94301    2045.0473   -88.897319   -243.71566   -349.28139    17.793454    23.638181    21.956464           90           90           90 
   81000    258.46693    -145.1556   -116.32322    -145.1556            0   -535.07392    17.974548     23.42074    22.324182            0            0            0    9397.9719   -2299.0979   -2109.3169     2803.193   -304.85791    409.14714    155.23019    17.974548     23.42074    22.324182           90           90           90 
   81500    252.62037   -145.08422   -116.90404   -145.08422            0    555.21759    18.090963    23.119933    22.189284            0            0            0    9280.9307    1165.0395   -338.71619    839.32952   -3268.1373    1639.9053    489.30924    18.090963    23.119933    22.189284           90           90           90 
   82000    257.35704   -146.15923   -117.45067   -146.15923            0    2711.7088    18.150827    23.216285    22.016448            0            0            0     9277.616   -890.49655    3066.3818    5959.2412     580.2401    660.26402   -1516.7427    18.150827    23.216285    22.016448           90           90           90 
   82500    271.83276   -144.49266   -114.16931   -144.49266            0    1872.5585    18.041547    23.455304    22.015251            0            0            0     9316.193    943.25275    2374.7898     2299.633   -986.97222    998.58136   -715.70036    18.041547    23.455304    22.015251           90           90           90 
   83000     265.5915   -144.55467   -114.92754   -144.55467            0   -828.09784    17.928862    23.591079    22.152357            0            0            0    9369.5877    138.02263     389.5532   -3011.8694    1876.8798    328.41802   -980.93951    17.928862    23.591079    22.152357           90           90           90 
   83500    270.75191   -145.97922   -115.77644   -145.97922            0    1246.1136    17.872724    23.392664    22.124736            0            0            0    9250.1448    2736.2749    925.36458    76.701425    405.53276   -1070.3083    684.24251    17.872724    23.392664    22.124736           90           90           90 
   84000    254.15897   -142.27941    -113.9276   -142.27941            0    21.995277    18.061298    23.274848    22.174625            0            0            0    9321.6347   -1617.8415    2290.9734   -607.14605   -3288.1054   -2844.0283   -250.28438    18.061298    23.274848    22.174625           90           90           90 
   84500    263.20418   -144.56459   -115.20377   -144.56459            0    -783.1395    18.222996    23.219329    22.107489            0            0            0    9354.2479   -1684.1848   -49.862237    -615.3715    1704.5001    2062.7822    855.77043    18.222996    23.219329    22.107489           90           90           90 
   85000    255.70432   -144.80884   -116.28464   -144.80884            0    2827.6527    18.140287    23.201788    21.928885            0            0            0    9229.5844     76.32909      4668.64    3737.9889   -68.116563    470.12806    16.109907    18.140287    23.201788    21.928885           90           90           90 
   85500    264.51395   -144.16284   -114.65591   -144.16284            0    2431.3285    18.031567    23.536888    22.137868            0            0            0    9395.4654     3482.934    3343.2334    467.81813   -998.64703    2164.3165   -272.43728    18.031567    23.536888    22.137868           90           90           90 
   86000    254.02758   -143.94836    -115.6112   -143.94836            0   -1267.3765    17.754893    23.533417    22.155063            0            0            0    9257.1231   -189.12823   -3842.8786     229.8772    323.63081    675.02912   -217.70335    17.754893    23.533417    22.155063           90           90           90 
   86500    256.57324   -145.73078   -117.10965   -145.73078            0   -404.40139    17.868164    23.437229    22.163517            0            0            0    9281.6429    2430.0766    1983.5857   -5626.8664    444.40344   -477.86583   -1340.3131    17.868164    23.437229    22.163517           90           90           90 
   87000    248.32508   -145.51285   -117.81181   -145.51285            0    1454.2865    18.151075    23.407144    22.121229            0            0            0     9398.532   -1469.5502    439.73747    5392.6723     2257.611     835.9632    196.49859    18.151075    23.407144    22.121229           90           90           90 
   87500     262.9013   -145.60171   -116.27467   -145.60171            0    2834.7639    18.074686    23.186265     21.95856            0            0            0    9202.4914    2658.3777    3932.8848    1913.0291   -1403.4898   -3251.3938   -1490.2837    18.074686    23.186265     21.95856           90           90           90 
   88000    252.03931   -144.27433   -116.15897   -144.27433            0    1858.2226    18.065564    23.292421     22.18123            0            0            0    9333.6557    130.95001    6951.5267   -1507.8088   -384.69228    719.22932   -1224.2048    18.065564    23.292421     22.18123           90           90           90 
   88500    258.40354   -145.95675   -117.13145   -145.95675            0    112.46397    17.997245    23.340104    22.167874            0            0            0    9311.7834    2183.1352   -2014.2568    168.51357   -1273.5329    730.95632   -230.57656    17.997245    23.340104    22.167874           90           90           90 
   89000    246.90828   -146.22906   -118.68607   -146.22906            0    -484.0024     17.98051    23.385009    21.956888            0            0            0    9232.3089   -1130.5485   -624.46033     303.0016   -1145.2557   -480.84894   -214.17756     17.98051    23.385009    21.956888           90           90           90 
   89500    245.62214   -146.25243   -118.85291   -146.25243            0   -86.195514    18.075905    23.526485    22.020682            0            0            0    9364.5705   -306.45853    -1691.047     1738.919     490.5278    680.16822     1648.599    18.075905    23.526485    22.020682           90           90           90 
   90000     248.2267   -146.58467   -118.89461   -146.58467            0   -4.8573834    17.980238    23.395471    22.086363            0            0            0    9290.7642   -2448.4645    1077.7254     1356.167    169.03458    457.06324   -439.56312    17.980238    23.395471    22.086363           90           90           90 
   90500    260.18582   -145.48713   -116.46301   -145.48713            0     127.5971    17.957393    23.309414    22.184322            0            0            0    9285.8314   -2150.6873   -758.68668    3292.1653     54.62687    -121.6438   -1812.6454    17.957393    23.309414    22.184322           90           90           90 
   91000    263.29254   -145.76962   -116.39894   -145.76962            0   -611.48983    18.030047    23.333339    22.225319            0            0            0    9350.2183   -1395.2899    1416.4242   -1855.6038    1392.3747    -284.5589   -2904.9932    18.030047    23.333339    22.225319           90           90           90 
   91500    252.25789   -147.34548   -119.20574   -147.34548            0    2166.0282    18.054129    23.324515    21.904111            0            0            0     9223.904    3023.1163   -622.55286    4097.5212    773.81537     -1975.84    977.03356    18.054129    23.324515    21.904111           90           90           90 
   92000    250.87239   -144.95999    -116.9748   -144.95999            0   -778.02118    18.179989     23.51466    21.915504            0            0            0    9368.7961   -3502.0453    1155.3181    12.663594    568.26122   -1739.5973   -1599.1717    18.179989     23.51466    21.915504           90           90           90 
   92500    260.19284   -145.93534   -116.91044   -145.93534            0   -1156.7997    18.011907    23.393908    22.154711            0            0            0    9335.3061   -3477.3908   -427.72691    434.71848    1478.6671   -34.746825   -1365.0864    18.011907    23.393908    22.154711           90           90           90 
   93000    255.33105   -145.17774   -116.69518   -145.17774            0   -1794.3428    17.741003      23.1742    22.340724            0            0            0     9185.021   -2781.2037    401.24211   -3003.0667    696.63708    975.92956   -235.99418    17.741003      23.1742    22.340724           90           90           90 
   93500    259.12196   -145.74622   -116.84077   -145.74622            0    688.57035    17.932016    23.456286    22.352151            0            0            0    9401.7283    1251.8629    1168.8052   -354.95701    1228.6099   -985.92825    -513.8979    17.932016    23.456286    22.352151           90           90           90 
   94000    262.82042   -146.67835   -117.36033   -146.67835            0   -1028.1564    18.074558    23.543302    21.849416            0            0            0    9297.6861   -3044.3667   -1907.9817    1867.8793    184.21712    145.59672   -820.12334    18.074558    23.543302    21.849416           90           90           90 
   94500    258.54589   -146.02539   -117.18421   -146.02539            0    2887.4013    18.100326    23.419415    21.797275            0            0            0     9239.844    5059.9906    291.35756    3310.8557   -455.98954    1978.3724    -397.7941    18.100326    23.419415    21.797275           90           90           90 
   95000     251.3809   -147.17277   -119.13086   -147.17277            0   -638.58033    18.067752     23.31796    22.150704            0            0            0    9332.1607   -2416.0978    1211.5326   -711.17585    490.68413    713.90778    1691.7519    18.067752     23.31796    22.150704           90           90           90 
   95500    252.37002   -144.67987   -116.52762   -144.67987            0    92.690684    17.960872    23.245682    22.333288            0            0            0     9324.432    34.401111    -58.00803    301.67897    261.29337    458.47672    1505.1697    17.960872    23.245682    22.333288           90           90           90 
   96000    260.74906   -144.30307   -115.21612   -144.30307            0    2888.3844    17.888693    23.297886    22.131083            0            0            0    9223.5434     4459.083     2284.336    1921.7342    2666.2778   -234.69693    138.51034    17.888693    23.297886    22.131083           90           90           90 
   96500    254.93866   -144.14942   -115.71063   -144.14942            0    1117.4349    18.065306    23.536379     21.98981            0            0            0    9349.8886    2659.2563    2376.4848   -1683.4363    238.07449    525.01457   -1067.2113    18.065306    23.536379     21.98981           90           90           90 
   97000    255.48868   -144.47562   -115.97548   -144.47562            0    618.57438    18.094044    23.488474    21.961987            0            0            0    9333.8772   -209.45753    999.51336    1065.6673    765.26494    81.298609   -485.70231    18.094044    23.488474    21.961987           90           90           90 
   97500    253.63091   -144.57804   -116.28513   -144.57804            0   -1805.7528    17.976521    23.290381    22.144254            0            0            0    9271.3563   -2196.7925   -124.47829   -3095.9877   -256.65632    1200.8645    1130.4271    17.976521    23.290381    22.144254           90           90           90 
   98000    258.07668   -146.59139   -117.80254   -146.59139            0    472.67851    17.957003    23.266232    22.281986            0            0            0    9309.2313    18.610907    2610.9949   -1211.5703   -716.20213   -69.277213   -1284.8368    17.957003    23.266232    22.281986           90           90           90 
   98500    265.83901   -146.02749   -116.37275   -146.02749            0    1653.0905    18.005215    23.346622    22.078941            0            0            0    9281.1249    4955.8973    1143.7355   -1140.3615    1306.9039    208.92604    187.39522    18.005215    23.346622    22.078941           90           90           90 
   99000    258.68927   -145.31317   -116.45599   -145.31317            0    1305.8381    18.112789    23.442831     21.88945            0            0            0    9294.5897   -309.68946     1464.412    2762.7917   -600.86095   -1168.5754    -1280.075    18.112789    23.442831     21.88945           90           90           90 
   99500    264.57848   -143.97895   -114.46482   -143.97895            0    468.92432    18.099657    23.457695    21.954729            0            0            0    9321.4562    2014.7997     1402.969   -2010.9958   -1442.2977    894.17121    644.93019    18.099657    23.457695    21.954729           90           90           90 
  100000    267.25233   -145.59639   -115.78399   -145.59639            0   -679.94751    17.960329    23.331239    22.214015            0            0            0    9308.4885    205.35862   -2903.6234    658.42222   -870.72426   -1156.9145   -1302.5145    17.960329    23.331239    22.214015           90           90           90 
  100500    253.73984   -144.08578   -115.78072   -144.08578            0    1228.6386    17.897714    23.263207    22.345676            0            0            0    9303.8059    5213.3379    1764.6461   -3292.0683    -1199.819   -1392.2717    1689.6117    17.897714    23.263207    22.345676           90           90           90 
  101000    262.35046   -145.54448   -116.27889   -145.54448            0    4097.8985    18.009454     23.34984    22.074188            0            0            0    9282.5903    4186.0761    3118.6967    4988.9228   -1340.2503    875.51901   -1335.0569    18.009454     23.34984    22.074188           90           90           90 
  101500    256.18322     -144.863   -116.28538     -144.863            0   -3049.3728    18.174992    23.551929    21.844591            0            0            0    9350.7111   -4545.3324   -2209.8293   -2392.9568   -868.49078    213.03359    582.92629    18.174992    23.551929    21.844591           90           90           90 
  102000    246.94563   -144.06583   -116.51868   -144.06583            0   -305.38598    18.110199    23.462912    21.799674            0            0            0    9263.0746   -834.46394     -1123.98     1042.286    1893.6217   -423.88516   -359.33953    18.110199    23.462912    21.799674           90           90           90 
  102500    254.53012   -145.20969   -116.81647   -145.20969            0    465.90634    18.037497    23.381192    22.338979            0            0            0    9421.2007   -1309.8297    3354.0182   -646.46954   -230.98733   -276.42301   -420.34192    18.037497    23.381192    22.338979           90           90           90 
  103000    254.46091   -144.07982   -115.69432   -144.07982            0    150.80648    17.847659    23.110409    22.366491            0            0            0    9225.4328    2188.9093    678.41871   -2414.9086   -3779.2185    1637.6128     2353.848    17.847659    23.110409    22.366491           90           90           90 
  103500    251.95274   -145.50776   -117.40206   -145.50776            0    1374.6309    18.015093    23.310534    22.133246            0            0            0    9294.6673    3137.8109     2876.036   -1889.9541    -548.9678   -111.77025    -127.8954    18.015093    23.310534    22.133246           90           90           90 
  104000    265.38123   -145.51393   -115.91025   -145.51393            0    1837.6473     18.17327    23.578172    21.945227            0            0            0    9403.3649    3756.2925   -14.250863    1770.9004    642.88004    812.74461   -83.173237     18.17327    23.578172    21.945227           90           90           90 
  104500    253.29317   -145.02916   -116.77393   -145.02916            0   -963.89261     18.01754    23.402381    21.917861            0            0            0     9241.739    635.04555   -3400.4525   -126.27088   -2364.3027    1111.7557    321.32589     18.01754    23.402381    21.917861           90           90           90 
  105000    262.05794   -144.09707   -114.86411   -144.09707            0    1861.0537    17.993021    23.344882    22.283954            0            0            0     9360.262    3600.8277   -1268.7551    3251.0886   -118.03593   -1378.4385    613.10979    17.993021    23.344882    22.283954           90           90           90 
  105500    254.82507   -143.28534   -114.85922   -143.28534            0    2757.7515    17.941327    23.292645    22.289008            0            0            0    9314.5975    896.58003    5159.0264     2217.648   -2222.2166    3048.1458   -325.80198    17.941327    23.292645    22.289008           90           90           90 
  106000    263.58404   -145.38135   -115.97815   -145.38135            0    -2353.849    18.038895    23.380312    22.040988            0            0            0    9295.8965   -1798.1934    -3088.313   -2175.0405    798.27399    663.95077    1270.6987    18.038895    23.380312    22.040988           90           90           90 
  106500    254.28125   -144.63876    -116.2733   -144.63876            0    1747.7626    18.126765    23.414596    21.930015            0            0            0    9307.7758   -379.56947    1931.7109    3691.1464    552.05934    740.18086   -153.78042    18.126765    23.414596    21.930015           90           90           90 
  107000    268.16739   -146.61225   -116.69777   -146.61225            0    1640.0473    18.069594    23.321984    22.038724            0            0            0    9287.5321    3321.3555   -864.84743    2463.6338   -862.60394   -710.36312    1172.8753    18.069594    23.321984    22.038724           90           90           90 
  107500    263.46619   -145.20892   -115.81887   -145.20892            0   -567.49758    18.045526    23.347909    22.307498            0            0            0    9398.7134    626.78603   -2287.4797   -41.799036   -370.87604   -1691.9517    263.45255    18.045526    23.347909    22.307498           90           90           90 
  108000    260.45076   -144.09724   -115.04357   -144.09724            0    2296.8454    17.991967    23.313503    22.147086            0            0            0     9289.723    342.51313    3861.2627    2686.7603    443.43925    1420.1409    2073.7915    17.991967    23.313503    22.147086           90           90           90 
  108500    260.30768   -143.25205   -114.21434   -143.25205            0   -2166.3973     18.07424    23.441752    21.911631            0            0            0    9283.7795   -3027.6289   -1600.0745   -1871.4886    1050.5942    606.34946    259.36504     18.07424    23.441752    21.911631           90           90           90 
  109000    255.60758    -144.7336   -116.22019    -144.7336            0    711.26393     18.15984    23.532514    21.900807            0            0            0    9359.2372   -622.39561    720.31418    2035.8732    202.38172    -466.4398    -768.2161     18.15984    23.532514    21.900807           90           90           90 
  109500     262.0789   -144.67773   -115.44243   -144.67773            0    2217.4503    18.044665    23.273721    22.157949            0            0            0    9305.5961    2029.7128    3265.0356    1357.6024    2581.2172   -247.73961    317.67845    18.044665    23.273721    22.157949           90           90           90 
  110000    265.09468   -145.63629   -116.06458   -145.63629            0    849.99429     17.96525    23.139081    22.401266            0            0            0    9312.1923   -670.96947    2840.0279    380.92445   -177.46887   -619.63459   -1726.5732     17.96525    23.139081    22.401266           90           90           90 
  110500    253.09638   -145.40698   -117.17369   -145.40698            0     3618.617     17.91551    23.235373    22.138321            0            0            0    9215.5975    5084.5113     3069.698    2701.6418   -1556.7273   -716.89553   -1606.2843     17.91551    23.235373    22.138321           90           90           90 
  111000    254.25335   -145.04211   -116.67977   -145.04211            0   -843.03038    18.110166    23.562052    21.932265            0            0            0    9358.7757   -2568.8649    -1487.502    1527.2758    776.96883   -24.016262   -1501.6954    18.110166    23.562052    21.932265           90           90           90 
  111500    266.48076   -145.51684   -115.79051   -145.51684            0   -486.87418    18.151964    23.535176    21.842924            0            0            0    9331.5084    1110.1953   -209.02523   -2361.7926    2442.3569    122.43186    79.658764    18.151964    23.535176    21.842924           90           90           90 
[...]
  373500    251.35036   -145.54639   -117.50788   -145.54639            0    946.68127    18.049731     23.32353    22.191679            0            0            0    9342.3294   -1009.3071    3560.7391    288.61176    1494.0509    -941.0117    1566.8247    18.049731     23.32353    22.191679           90           90           90 
  374000    266.97395   -145.27523   -115.49389   -145.27523            0    2798.5621    18.171032    23.279981     22.00688            0            0            0    9309.3786    2379.3053    3071.5319    2944.8491   -877.26609   -217.94263   -422.81246    18.171032    23.279981     22.00688           90           90           90 
  374500    259.64673   -142.82808   -113.86409   -142.82808            0    881.82483    18.181606    23.397724    21.982839            0            0            0    9351.6797    842.44916    612.53485    1190.4905    1427.1551   -1761.0348    130.69693    18.181606    23.397724    21.982839           90           90           90 
  375000     269.3852   -144.21068   -114.16035   -144.21068            0    1991.4671    17.884936    23.427986    22.159629            0            0            0    9285.0629    1984.7512    2768.7362    1220.9139    -1176.196   -653.56913   -1758.2499    17.884936    23.427986    22.159629           90           90           90 
  375500     258.1968   -144.48581   -115.68357   -144.48581            0    938.99086    17.833455    23.564666    22.407252            0            0            0      9416.41    3042.9069    1281.2731   -1507.2073    487.49134   -1466.3679    946.74702    17.833455    23.564666    22.407252           90           90           90 
  376000    257.28753     -144.241   -115.54018     -144.241            0    319.04026     17.95767    23.435313    22.160704            0            0            0    9326.1909   -639.65922    2457.4076   -860.62761    392.75943   -1557.9404   -526.85582     17.95767    23.435313    22.160704           90           90           90 
  376500    260.47805   -143.15282    -114.0961   -143.15282            0   -139.65208    18.219825    23.344503    21.915336            0            0            0    9321.3104    -3375.154    325.57274     2630.625   -757.24355    581.78363   -47.224056    18.219825    23.344503    21.915336           90           90           90 
  377000    252.73011   -145.55371   -117.36128   -145.55371            0     1465.668    18.271365    23.284141    22.002203            0            0            0    9360.4643   -1102.8261    4131.9351    1367.8951   -1441.6042   -222.92294   -1171.9075    18.271365    23.284141    22.002203           90           90           90 
  377500    250.65316   -144.55125   -116.59052   -144.55125            0    1222.5596    18.047343    23.256181     22.30849            0            0            0    9363.1473   -1743.1783    3034.4783    2376.3789    1504.9301    1161.9636    96.704833    18.047343    23.256181     22.30849           90           90           90 
  378000    260.43255   -144.37545    -115.3238   -144.37545            0    585.41576    17.791113    23.293613    22.307973            0            0            0    9244.8548     -358.587    1592.1278    522.70652   -1183.2894    562.96544   -1468.8903    17.791113    23.293613    22.307973           90           90           90 
  378500    258.11066   -146.46515   -117.67252   -146.46515            0    973.44197    17.967191    23.571648     22.09821            0            0            0    9358.9522    1882.7841    162.50441     875.0374    1671.6743   -825.29827    2439.8706    17.967191    23.571648     22.09821           90           90           90 
  379000    257.46965   -144.00585   -115.28472   -144.00585            0    1732.3193    18.122869    23.602982    21.958048            0            0            0    9392.6374    1207.8947     3229.857    759.20607    1435.2811   -349.27799   -952.37301    18.122869    23.602982    21.958048           90           90           90 
  379500    259.80837   -145.57948   -116.59747   -145.57948            0    1335.1021    18.123066    23.313978    22.011348            0            0            0    9300.2519   -353.01768    965.40892    3392.9151   -52.242266   -485.57779   -747.49138    18.123066    23.313978    22.011348           90           90           90 
  380000    256.85657   -145.33189   -116.67915   -145.33189            0    1456.2251    18.077663    23.196655    22.199549            0            0            0     9309.188    2130.4695    2575.8302   -337.62452    721.46893   -1396.4725   -804.56759    18.077663    23.196655    22.199549           90           90           90 
  380500    256.84726   -146.59702   -117.94533   -146.59702            0    935.65447    17.984403    23.282821    22.183841            0            0            0    9288.9868    2097.1562    1714.5185   -1004.7113     1085.134   -2362.6808    332.15573    17.984403    23.282821    22.183841           90           90           90 
  381000     257.4841   -145.24989   -116.52715   -145.24989            0   -775.98426    18.025001    23.522375    22.160778            0            0            0     9395.967    495.94583   -399.74842   -2424.1502   -59.534841    774.96149    1561.9936    18.025001    23.522375    22.160778           90           90           90 
  381500    274.52962   -143.64426   -113.02006   -143.64426            0     648.0753     17.94264    23.487901    22.057693            0            0            0    9295.8832    807.66923    924.69273    211.86392     -3310.72   -1454.7473     99.00692     17.94264    23.487901    22.057693           90           90           90 
  382000    259.04181   -144.33715   -115.44064   -144.33715            0     1181.786     18.03731    23.448861    22.201453            0            0            0    9390.2015    3130.5015    3424.5715    -3009.715   -2416.0841    295.90084    1144.4977     18.03731    23.448861    22.201453           90           90           90 
  382500    276.27053   -144.63483   -113.81644   -144.63483            0    100.21061    18.098613    23.339407    22.199961            0            0            0    9377.5051   -414.84028    1367.8382   -652.36603   -1600.5285     544.8267   -901.62919    18.098613    23.339407    22.199961           90           90           90 
  383000     268.8913   -144.56754   -114.57231   -144.56754            0    2485.3564    18.058354    23.279381    22.062474            0            0            0    9274.7841    3631.6993    2047.4478     1776.922    65.801182   -88.613523    2437.0841    18.058354    23.279381    22.062474           90           90           90 
  383500    277.69103   -144.12083   -113.14398   -144.12083            0    1197.6721    18.076902    23.395601    22.058053            0            0            0    9328.7915    651.63976    2370.6166    570.75998    2119.0804   -952.48918   -1067.6174    18.076902    23.395601    22.058053           90           90           90 
  384000    253.07475   -144.55817    -116.3273   -144.55817            0    145.19266     18.02792    23.457896    22.174049            0            0            0    9377.3406    810.41085    1141.5145   -1516.3474    566.12982    115.74565    187.01645     18.02792    23.457896    22.174049           90           90           90 
  384500    254.12358   -144.95025   -116.60239   -144.95025            0    2405.1822    17.950057    23.377154    22.336787            0            0            0    9372.9906    5066.6628     2387.958   -239.07435   -220.93685     23.80191   -971.01126    17.950057    23.377154    22.336787           90           90           90 
  385000    259.40624   -146.61236    -117.6752   -146.61236            0     2280.767    17.978629    23.243587     22.22296            0            0            0    9286.7042    263.03691    4452.9439    2126.3201   -602.03975     561.4511    1388.5351    17.978629    23.243587     22.22296           90           90           90 
  385500    252.72589   -146.10389   -117.91194   -146.10389            0   -2459.0801    18.161736    23.329383    21.956677            0            0            0    9303.0899   -3576.9066   -1834.1489   -1966.1849   -1511.1335   -10.321308    33.452031    18.161736    23.329383    21.956677           90           90           90 
  386000    260.08208   -145.42142   -116.40887   -145.42142            0    3711.0996    18.197933    23.453238    21.821202            0            0            0    9313.2984    3036.7839    3509.4806    4587.0343    111.43642    984.49048    1023.2269    18.197933    23.453238    21.821202           90           90           90 
  386500    263.49817   -144.22406   -114.83044   -144.22406            0    1375.2386    18.096016    23.512508    22.225593            0            0            0    9456.6058     633.2678    1063.7294    2428.7186   -1067.1686    896.35731    1375.0023    18.096016    23.512508    22.225593           90           90           90 
  387000    256.04038   -144.45576   -115.89408   -144.45576            0   -788.16953    17.816606    23.262828    22.464185            0            0            0    9310.6102    438.54378   -1169.4312   -1633.6211   -506.23629   -97.681082   -1146.3883    17.816606    23.262828    22.464185           90           90           90 
  387500     266.8466   -145.50139   -115.73425   -145.50139            0    2542.4583    17.841078    23.234825    22.210507            0            0            0    9207.0176    1700.9214     2902.252    3024.2017   -2840.1569    1061.8974    1975.7964    17.841078    23.234825    22.210507           90           90           90 
  388000    252.12797   -146.30165   -118.17639   -146.30165            0   -307.68231    18.161738     23.51755      22.0327            0            0            0    9410.5974   -475.29245   -720.50117     272.7467    2508.6382    -1397.901   -759.33969    18.161738     23.51755      22.0327           90           90           90 
  388500    243.60523   -145.21665   -118.04212   -145.21665            0    1084.8618    18.154945    23.442983    21.937547            0            0            0    9336.7531   -283.68526    1381.0479    2157.2227   -261.24014     -392.412    539.39915    18.154945    23.442983    21.937547           90           90           90 
  389000    252.63673   -146.13066   -117.94865   -146.13066            0    1814.9426    18.039307    23.339967     22.12402            0            0            0    9315.0268    2854.2315    105.41337    2485.1829    1128.8054   -347.23173    385.25813    18.039307    23.339967     22.12402           90           90           90 
  389500    250.93668   -145.71043   -117.71806   -145.71043            0    1401.8901    17.919041    23.341769    22.288158            0            0            0    9322.2923     1553.457    576.17907    2076.0341   -381.76869    -1678.499    30.888385    17.919041    23.341769    22.288158           90           90           90 
  390000    249.58978   -146.53707   -118.69495   -146.53707            0    2222.3512    17.960682     23.39245    22.208926            0            0            0    9330.9549    1756.3256    1193.9868    3716.7411   -1264.1233   -92.658918    560.32705    17.960682     23.39245    22.208926           90           90           90 
  390500    255.89245   -144.94713   -116.40194   -144.94713            0   -159.67291    18.074783    23.453978    21.935579            0            0            0    9299.0525    1536.0099   -5006.7941    2991.7654    2701.9185   -469.95954   -1382.2374    18.074783    23.453978    21.935579           90           90           90 
  391000    261.42308    -144.1831   -115.02097    -144.1831            0   -957.06798    18.175315     23.49719    21.965516            0            0            0     9380.787    -253.0799   -10.644003     -2607.48   -778.66187    1396.5271   -415.78657    18.175315     23.49719    21.965516           90           90           90 
  391500    270.33143   -144.09871   -113.94284   -144.09871            0   -279.74849    18.048188    23.302378    22.169869            0            0            0    9323.8865    201.47989   -1958.5271    917.80177   -115.63526    987.67707     1390.014    18.048188    23.302378    22.169869           90           90           90 
  392000    257.19693   -147.13366   -118.44295   -147.13366            0    471.38919    17.900031    23.240431    22.381863            0            0            0    9310.9542    1817.5212    1755.7379   -2159.0915   -2284.3343   -437.79952   -614.84151    17.900031    23.240431    22.381863           90           90           90 
  392500    250.34016    -146.4402   -118.51438    -146.4402            0    2325.4224    17.927155    23.393795    22.214681            0            0            0     9316.486    1654.5409    1932.7487    3388.9775   -1063.8734    1263.3881   -1075.9529    17.927155    23.393795    22.214681           90           90           90 
  393000    266.53543    -145.0282   -115.29578    -145.0282            0     317.7535    18.122939    23.629992    21.819527            0            0            0    9344.1013    291.53643   -1387.2941    2049.0182   -741.40105   -1921.7534   -829.51929    18.122939    23.629992    21.819527           90           90           90 
  393500    274.90239   -143.77128   -113.10551   -143.77128            0     2617.527    18.165403     23.54664    21.863485            0            0            0    9351.7605    3597.1822    352.82871    3902.5701    -930.9834   -1061.7588    -853.8943    18.165403     23.54664    21.863485           90           90           90 
  394000    264.55764   -145.90822   -116.39642   -145.90822            0    985.21175    18.016999    23.309507    22.217691            0            0            0    9330.7052   -1918.2329    4373.7039    500.16432    1194.9084     562.1196    722.90091    18.016999    23.309507    22.217691           90           90           90 
  394500    261.69821    -146.0236   -116.83077    -146.0236            0    438.44662    17.861836    23.183395    22.387251            0            0            0    9270.5158    2891.0528    1210.0663   -2785.7793   -1215.3114    935.48823    434.70155    17.861836    23.183395    22.387251           90           90           90 
  395000    261.89664   -144.47531   -115.26034   -144.47531            0   -531.00614    18.021798    23.412308    22.313013            0            0            0    9414.5718   -1146.2827   -1759.1979    1312.4622    188.44234    889.87295    457.68826    18.021798    23.412308    22.313013           90           90           90 
  395500    263.38338    -146.2731   -116.89229    -146.2731            0    1012.1227     18.11881    23.497381     21.96014            0            0            0    9349.4108   -589.75156    1895.3941    1730.7255    537.05128   -257.77634   -1029.4499     18.11881    23.497381     21.96014           90           90           90 
  396000    248.08233   -145.31883   -117.64487   -145.31883            0   -52.848842     18.09047    23.471966     21.95548            0            0            0     9322.712   -1489.5588   -683.61586    2014.6281   -543.44744   -905.40006    196.83072     18.09047    23.471966     21.95548           90           90           90 
  396500    254.71439   -146.61105   -118.19728   -146.61105            0    1391.6868    18.021916    23.391055      22.1863            0            0            0    9352.6704   -2849.8671     4397.586    2627.3414   -1648.5187     646.8239   -461.84021    18.021916    23.391055      22.1863           90           90           90 
  397000    264.90279   -145.85557   -116.30527   -145.85557            0    651.37736    17.961771    23.301994    22.194455            0            0            0    9289.3801    1941.6921    2786.9122   -2774.4721     2508.981    -1614.994   -612.90338    17.961771    23.301994    22.194455           90           90           90 
  397500    259.53583   -145.01813   -116.06651   -145.01813            0    3452.2412    18.045041    23.381922    22.122045            0            0            0    9333.9041    3910.1332    3037.0975    3409.4928   -397.02372   -1370.9392   -959.53032    18.045041    23.381922    22.122045           90           90           90 
  398000    258.06177    -145.7946   -117.00743    -145.7946            0   -24.162996     18.11571    23.504085    22.043677            0            0            0    9386.0473   -374.94296    730.87232   -428.41835   -149.71472   -385.75274    -283.2029     18.11571    23.504085    22.043677           90           90           90 
  398500    271.45098   -145.17815   -114.89738   -145.17815            0   -1028.2871    17.981959    23.341983    22.030398            0            0            0      9246.92   -808.92067   -1483.9521    -791.9884   -1584.1855     583.4828    535.70973    17.981959    23.341983    22.030398           90           90           90 
  399000    252.30652   -147.74295   -119.59778   -147.74295            0    1418.6073    17.936152    23.321492    22.208839            0            0            0    9289.9094    1725.6572    849.92699    1680.2376    934.52149    995.38851   -473.71858    17.936152    23.321492    22.208839           90           90           90 
  399500    256.04051   -145.08675   -116.52504   -145.08675            0    1118.6688    17.964769     23.38751    22.207927            0            0            0    9330.6876    2160.2971    928.86871    266.84046    934.66844    -2192.047    116.65733    17.964769     23.38751    22.207927           90           90           90 
  400000    252.59713   -146.67414   -118.49655   -146.67414            0     321.5533    18.072989    23.445592    22.017913            0            0            0    9329.6926    3154.9386   -3389.2587      1198.98    310.66434   -1616.0795    1057.8752    18.072989    23.445592    22.017913           90           90           90 
Loop time of 2139.19 on 1 procs for 400000 steps with 864 atoms

Performance: 8.078 ns/day, 2.971 hours/ns, 186.987 timesteps/s
73.6% CPU use with 1 MPI tasks x 1 OpenMP threads

MPI task timing breakdown:
Section |  min time  |  avg time  |  max time  |%varavg| %total
---------------------------------------------------------------
Pair    | 1864.2     | 1864.2     | 1864.2     |   0.0 | 87.15
Bond    | 0.065423   | 0.065423   | 0.065423   |   0.0 |  0.00
Neigh   | 248.53     | 248.53     | 248.53     |   0.0 | 11.62
Comm    | 8.2788     | 8.2788     | 8.2788     |   0.0 |  0.39
Output  | 1.9716     | 1.9716     | 1.9716     |   0.0 |  0.09
Modify  | 14.514     | 14.514     | 14.514     |   0.0 |  0.68
Other   |            | 1.6        |            |       |  0.07

Nlocal:        864.000 ave         864 max         864 min
Histogram: 1 0 0 0 0 0 0 0 0 0
Nghost:        3762.00 ave        3762 max        3762 min
Histogram: 1 0 0 0 0 0 0 0 0 0
Neighs:         0.00000 ave           0 max           0 min
Histogram: 1 0 0 0 0 0 0 0 0 0
FullNghs:      168440.0 ave      168440 max      168440 min
Histogram: 1 0 0 0 0 0 0 0 0 0

Total # of neighbors = 168440
Ave neighs/atom = 194.95370
Ave special neighs/atom = 0.0000000
Neighbor list builds = 40000
Dangerous builds not checked

unfix		3
unfix		2

write_data	data.final.${pid}
write_data	data.final.0
System init for write_data ...

write_restart   restart.lmp.${pid}
write_restart   restart.lmp.0
System init for write_restart ...
Unloading pair style deepmd
Unloading compute style deepmd
Unloading fix style deepmd
Total wall time: 0:35:43
