LAMMPS data file via write_data, version 23 Jun 2022, timestep = 400000

972 atoms
2 atom types

0.05205101268226464 19.939001987316836 xlo xhi
-0.053792271155998606 20.044845271155207 ylo yhi
0.2865736975778006 20.51419830242247 zlo zhi

Masses

1 1.008
2 15.999

Atoms # full

2 0 2 0 1.745233526962736 2.518574451445922 0.880107939898051 0 0 0
31 0 1 0 0.7329595224200219 1.773512760241439 2.2314943036792263 0 0 0
32 0 2 0 1.0144594081037368 0.8441307824223684 2.1627856947810544 0 0 0
33 0 2 0 1.3569515120785516 2.1578376535059287 2.855971571448709 0 0 0
5 0 2 0 3.61494231299963 0.870306950058917 3.845533197253385 0 0 0
18 0 2 0 4.668121893362672 3.0968674152833366 3.5607906476244997 0 0 0
4 0 1 0 4.410244767835829 1.3563800339878793 3.5925618079635995 0 0 0
35 0 2 0 4.195985675605742 2.395603362312171 0.7847280806641941 0 0 0
230 0 2 0 4.678295163139418 0.03394098098276711 2.321515511290761 0 1 0
36 0 2 0 5.461106293514051 2.4042088032613593 1.5998465189867073 0 0 0
34 0 1 0 5.124336851421225 2.5485590768396187 0.7098139730845576 0 0 0
67 0 1 0 7.066049750802481 2.1849539851765454 2.6224651950066273 0 0 0
68 0 2 0 7.211253890846342 2.777499113314727 3.339961675173914 0 0 0
272 0 2 0 7.4252431751829695 0.3630632832501785 2.867982387977386 0 1 0
69 0 2 0 7.978448651428028 2.2431712530081214 2.124098138708029 0 0 0
37 0 1 0 9.213475074951639 2.547061328510518 1.041679165292571 0 0 0
41 0 2 0 9.851609454299162 1.0985306206525463 4.135290800300147 0 0 0
39 0 2 0 10.141156481873463 2.460625557781715 1.2551527666578992 0 0 0
40 0 1 0 10.657942480351595 1.139172807530664 3.5963066154923076 0 0 0
54 0 2 0 10.914879384439848 2.930034077530702 3.6499400542608726 0 0 0
52 0 1 0 10.859902261262448 3.8812852154495765 3.729931862082878 0 0 0
42 0 2 0 11.38797364885453 0.7171227096648171 4.064989577610668 0 0 0
70 0 1 0 11.93536248988713 2.7083702279037154 1.0245618609442113 0 0 0
72 0 2 0 12.775701818166214 2.5336041133729568 1.503766477973828 0 0 0
84 0 2 0 14.940545940679986 3.1766235863818952 3.72545114469837 0 0 0
103 0 1 0 14.295251586667504 1.9576855578037642 2.431163522922836 0 0 0
105 0 2 0 14.23396991531139 1.006812773767028 2.715175582200113 0 0 0
71 0 2 0 12.116441286555164 3.4113452816287 0.3287019547113281 0 0 0
104 0 2 0 15.06889917625319 1.9625170988209533 1.7545715081825835 0 0 0
73 0 1 0 16.08687832776583 2.361738825536188 0.4686758482369191 0 0 0
76 0 1 0 17.517970127357415 1.2448658666963988 3.379199531177896 0 0 0
77 0 2 0 17.3375033069032 0.694270717268166 2.5486627474144816 0 0 0
89 0 2 0 17.59696072543499 2.997252826990461 3.495409466394834 0 0 0
108 0 2 0 19.268541509142317 2.392586431859158 1.1778563159962392 0 0 0
107 0 2 0 17.841542727197584 2.6767184236020323 0.7380644245279757 0 0 0
106 0 1 0 18.70200677740175 2.5307245165177457 0.3973622840106862 0 0 0
78 0 2 0 18.31396872249526 0.9654269061768346 3.9082091149366955 0 0 0
16 0 1 0 4.535773614945226 4.061214960151203 3.6141593774132827 0 0 0
10 0 1 0 1.7245972056542174 4.026273295215726 3.73434785078451 0 0 0
12 0 2 0 2.6670749091148185 4.259015763136582 3.9431315905921744 0 0 0
20 0 2 0 1.0818846230282746 5.54467360347279 2.7124462202365662 0 0 0
675 0 2 0 2.0373611483081038 5.69083361366508 0.6677675726022515 0 0 1
19 0 1 0 1.0132402002559884 6.039594245233921 1.8923452183308795 0 0 0
21 0 2 0 1.0796750355285343 7.005445946875691 2.0376382651667804 0 0 0
17 0 2 0 4.720529165779445 4.456261484455019 2.7369632877973378 0 0 0
14 0 2 0 4.14531778608428 5.479665042518861 0.6226984861696234 0 0 0
114 0 2 0 4.2892395093913755 7.291714299991626 2.6589139282588024 0 0 0
13 0 1 0 4.664020796385981 5.743747840541746 1.4366496303459468 0 0 0
112 0 1 0 4.137757000264588 7.689614266479869 3.56470404777192 0 0 0
131 0 2 0 2.433174261296159 7.940020991496559 4.250636000883357 0 0 0
113 0 2 0 4.922164609031548 7.609681638786156 4.1138340161125235 0 0 0
46 0 1 0 8.110545772339439 4.088005054356829 4.270827507866551 0 0 0
47 0 2 0 9.06088155850234 4.122815512952878 4.29958689944214 0 0 0
56 0 2 0 7.442152336880607 5.335983171029751 2.9441503589879807 0 0 0
15 0 2 0 5.623166022706434 5.736694982686858 1.2362494932043475 0 0 0
177 0 2 0 7.209980888407617 7.700139805450681 2.639910808703362 0 0 0
55 0 1 0 7.268010451720082 5.807887945509657 2.1343377298501776 0 0 0
57 0 2 0 7.92104608054541 5.33470518037614 1.5839334571816648 0 0 0
709 0 1 0 9.43355155689322 5.325771304431654 0.35680762230463453 0 0 1
83 0 2 0 14.77318259528384 4.612988785159781 3.1771369476444087 0 0 0
51 0 2 0 11.595055851695147 4.873853771559052 2.4489440621352574 0 0 0
149 0 2 0 10.123101590408085 7.785690172914449 4.2634736644315705 0 0 0
49 0 1 0 11.703533877478565 5.683411310236919 1.9488662768858511 0 0 0
50 0 2 0 11.15522828766593 5.60395000028795 1.1449939661108655 0 0 0
150 0 2 0 10.763431109720697 7.26063930574161 2.9256752942589825 0 0 0
148 0 1 0 10.886474173411166 7.823516053640491 3.668698623113103 0 0 0
91 0 1 0 14.28157363038166 5.836336878425385 2.0326872099805167 0 0 0
92 0 2 0 14.231166862573316 6.73614357721057 2.439063308248236 0 0 0
93 0 2 0 13.361854371252406 5.698843754708612 1.842806937512986 0 0 0
82 0 1 0 14.992033853967996 4.131339422444416 3.9764661663859546 0 0 0
90 0 2 0 16.6148945286498 4.110150853710945 3.955936393839215 0 0 0
88 0 1 0 17.567406239418872 3.980608087534195 3.7012978805446144 0 0 0
86 0 2 0 17.95959448886999 5.077305026883166 2.121852982724943 0 0 0
747 0 2 0 15.2941430716822 5.5194532682884585 0.6051937915706909 0 0 1
85 0 1 0 18.202219687682074 5.814966574575639 1.5586677057118585 0 0 0
87 0 2 0 19.164479420297994 5.787912327608349 1.3176114704105562 0 0 0
185 0 2 0 17.646759054150706 7.317748018339394 2.5757092395620718 0 0 0
746 0 2 0 16.807651763208803 5.594494147554531 0.47584777545826884 0 0 1
184 0 1 0 17.290387732185252 7.8077610034736855 3.358090660098424 0 0 0
139 0 1 0 0.8279110421946079 8.777377077595444 2.115515816383868 0 0 0
141 0 2 0 1.4397693139027283 9.17681231902713 1.4640135070491445 0 0 0
119 0 2 0 0.9314443136813079 9.68359341150994 3.6542791661615897 0 0 0
129 0 2 0 0.6344747596503925 11.566575136306627 2.6008423779365604 0 0 0
126 0 2 0 3.8532920060584246 9.446483025973235 3.528025491400848 0 0 0
124 0 1 0 3.7255976438214975 10.415928482668697 3.75866577180928 0 0 0
122 0 2 0 4.243969635443631 11.499361546077454 2.557033540679381 0 0 0
118 0 1 0 1.1603160674244848 10.392025602779327 4.243269039137635 0 0 0
120 0 2 0 2.076444139996917 10.650383682746284 4.140083447367143 0 0 0
175 0 1 0 7.1183517500208895 8.56317813708675 2.2271162345549373 0 0 0
176 0 2 0 6.3738091373260835 8.491175417269433 1.6063861385183311 0 0 0
147 0 2 0 8.671988164177877 9.186005495742242 1.3402918354558067 0 0 0
145 0 1 0 9.395705878585062 9.387313407649705 0.7685032278213442 0 0 0
155 0 2 0 7.664917914251538 9.847365340378703 3.4788968782161525 0 0 0
156 0 2 0 7.598083361282114 11.394886711452672 3.2265678234398534 0 0 0
154 0 1 0 7.855446663496595 10.697517592212854 3.8838914156792907 0 0 0
161 0 2 0 9.982602486098717 10.839027538298946 3.9583433527577614 0 0 0
146 0 2 0 9.394935705644423 10.361258131577461 0.6821889254609984 0 0 0
179 0 2 0 11.001664225617882 8.901302660808586 0.6717796221641598 0 0 0
162 0 2 0 10.818597124494854 9.791406022186235 3.2486182176524836 0 0 0
178 0 1 0 11.986795085090156 8.98977279589261 0.8229436226579139 0 0 0
211 0 1 0 13.914232970313506 8.516995006615252 2.4988219794739024 0 0 0
213 0 2 0 13.026394795494971 8.630902302631135 2.1821515925619055 0 0 0
212 0 2 0 14.085359535373826 9.196407313405949 3.172362209044087 0 0 0
160 0 1 0 10.938044055424013 10.620660809514469 3.724266312916564 0 0 0
158 0 2 0 11.501842098319926 11.83517336006666 2.2924296374743296 0 0 0
191 0 2 0 14.545090318044648 11.564036022201488 3.685209469087535 0 0 0
190 0 1 0 14.84115055460972 10.838105359650132 4.170892701871431 0 0 0
183 0 2 0 15.170601719002281 8.873001352687705 1.0315348704294784 0 0 0
140 0 2 0 19.80788882228314 8.85899899151787 1.7944627420430599 -1 0 0
186 0 2 0 17.453689486632726 8.743685421777387 3.17413347314123 0 0 0
214 0 1 0 18.524363736889192 8.611131148007967 0.5051778267389874 0 0 0
216 0 2 0 17.573254778958436 8.891031004426488 0.391915821665641 0 0 0
855 0 2 0 15.08128928908316 11.925013660113494 0.8904166075512747 0 0 1
192 0 2 0 15.768539766007715 10.87118397041199 3.9846673632661505 0 0 0
196 0 1 0 17.52410586825711 10.371244524979828 3.4418704500945654 0 0 0
197 0 2 0 17.6181904344944 11.068051366538452 2.7305237639314344 0 0 0
128 0 2 0 19.45275505480086 11.967475704351074 1.6441057139604525 -1 0 0
198 0 2 0 18.00250157951507 10.863567151178936 4.207093473909211 0 0 0
782 0 2 0 1.703576531701578 12.175041067480745 0.4270456882645883 0 0 1
249 0 2 0 0.8135476303791331 14.004876146502136 2.1769221725395687 0 0 0
221 0 2 0 3.168051532193819 14.540597108805892 3.7368479454301653 0 0 0
127 0 1 0 0.5064014603784499 12.136755904630814 1.8208030415781113 0 0 0
123 0 2 0 3.978281188642729 12.035433769332315 1.1222714032671806 0 0 0
222 0 2 0 4.016071227198514 14.115688381151704 2.403904813083633 0 0 0
121 0 1 0 4.509659661575757 12.175452910041006 1.905298029614254 0 0 0
220 0 1 0 3.816115824726727 14.784928282384238 3.02568126602021 0 0 0
247 0 1 0 0.6545292994427164 14.945572861400013 2.316820081814233 0 0 0
218 0 2 0 2.090780784183264 15.61361178099672 1.2502022240673978 0 0 0
217 0 1 0 2.4727864392501013 15.956882246430535 0.41970053338825086 0 0 0
163 0 1 0 7.186905991187743 12.63071258188538 2.22223036265031 0 0 0
165 0 2 0 6.251336424283471 12.579855108359018 2.000817888393219 0 0 0
164 0 2 0 7.372035050614137 13.505504667634032 2.6110052980818836 0 0 0
819 0 2 0 8.56764455614209 12.4442488413122 1.0041478517889018 0 0 1
258 0 2 0 9.76949644781581 14.606989594215904 4.0500314066207785 0 0 0
283 0 1 0 7.29646208983999 15.393045008261721 2.672499858170345 0 0 0
284 0 2 0 6.531486083010748 15.761319582700713 2.1785628535378745 0 0 0
285 0 2 0 7.916096341556701 15.520597521029107 1.9586976584508948 0 0 0
817 0 1 0 9.349690938073902 12.094750622229917 0.5385628031123525 0 0 1
253 0 1 0 9.100183536209032 16.021892448882433 0.5375258133233973 0 0 0
818 0 2 0 10.119531410356464 12.442864990142295 1.0653560664118773 0 0 1
157 0 1 0 11.440814960643836 12.6754581055568 1.7900980408683198 0 0 0
159 0 2 0 11.291382813440565 13.46240965047036 2.3948356429962767 0 0 0
256 0 1 0 10.675703339031944 14.715257974896039 3.6219469323833176 0 0 0
200 0 2 0 13.324458836344787 12.767580635949425 2.3173811357267367 0 0 0
199 0 1 0 14.265595901665668 12.770325076429959 2.4424044558221305 0 0 0
201 0 2 0 14.457461512407601 13.715829248904155 2.6090456313317323 0 0 0
257 0 2 0 10.795798792266488 15.669555326549833 3.6746348185684945 0 0 0
286 0 1 0 11.825536364383577 15.75041898295123 0.6023091890359613 0 0 0
319 0 1 0 13.77046665589374 15.399179595295912 2.3987119025752595 0 0 0
320 0 2 0 12.910568741745932 15.651185785045827 2.0258481667403876 0 0 0
255 0 2 0 10.064346583526204 15.848655184119528 0.6129635418337519 0 0 0
193 0 1 0 17.72637819776044 12.282591899579359 1.7052051084568207 0 0 0
194 0 2 0 17.648606642173164 13.2245755116505 1.812289033715156 0 0 0
195 0 2 0 17.018824764584323 12.049220655051643 1.0439795306621047 0 0 0
294 0 2 0 16.5996050030221 14.479104005744508 3.53709185704243 0 0 0
292 0 1 0 17.27789671009692 14.865739581748649 2.9188533555320837 0 0 0
248 0 2 0 19.89505082388714 15.165963536325593 1.607506546567608 -1 0 0
291 0 2 0 15.308388078874065 15.543618486624155 0.8993189699576697 0 0 0
293 0 2 0 17.26935833433575 15.814645355697722 3.017071391401242 0 0 0
290 0 2 0 16.829426425356147 15.748483614255399 0.4888309665377532 0 0 0
322 0 1 0 18.68296364105766 15.796685205639658 0.39639091243231983 0 0 0
318 0 2 0 18.964628007166084 14.506179949297188 4.320362755496925 0 0 0
227 0 2 0 1.2165879827233264 16.363435999355392 3.5615761958349323 0 0 0
235 0 1 0 0.3842609187608753 19.1147617450156 1.807401892017998 0 0 0
236 0 2 0 0.5318918780169294 18.495210791149187 2.5211426579164162 0 0 0
237 0 2 0 0.8952177919977218 18.770138133458005 1.0555989163058006 0 0 0
228 0 2 0 2.337609641201559 17.547776534605486 3.8802848985614227 0 0 0
226 0 1 0 1.3950639331869048 17.266264411375563 3.9834733733287226 0 0 0
891 0 2 0 3.3398251075228265 18.98296970125475 0.6832742056744591 0 0 1
251 0 2 0 4.1674606404671195 16.114091559200546 0.673163351621567 0 0 0
232 0 1 0 3.9873959264268426 17.295602795121535 3.684379286374914 0 0 0
234 0 2 0 4.2622432476054195 18.018099709000516 3.1055357802738404 0 0 0
233 0 2 0 4.074095271438618 16.346368101433438 3.35523429604946 0 0 0
229 0 1 0 4.917125246883156 19.336256594327796 1.7834403682548443 0 0 0
250 0 1 0 5.157960577045322 16.175966665869943 0.6016963635608612 0 0 0
231 0 2 0 5.93026572250454 19.351469435757696 1.772387452913779 0 0 0
271 0 1 0 7.6052299270729495 19.56402130723295 2.5913098417714067 0 0 0
273 0 2 0 7.948993761039089 19.07407387329702 3.351688329605594 0 0 0
263 0 2 0 7.923325731760116 16.72296505513963 3.6730083629948207 0 0 0
262 0 1 0 8.27624505126855 17.451512341547673 4.227353505929986 0 0 0
264 0 2 0 9.255534787342869 17.364053421319745 4.209762371911712 0 0 0
927 0 2 0 8.388167959842098 18.883770429248546 0.8716198194643457 0 0 1
266 0 2 0 10.827515897689771 20.025889389815582 2.2893058171012286 0 0 0
265 0 1 0 11.192743192937005 19.248748093581483 1.8559157974098972 0 0 0
267 0 2 0 10.767373202537804 19.069381554844167 1.0196803064833793 0 0 0
268 0 1 0 11.006089115767594 17.372635871431513 3.9113825005102196 0 0 0
269 0 2 0 11.073807680145434 18.205402919259008 3.32015664352688 0 0 0
321 0 2 0 14.106385391996064 16.131454499379434 2.9315371915676915 0 0 0
307 0 1 0 14.070778945966014 19.483932377428253 2.14704738286755 0 0 0
308 0 2 0 13.149900111159234 19.31650299875715 2.0195174992094733 0 0 0
309 0 2 0 14.342701420009776 18.759028509557023 2.7420460443461256 0 0 0
298 0 1 0 14.838798488939034 17.504642070530355 3.8133708196398017 0 0 0
963 0 2 0 15.040484953938275 18.885428376185285 0.7174238690025684 0 0 1
301 0 1 0 17.544398930331113 19.46835699081679 1.5687525338185864 0 0 0
302 0 2 0 16.94032159574462 19.13213790876049 0.8581192708457792 0 0 0
303 0 2 0 18.475735001799997 19.291313673913674 1.3329481104899865 0 0 0
306 0 2 0 17.406043914146075 18.361489671920616 2.9186458248986535 0 0 0
304 0 1 0 17.296668041063214 17.523381099080698 3.426283393139319 0 0 0
300 0 2 0 15.773530538121097 17.40880400353683 3.773146725840313 0 0 0
305 0 2 0 17.83557437523814 17.574266356983433 4.215283060437026 0 0 0
22 0 1 0 2.157613868935255 0.8198917353649362 4.681395275721892 0 0 0
23 0 2 0 2.4447254056373753 1.5149166775591256 5.277027737364103 0 0 0
325 0 1 0 2.959709639084024 2.6649029041957126 6.429060569043327 0 0 0
326 0 2 0 3.837651116063814 2.501790726189418 6.806946362989745 0 0 0
101 0 2 0 0.464108717022813 0.8428985950792791 4.8113442196639085 1 0 0
24 0 2 0 2.0722837659232702 0.08564389423197766 5.315202770276017 0 0 0
327 0 2 0 2.9599935400176904 3.6327046910621674 6.312217926270408 0 0 0
356 0 2 0 1.7420756959254882 2.17478052655915 7.847291035421086 0 0 0
357 0 2 0 0.24214561841137736 2.2507852524307093 8.158528399051587 0 0 0
6 0 2 0 5.039156760053549 1.165967869924395 4.338456981358215 0 0 0
29 0 2 0 7.288314520657915 0.6390858489058556 5.290791132315757 0 0 0
28 0 1 0 6.270047152501948 0.6296779355162139 5.281240470058317 0 0 0
358 0 1 0 5.771433992901409 2.4177041832055632 7.222421257065608 0 0 0
359 0 2 0 6.04769100115157 1.6908772911279502 6.6236287863870675 0 0 0
360 0 2 0 6.229473936277917 2.252158637192688 8.126081339163875 0 0 0
58 0 1 0 8.865017283386031 1.119554075183294 5.612471773939045 0 0 0
59 0 2 0 9.119977022383443 1.8954628830120637 6.20199152817397 0 0 0
361 0 1 0 9.712661357262041 2.8625700137902004 7.519233169065598 0 0 0
363 0 2 0 9.495698557052902 3.8164934805361783 7.2995608798497384 0 0 0
60 0 2 0 9.101177183327087 0.27793729106827897 6.155547344782175 0 0 0
362 0 2 0 10.679035249107764 2.761096747508583 7.706165581452413 0 0 0
394 0 1 0 12.295349776930054 2.5846345518361233 7.749733040195685 0 0 0
396 0 2 0 12.551228184334715 3.388194627454274 7.349839914000423 0 0 0
65 0 2 0 13.638516090376585 0.9608922649688638 5.334180653252379 0 0 0
64 0 1 0 12.812104948927407 0.5235991447001337 5.467573193229003 0 0 0
66 0 2 0 12.289179246820792 1.0545604829044264 6.080601310764263 0 0 0
94 0 1 0 15.669166589184647 0.873726272568563 5.331604263156126 0 0 0
399 0 2 0 16.016080369697583 3.630340303831447 7.176803055656831 0 0 0
95 0 2 0 15.767410948350053 1.6446567861445818 5.885646820092089 0 0 0
397 0 1 0 15.9602880372229 2.6645465559320383 7.318357419914884 0 0 0
96 0 2 0 16.357465914021986 0.9237965711952648 4.593694136252365 0 0 0
100 0 1 0 19.453282159918096 0.657944468037536 5.0764573662010815 0 0 0
398 0 2 0 16.887177334369937 2.5338033560953597 7.504385761116869 0 0 0
430 0 1 0 18.92436981450897 2.6360079201924362 7.221530683939929 0 0 0
431 0 2 0 18.984732717580584 1.8766437939735663 6.5020462875757135 0 0 0
432 0 2 0 19.10872796717709 3.4641351606883486 6.678761749453307 0 0 0
11 0 2 0 1.137579150400474 4.21320812604825 4.469033693099751 0 0 0
132 0 2 0 0.9548725724817771 7.794671789231441 4.726219544238426 0 0 0
130 0 1 0 1.8805954500881863 7.689189646064765 4.99004610131096 0 0 0
25 0 1 0 2.595150880432605 5.425742433376302 6.258462808352896 0 0 0
26 0 2 0 2.408604205256499 6.2101011486563555 5.730600549914822 0 0 0
27 0 2 0 3.273743132354642 5.78064078872587 6.88011698885936 0 0 0
344 0 2 0 1.0294942951138593 5.641303894871904 7.470034905756134 0 0 0
343 0 1 0 0.5281193656339198 6.047159145642711 8.168362011950634 0 0 0
337 0 1 0 4.5434713552682195 5.9760707622402185 8.201013759768955 0 0 0
8 0 2 0 6.074797376722653 4.137208233781161 6.519918037811847 0 0 0
9 0 2 0 5.515767438865525 4.446917493593337 5.158905374039128 0 0 0
48 0 2 0 7.71498093507807 4.331166130644676 5.173638769624584 0 0 0
7 0 1 0 6.095790227277207 4.836956068155424 5.848890959999908 0 0 0
136 0 1 0 5.9268509218758725 7.397522405100069 5.594626393437839 0 0 0
138 0 2 0 6.814210968600576 7.402352518317363 5.32149349983459 0 0 0
137 0 2 0 5.765211222358888 6.450282429405247 5.8826582652214086 0 0 0
63 0 2 0 8.412026652766688 5.3712100771073565 7.6206340679048425 0 0 0
61 0 1 0 9.222637624278715 5.456023760990359 7.033729127034172 0 0 0
167 0 2 0 8.732588964723572 6.627926927668713 5.633942420171103 0 0 0
166 0 1 0 8.60245390990659 7.5125986140555225 5.207137807888617 0 0 0
62 0 2 0 9.946353515608154 5.789956226753473 7.558945690510092 0 0 0
339 0 2 0 5.5614741713389755 5.814006605658989 8.324002011787337 0 0 0
53 0 2 0 11.415022349636642 4.011424732526338 4.4929566399998855 0 0 0
43 0 1 0 12.874085297460773 4.337653096718798 5.827765605349004 0 0 0
44 0 2 0 13.599058055917961 4.1717555317145125 5.207631268061051 0 0 0
173 0 2 0 11.987152783326295 7.288130744396497 5.03317471245724 0 0 0
174 0 2 0 13.509320780195285 7.14638239303999 5.449267496901756 0 0 0
45 0 2 0 12.660131648819165 5.268380406779744 6.001327612887815 0 0 0
172 0 1 0 12.61665625546625 7.181509458807109 5.807783530538691 0 0 0
416 0 2 0 14.363710164759262 5.608396711951384 7.880230152463308 0 0 0
81 0 2 0 18.588477792697184 4.597248992475017 4.780889685808768 0 0 0
79 0 1 0 19.337410652966746 4.705113173752554 5.454869872899847 0 0 0
202 0 1 0 15.371788379472822 7.636195533924285 5.326212316044953 0 0 0
99 0 2 0 15.90182616094912 6.051042278546388 6.1563128193216 0 0 0
97 0 1 0 15.93510128105501 5.365147387720042 6.871120687041521 0 0 0
204 0 2 0 15.876881543796097 7.786394567247001 4.5237134088110675 0 0 0
208 0 1 0 19.104441145833526 7.463951925514745 5.60386066604287 0 0 0
80 0 2 0 19.487937129229103 5.639930788758087 5.598013682241697 0 0 0
98 0 2 0 16.547847228874673 5.84429629963677 7.526542996884888 0 0 0
209 0 2 0 18.35652573278736 7.491554535299804 4.990696563964802 0 0 0
435 0 2 0 2.3523545160436994 8.829412056612494 6.154100058566719 0 0 0
433 0 1 0 2.5837753333846245 9.389250645883958 6.925376276128151 0 0 0
434 0 2 0 3.4977450974385995 9.316451633503318 7.21656906446403 0 0 0
135 0 2 0 2.690996289813694 11.14985346921312 6.874247914234273 0 0 0
125 0 2 0 4.345374475465693 10.623547553127894 4.470054929934268 0 0 0
466 0 1 0 5.4022868048390436 9.303310828796654 7.523554668460025 0 0 0
468 0 2 0 5.5507742551607135 8.553805894832788 6.865803546583479 0 0 0
168 0 2 0 8.781129363663604 8.146040035998473 5.934673273141915 0 0 0
469 0 1 0 9.32499060699761 9.28281191149955 7.042849648317445 0 0 0
467 0 2 0 5.468842107450297 10.074961798359505 6.877563609873175 0 0 0
116 0 2 0 6.605033606846926 10.916848307754762 5.006722602570263 0 0 0
115 0 1 0 5.792639286007703 11.236083478843769 5.487340442967695 0 0 0
470 0 2 0 9.244714828350368 10.139979169518641 6.56574158624046 0 0 0
471 0 2 0 10.239615280755991 9.228820270166414 7.34865710625149 0 0 0
502 0 1 0 12.0139889491788 8.854920315551206 7.480174161367636 0 0 0
503 0 2 0 12.277935041263428 8.234173428037531 6.73567148451015 0 0 0
152 0 2 0 11.965506073868644 10.878154649735505 5.153082644422139 0 0 0
504 0 2 0 12.376296927787124 9.726109298670542 7.076009839766507 0 0 0
153 0 2 0 13.518456324443239 10.874308188364415 5.320185915632696 0 0 0
151 0 1 0 12.667972031827404 11.162706943019757 5.766290921902466 0 0 0
203 0 2 0 15.554604415557469 8.444744651752082 5.89805506673029 0 0 0
507 0 2 0 15.403830295034153 8.765551896827137 7.96451765809814 0 0 0
505 0 1 0 15.76665162531856 9.388238023538193 7.301969302290964 0 0 0
210 0 2 0 18.83982129752716 8.033458855453413 6.332357339316335 0 0 0
506 0 2 0 16.674066627534103 9.566887468154839 7.607633648394957 0 0 0
538 0 1 0 18.48727404025177 9.369202737428568 7.65053259777696 0 0 0
539 0 2 0 19.138490958644994 9.288381969459031 8.355236235699033 0 0 0
540 0 2 0 18.777198888861243 10.096689774248388 7.080441904588455 0 0 0
207 0 2 0 15.606778299204894 11.429110943857333 6.840361280338777 0 0 0
189 0 2 0 19.93025599584656 10.998858849666254 5.324184815523136 0 0 0
187 0 1 0 19.092937730016068 11.309058862268628 5.695252483699643 0 0 0
133 0 1 0 2.7209499560337993 12.121051206998704 7.002708364760487 0 0 0
134 0 2 0 3.4821138671436684 12.404686564233744 7.457942307747735 0 0 0
239 0 2 0 1.3583048502743542 13.989576757301494 4.815956475357906 0 0 0
238 0 1 0 2.30519110643386 14.012139682343552 5.100077221165044 0 0 0
240 0 2 0 2.3971438981118522 13.194857135936061 5.695169720343691 0 0 0
453 0 2 0 1.3272391829630263 12.450138598057201 8.130849742831987 0 0 0
542 0 2 0 2.6371625631626445 15.267439064284806 6.577628833324151 0 0 0
543 0 2 0 3.808747786801357 15.787397353457083 7.4334833096070305 0 0 0
541 0 1 0 2.8276991873559894 15.974210727248284 7.193508056646536 0 0 0
489 0 2 0 8.07011449856434 12.488713963095101 7.725418231025146 0 0 0
246 0 2 0 5.4132521861997 14.2768703566098 4.580555462618947 0 0 0
117 0 2 0 5.879073628099442 12.213828417000858 5.519219611491901 0 0 0
244 0 1 0 6.037201713174553 13.906149707768941 5.223940558469576 0 0 0
276 0 2 0 7.630009383560385 14.504614563223528 5.157881660929936 0 0 0
245 0 2 0 5.888286399585071 14.471207245150046 6.00181754978799 0 0 0
169 0 1 0 9.606729405455035 12.10343089414237 6.261697813089092 0 0 0
274 0 1 0 8.562980369354673 14.571378074807575 5.382811149961951 0 0 0
170 0 2 0 9.194364622701642 12.894304715239786 5.856699141434509 0 0 0
575 0 2 0 6.321393420644438 15.842376016228677 7.8729284112060185 0 0 0
574 0 1 0 5.633974187192218 15.814233711516708 7.145652682837071 0 0 0
275 0 2 0 8.696131353200846 15.343005599557577 5.964852762419482 0 0 0
171 0 2 0 10.219530201760733 12.3681934569547 6.960648172883181 0 0 0
281 0 2 0 11.72776429924847 14.064346281706833 4.846006638999944 0 0 0
280 0 1 0 12.539076750422677 13.823379534235702 5.421422482709843 0 0 0
311 0 2 0 14.370839260852005 14.005070971850406 5.04397458297477 0 0 0
282 0 2 0 12.369499112302618 12.854720506152999 5.608668035442345 0 0 0
206 0 2 0 14.867184289337484 12.518829218076728 7.489939116574314 0 0 0
612 0 2 0 12.241299868243152 15.107609370478542 6.742259466119384 0 0 0
610 0 1 0 12.240737542515022 15.832191145940984 7.454707796917245 0 0 0
310 0 1 0 15.300908107832646 14.12594072199566 5.173313261446416 0 0 0
312 0 2 0 15.579103376442383 13.311253224930681 5.57198797816824 0 0 0
205 0 1 0 15.71259834376582 12.386118597925313 7.078748349246263 0 0 0
188 0 2 0 19.022129202725182 12.263878016924487 5.569452594972601 0 0 0
518 0 2 0 17.184706913209453 12.749757028025323 7.969281131441201 0 0 0
316 0 1 0 19.508836882764854 14.115458332966387 4.96922696150437 0 0 0
317 0 2 0 19.331478493842795 14.6986682214849 5.749309177470244 0 0 0
614 0 2 0 15.979055645825337 15.29918643044098 6.294770541131199 0 0 0
646 0 1 0 18.75157688389028 15.908409378443448 7.138363818833324 0 0 0
647 0 2 0 17.783876614974226 15.8055081816903 7.160861111382922 0 0 0
613 0 1 0 16.15861299749946 15.962915575011046 6.976452992684403 0 0 0
648 0 2 0 19.21170440392943 15.862655990748781 8.006294404834609 0 0 0
241 0 1 0 2.731730542450515 18.76868566194373 6.399837456808769 0 0 0
243 0 2 0 3.5244322759633127 18.841258060467556 6.935676979546222 0 0 0
560 0 2 0 1.5777331083763553 19.049616926994474 7.954125002720121 0 0 0
242 0 2 0 2.538589546928759 17.807870625225558 6.356155474242489 0 0 0
553 0 1 0 4.447467657020773 19.640920206395716 8.374193945205105 0 0 0
30 0 2 0 6.031756903392121 19.800755445935078 5.581720056925879 0 -1 0
224 0 2 0 5.246683350747922 17.60338089770842 4.85058085123524 0 0 0
225 0 2 0 6.771690020308221 17.855822014270856 5.2285437718991 0 0 0
576 0 2 0 5.726699811067086 16.698143956045257 6.660134739978103 0 0 0
223 0 1 0 5.846204590962616 17.980636289342232 5.552590705482699 0 0 0
578 0 2 0 8.877406326725046 16.14103124294233 7.739248194660934 0 0 0
577 0 1 0 9.63958415406414 16.34109001843152 7.148972964589498 0 0 0
278 0 2 0 8.436520268553151 19.088241460240088 7.33202127764924 0 0 0
277 0 1 0 9.282698974715613 19.045598191199556 6.834024958651463 0 0 0
579 0 2 0 9.45868800578242 17.288394974612114 6.936961566286137 0 0 0
279 0 2 0 9.967683625056784 19.104800287992557 7.5499105760377 0 0 0
270 0 2 0 11.63906337752892 17.582355190420763 4.601356891162778 0 0 0
611 0 2 0 11.357104901702357 16.10523220450261 7.774922244522513 0 0 0
261 0 2 0 13.048232246899174 17.545562537166767 6.612315825872754 0 0 0
259 0 1 0 13.157199086525058 18.024934005886436 5.770815036617467 0 0 0
299 0 2 0 14.508657315456727 17.716252451918418 4.7027166536153935 0 0 0
260 0 2 0 13.108426714462489 18.975102340362614 5.90125066662816 0 0 0
297 0 2 0 19.797885808531014 17.714916354104897 4.930638155168603 0 0 0
315 0 2 0 15.176534018422323 18.83345762772114 7.551133498412811 0 0 0
313 0 1 0 15.796437365837253 18.53602772776361 6.883587566247976 0 0 0
314 0 2 0 15.755053664442938 19.274818658776436 6.236143786090921 0 0 0
615 0 2 0 15.950679091656013 16.85881008548761 6.784374667863158 0 0 0
102 0 2 0 19.434584384126225 19.82159397273019 5.335878679048083 0 -1 0
295 0 1 0 19.109950674772534 18.00439061130889 5.567611546969296 0 0 0
296 0 2 0 18.986739889010565 17.290463157147904 6.217479638465113 0 0 0
627 0 2 0 17.465028778204406 18.86460254446771 7.444519099473776 0 0 0
626 0 2 0 18.938744384170207 19.270448963374594 8.085665499454272 0 0 0
625 0 1 0 17.961494131035906 19.141197059286938 8.235752750812328 0 0 0
355 0 1 0 1.121000974936213 1.9115725502533896 8.552192025562443 0 0 0
335 0 2 0 0.9017493864931586 3.630649316734578 9.556926607961579 0 0 0
346 0 1 0 2.07880568815236 0.840185706948105 11.685815618960882 0 0 0
347 0 2 0 2.6552502217295966 1.1965905577220095 11.021227971414763 0 0 0
348 0 2 0 1.1870516615479836 1.0646465298801744 11.466273034657421 0 0 0
328 0 1 0 4.165091547003377 1.7040800921201662 9.961734226780198 0 0 0
330 0 2 0 4.052432166561332 2.7028223286162953 10.120306557303808 0 0 0
329 0 2 0 4.750988686696981 1.4974677197318491 10.71111847093416 0 0 0
561 0 2 0 0.9646111014673969 0.30360859460849693 8.490306927679066 0 1 0
554 0 2 0 4.1634798900319865 0.45040785762626356 8.574013040696267 0 1 0
392 0 2 0 8.57055783772126 2.097395582310704 8.651023721647771 0 0 0
354 0 2 0 6.3822632132426635 0.6446208354864477 11.915686365375775 0 0 0
352 0 1 0 5.429485515272438 0.8953805915187658 12.079593373311798 0 0 0
391 0 1 0 7.797721996244921 1.7850449092832832 9.199612499240429 0 0 0
393 0 2 0 7.8107213858569535 0.8304723430743339 9.257420569726579 0 0 0
372 0 2 0 7.910804972602946 3.186671972594936 10.267431753835755 0 0 0
382 0 1 0 8.267744811944679 0.5786077653086644 11.90378914262841 0 0 0
366 0 2 0 9.764514526046518 1.1407357605510922 10.895827690606573 0 0 0
395 0 2 0 13.041833328610469 2.4470238976296703 8.396020978198283 0 0 0
378 0 2 0 10.888762490836397 3.0582739039978146 10.294011729443842 0 0 0
364 0 1 0 10.499369719736572 1.3996493559678962 10.316280094982304 0 0 0
365 0 2 0 11.2390084094431 1.283917572957933 10.973884067013305 0 0 0
427 0 1 0 14.411568796999894 2.0630829518956655 9.35088560289746 0 0 0
428 0 2 0 14.569344842393267 2.7761838512493067 10.039115160934063 0 0 0
389 0 2 0 13.142834595685887 1.055746700104437 11.7432550813822 0 0 0
388 0 1 0 12.23657281752951 0.8515373457885126 12.097482648713015 0 0 0
632 0 2 0 14.304840744364345 0.3061579680970363 9.319941587056874 0 1 0
591 0 2 0 10.768115399932405 0.15695989343817404 9.155254399254506 0 1 0
429 0 2 0 15.013664948782035 2.2175567546408996 8.611571429250628 0 0 0
418 0 1 0 15.001910981226201 0.8035799565475009 11.900386925704593 0 0 0
419 0 2 0 15.18694612438118 -0.05171418550776358 12.310145644975398 0 0 0
401 0 2 0 17.291023197514534 0.39130530274089176 9.441799139552385 0 0 0
400 0 1 0 17.185521499254648 1.0655182441689435 10.157536548016159 0 0 0
414 0 2 0 17.685856897732926 2.9895583620783945 10.023641814052615 0 0 0
402 0 2 0 16.432608412023193 0.829113729185286 10.737389741930691 0 0 0
426 0 2 0 18.613940027321576 0.8407751996403824 11.317725875248936 0 0 0
412 0 1 0 17.507465505386897 3.8673124444608376 10.372829517561588 0 0 0