LAMMPS (23 Jun 2022)
echo both

include		in.partitions
variable        pid world 0
include		in.temp
variable        temperature equal 265
variable        tempDamp equal 0.100 # this is 0.1 ps
include		in.pressure
variable        pressure equal 6079.5
variable        pressureDamp equal 1.0 #this is 1ps
include		in.seed
variable        seed world 745823

units           metal
atom_style	full
include		in.box
read_data       iceIII.data
Reading data file ...
  orthogonal box = (0 0 0) to (19.991053 19.991053 20.800772)
  1 by 1 by 1 MPI processor grid
  reading atoms ...
  972 atoms
Finding 1-2 1-3 1-4 neighbors ...
  special bond factors lj:    0        0        0       
  special bond factors coul:  0        0        0       
     0 = max # of 1-2 neighbors
     0 = max # of 1-3 neighbors
     0 = max # of 1-4 neighbors
     1 = max # of special neighbors
  special bonds CPU = 0.000 seconds
  read_data CPU = 0.008 seconds
include 	in.setup
variable	out_freq equal 500
variable	out_freq2 equal 500

timestep        0.0005

neigh_modify    delay 7 every 1

include         in.deepmd
# This is deepMD model

# create groups ###
#group ox type 2
#group hy type 1

mass 2 15.999
mass 1 1.008

pair_style      deepmd ../graph.pb
Summary of lammps deepmd module ...
  >>> Info of deepmd-kit:
  installed to:       /u/sigbjobo/software/DEEPMD_FROM_SOURCE/deepmd-kit/install
  source:             v2.1.3
  source branch:       master
  source commit:      5a32c49
  source commit at:   2022-07-01 09:52:58 +0800
  surpport model ver.:1.1 
  build float prec:   double
  build with tf inc:  /u/sigbjobo/software/DEEPMD_FROM_SOURCE/tensorflow/install/include;/u/sigbjobo/software/DEEPMD_FROM_SOURCE/tensorflow/install/include
  build with tf lib:  /u/sigbjobo/software/DEEPMD_FROM_SOURCE/tensorflow/install/lib/libtensorflow_cc.so;/u/sigbjobo/software/DEEPMD_FROM_SOURCE/tensorflow/install/lib/libtensorflow_framework.so
  set tf intra_op_parallelism_threads: 0
  set tf inter_op_parallelism_threads: 115
  >>> Info of lammps module:
  use deepmd-kit at:  /u/sigbjobo/software/DEEPMD_FROM_SOURCE/deepmd-kit/install
  source:             v2.1.3
  source branch:      master
  source commit:      5a32c49
  source commit at:   2022-07-01 09:52:58 +0800
  build float prec:   double
  build with tf inc:  /u/sigbjobo/software/DEEPMD_FROM_SOURCE/tensorflow/install/include;/u/sigbjobo/software/DEEPMD_FROM_SOURCE/tensorflow/install/include
  build with tf lib:  /u/sigbjobo/software/DEEPMD_FROM_SOURCE/tensorflow/install/lib/libtensorflow_cc.so;/u/sigbjobo/software/DEEPMD_FROM_SOURCE/tensorflow/install/lib/libtensorflow_framework.so
pair_coeff      * *

bond_style      none
angle_style     none
dihedral_style  none
improper_style  none
neigh_modify exclude none


neighbor        2.0 bin
neigh_modify    every 10 delay 0 check no

thermo          ${out_freq}
thermo          500
thermo_style 	custom step temp pe etotal epair emol press lx ly lz xy xz yz vol pxx pyy pzz pxy pxz pyz cella cellb cellc cellalpha cellbeta cellgamma

restart 	${out_freq} restart.lmp.${pid} restart2.lmp.${pid}
restart 	500 restart.lmp.${pid} restart2.lmp.${pid}
restart 	500 restart.lmp.0 restart2.lmp.${pid}
restart 	500 restart.lmp.0 restart2.lmp.0


include         in.dump
dump            myDump all atom ${out_freq2} dump.water.${pid}
dump            myDump all atom 500 dump.water.${pid}
dump            myDump all atom 500 dump.water.0
dump            myDump2 all dcd ${out_freq2} dump.dcd
dump            myDump2 all dcd 500 dump.dcd
dump_modify     myDump append yes
dump_modify     myDump2 append yes


timer           timeout 04:55:00 every 1000
New timer settings: style=normal  mode=nosync  timeout=04:55:00

fix             2 all nph aniso ${pressure} ${pressure} ${pressureDamp}
fix             2 all nph aniso 6079.5 ${pressure} ${pressureDamp}
fix             2 all nph aniso 6079.5 6079.5 ${pressureDamp}
fix             2 all nph aniso 6079.5 6079.5 1
fix             3 all temp/csvr ${temperature} ${temperature} ${tempDamp} ${seed}
fix             3 all temp/csvr 265 ${temperature} ${tempDamp} ${seed}
fix             3 all temp/csvr 265 265 ${tempDamp} ${seed}
fix             3 all temp/csvr 265 265 0.1 ${seed}
fix             3 all temp/csvr 265 265 0.1 745823
velocity 	all create ${temperature} ${seed} dist gaussian
velocity 	all create 265 ${seed} dist gaussian
velocity 	all create 265 745823 dist gaussian

run             400000

CITE-CITE-CITE-CITE-CITE-CITE-CITE-CITE-CITE-CITE-CITE-CITE-CITE

Your simulation uses code contributions which should be cited:

- USER-DEEPMD package:

@article{Wang_ComputPhysCommun_2018_v228_p178,
  author = {Wang, Han and Zhang, Linfeng and Han, Jiequn and E, Weinan},
  doi = {10.1016/j.cpc.2018.03.016},
  url = {https://doi.org/10.1016/j.cpc.2018.03.016},
  year = 2018,
  month = {jul},
  publisher = {Elsevier {BV}},
  volume = 228,
  journal = {Comput. Phys. Commun.},
  title = {{DeePMD-kit: A deep learning package for many-body potential energy representation and molecular dynamics}},
  pages = {178--184}
}

CITE-CITE-CITE-CITE-CITE-CITE-CITE-CITE-CITE-CITE-CITE-CITE-CITE

Generated 0 of 1 mixed pair_coeff terms from geometric mixing rule
Neighbor list info ...
  update every 10 steps, delay 0 steps, check no
  max neighbors/atom: 2000, page size: 100000
  master list distance cutoff = 8
  ghost atom cutoff = 8
  binsize = 4, bins = 5 5 6
  1 neighbor lists, perpetual/occasional/extra = 1 0 0
  (1) pair deepmd, perpetual
      attributes: full, newton on
      pair build: full/bin
      stencil: full/bin/3d
      bin: standard
Per MPI rank memory allocation (min/avg/max) = 7.648 | 7.648 | 7.648 Mbytes
   Step          Temp          PotEng         TotEng         E_pair         E_mol          Press            Lx             Ly             Lz             Xy             Xz             Yz           Volume          Pxx            Pyy            Pzz            Pxy            Pxz            Pyz           Cella          Cellb          Cellc        CellAlpha       CellBeta      CellGamma   
         0   265           -175.65013     -142.38956     -175.65013      0              37792.124      19.991053      19.991053      20.800772      0              0              0              8312.8663      41560.269      42048.299      29767.804     -62.884948     -1050.0672     -451.78328      19.991053      19.991053      20.800772      90             90             90           
       500   263.63362     -161.48431     -128.39523     -161.48431      0              3596.156       19.841414      19.752841      20.329477      0              0              0              7967.6158      4244.484       4596.0043      1947.9795     -208.09302     -737.16314     -1338.9283      19.841414      19.752841      20.329477      90             90             90           
      1000   272.46365     -160.25511     -126.05776     -160.25511      0              2908.2702      19.981431      19.888827      20.175374      0              0              0              8017.8392      3020.7348      3211.2848      2492.7909     -1771.4891      332.08662     -977.86551      19.981431      19.888827      20.175374      90             90             90           
      1500   255.74801     -160.03114     -127.9318      -160.03114      0              12818.62       20.111481      20.005331      20.167802      0              0              0              8114.2498      9826.6354      15983.495      12645.729      585.84348      1810.9244     -1047.8954      20.111481      20.005331      20.167802      90             90             90           
      2000   258.23274     -157.82128     -125.41007     -157.82128      0             -1326.0911      20.056241      19.969281      20.154286      0              0              0              8071.9672      866.34999     -1841.6776     -3002.9456     -802.66326     -739.59709      772.3718       20.056241      19.969281      20.154286      90             90             90           
      2500   271.76062     -158.30559     -124.19648     -158.30559      0              8746.7437      19.835385      20.016002      20.256546      0              0              0              8042.3573      11857.064      3818.3616      10564.805      1096.7446      213.34484      582.49648      19.835385      20.016002      20.256546      90             90             90           
      3000   257.79854     -157.13561     -124.77891     -157.13561      0              10027.135      19.822346      20.064323      20.422132      0              0              0              8122.3302      13316.006      10922.583      5842.8147     -382.38926     -1000.0114      798.03652      19.822346      20.064323      20.422132      90             90             90           
      3500   252.02088     -157.09226     -125.46071     -157.09226      0              2819.509       20.004015      19.901246      20.327644      0              0              0              8092.5329      1428.3376      2530.7598      4499.4298      635.85309      1767.326      -1588.4141      20.004015      19.901246      20.327644      90             90             90           
      4000   272.41661     -160.44269     -126.25124     -160.44269      0              4949.7484      20.141558      19.852079      20.21154       0              0              0              8081.6205      5217.3929      2406.2578      7225.5945      738.16043      1038.6713      232.26011      20.141558      19.852079      20.21154       90             90             90           
      4500   266.52845     -159.5773      -126.12488     -159.5773       0              8837.8217      20.041817      19.983004      20.126504      0              0              0              8060.5783      10430.664      6225.7878      9857.0136     -1247.7834      1720.3614     -1462.1484      20.041817      19.983004      20.126504      90             90             90           
      5000   265.85465     -159.12974     -125.7619      -159.12974      0              5086.703       19.894161      20.109848      20.150673      0              0              0              8061.6506      7935.1385      2270.5427      5054.428      -463.21946      540.39631      2435.6027      19.894161      20.109848      20.150673      90             90             90           
      5500   258.51909     -159.80002     -127.35288     -159.80002      0              9095.2072      19.894763      20.108992      20.340635      0              0              0              8137.548       11918.778      5916.9244      9449.9195      534.57849      1730.4876     -2651.4477      19.894763      20.108992      20.340635      90             90             90           
      6000   262.51316     -158.43477     -125.48632     -158.43477      0              8141.0868      19.953458      19.797123      20.410842      0              0              0              8062.7123      5932.3731      12426.021      6064.8659      730.95542     -2389.1994     -1324.132       19.953458      19.797123      20.410842      90             90             90           
      6500   256.47474     -159.22872     -127.03817     -159.22872      0              5947.5683      20.032112      19.773648      20.333439      0              0              0              8054.2366      5718.7084      7109.3391      5014.6573      985.2817       854.44591      2940.8006      20.032112      19.773648      20.333439      90             90             90           
      7000   265.55608     -157.92132     -124.59095     -157.92132      0              4494.632       20.084228      20.148685      20.208675      0              0              0              8177.8603      4999.8828      1675.2962      6808.717       337.10909      739.92499     -2314.6684      20.084228      20.148685      20.208675      90             90             90           
      7500   270.39057     -158.03714     -124.09999     -158.03714      0              6727.5885      19.956879      20.210199      19.97525       0              0              0              8056.6678      4173.9806      10048.327      5960.458       1110.4798     -383.00611      2080.9044      19.956879      20.210199      19.97525       90             90             90           
      8000   263.15331     -158.71378     -125.68498     -158.71378      0              4570.8152      20.05039       20.028254      20.140163      0              0              0              8087.7721      4979.7528      4272.3937      4460.299       506.57346      2272.1603      1153.8012      20.05039       20.028254      20.140163      90             90             90           
      8500   262.36151     -159.98557     -127.05615     -159.98557      0              6103.6376      20.063896      19.812549      20.345443      0              0              0              8087.6579      7556.148       6863.5502      3891.2146     -546.1148       1226.1307     -878.32868      20.063896      19.812549      20.345443      90             90             90           
      9000   268.58609     -157.89062     -124.17995     -157.89062      0              4485.4009      20.04308       19.845935      20.45105       0              0              0              8134.8894      3958.9435      4823.346       4673.9133      1014.548       396.31203      436.66512      20.04308       19.845935      20.45105       90             90             90           
      9500   265.0483      -157.62193     -124.3553      -157.62193      0              6430.3975      19.966793      19.937625      20.335437      0              0              0              8095.3426      6195.7244      7075.0088      6020.4593     -418.43012      671.43316      2653.3255      19.966793      19.937625      20.335437      90             90             90           
     10000   283.30926     -159.13482     -123.57622     -159.13482      0              7731.3183      19.964628      20.056575      20.212294      0              0              0              8093.4485      3549.4302      11814.524      7830.001       823.69438     -598.38203     -109.62815      19.964628      20.056575      20.212294      90             90             90           
     10500   274.33424     -156.4953      -122.06317     -156.4953       0              3172.009       20.144945      20.094116      20.173077      0              0              0              8165.9581      1743.535       6278.8532      1493.6388      278.73041     -807.20379      910.20376      20.144945      20.094116      20.173077      90             90             90           
     11000   267.13171     -158.01784     -124.48971     -158.01784      0              7276.2471      20.060202      19.929991      20.135289      0              0              0              8050.0815      9170.1319      3800.547       8858.0624     -1290.6626     -1554.7267      2347.104       20.060202      19.929991      20.135289      90             90             90           
     11500   264.97842     -159.40429     -126.14642     -159.40429      0              3424.7683      20.008746      19.996868      20.464456      0              0              0              8188.0797      8351.128      -1162.5721      3085.7491      304.80872      703.09883     -792.62745      20.008746      19.996868      20.464456      90             90             90           
     12000   271.48039     -157.9735      -123.89956     -157.9735       0              10496.13       19.831932      19.847493      20.46987       0              0              0              8057.23        12497.653      10618.913      8371.8234      552.16012     -3277.9665     -1641.0297      19.831932      19.847493      20.46987       90             90             90           
     12500   264.98806     -157.83102     -124.57195     -157.83102      0              3280.3311      19.988502      20.079566      20.455342      0              0              0              8209.965       2339.2229      4906.5254      2595.2449     -1373.8048     -650.75302      1358.4274      19.988502      20.079566      20.455342      90             90             90           
     13000   280.01658     -158.1124      -122.96707     -158.1124       0              7839.8366      20.020714      20.128706      20.027417      0              0              0              8070.8702      6863.6162      6922.3938      9733.4999     -75.367019     -134.78798     -224.34442      20.020714      20.128706      20.027417      90             90             90           
     13500   263.77178     -158.85727     -125.75085     -158.85727      0              3128.2343      20.134494      20.152276      19.963692      0              0              0              8100.3853     -178.5118       3363.9892      6199.2254      393.39894      36.306708      1905.7217      20.134494      20.152276      19.963692      90             90             90           
     14000   262.73218     -159.62078     -126.64484     -159.62078      0              6834.4972      20.065364      19.969084      20.191274      0              0              0              8090.3797      7958.2735      5372.5178      7172.7003     -651.69212      3.5172966      131.37804      20.065364      19.969084      20.191274      90             90             90           
     14500   244.66251     -158.25693     -127.54895     -158.25693      0              7409.9284      19.968951      19.805106      20.424755      0              0              0              8077.7287      9538.1973      7185.7015      5505.8863     -1099.8922      946.15182     -200.53025      19.968951      19.805106      20.424755      90             90             90           
     15000   264.62469     -157.94269     -124.72922     -157.94269      0              3881.6317      19.977313      19.830995      20.442329      0              0              0              8098.6373      8154.6132      197.9538       3292.3281     -1298.1333      828.41871     -278.57691      19.977313      19.830995      20.442329      90             90             90           
     15500   267.22036     -158.70866     -125.16941     -158.70866      0              4909.3235      20.009654      19.87185       20.237506      0              0              0              8047.0159      5819.2169      1127.4187      7781.3349     -1092.3429     -265.12393      641.3673       20.009654      19.87185       20.237506      90             90             90           
     16000   271.60762     -159.28019     -125.19028     -159.28019      0              3165.4097      20.162114      20.0092        20.22759       0              0              0              8160.3714      1311.5583      4070.9206      4113.7504      1851.5142     -1258.7772      2575.564       20.162114      20.0092        20.22759       90             90             90           
     16500   271.16035     -158.82827     -124.7945      -158.82827      0              2956.0842      20.0524        20.044096      20.20334       0              0              0              8120.3736      1236.1277      1152.516       6479.6088      419.90586     -2398.1789     -1791.8387      20.0524        20.044096      20.20334       90             90             90           
     17000   272.8615      -159.36024     -125.11296     -159.36024      0              5357.7814      19.832115      20.021136      20.23421       0              0              0              8034.2249      5748.0346      3563.4665      6761.8431      936.37421      522.66549      1247.605       19.832115      20.021136      20.23421       90             90             90           
     17500   262.80969     -158.01519     -125.02952     -158.01519      0              5919.6931      19.893506      20.111814      20.403458      0              0              0              8163.3112      5779.9122      3748.9282      8230.2389      1094.1477      486.20529      2907.19        19.893506      20.111814      20.403458      90             90             90           
     18000   258.21499     -159.43429     -127.02531     -159.43429      0              4694.8549      20.047618      19.97399       20.347918      0              0              0              8147.9354      1727.7424      6886.9763      5469.846       320.47187     -661.40297     -879.57455      20.047618      19.97399       20.347918      90             90             90           
     18500   264.05472     -159.2877      -126.14577     -159.2877       0              3801.7534      20.137313      19.801002      20.133745      0              0              0              8028.1086      1813.4345      5609.3085      3982.5172      1677.8175      1062.1701      845.56477      20.137313      19.801002      20.133745      90             90             90           
     19000   259.30624     -158.37034     -125.8244      -158.37034      0              8905.9596      20.167547      19.893586      20.218529      0              0              0              8111.7716      6574.0524      13833.669      6310.158      -541.66438      3423.0253      118.89123      20.167547      19.893586      20.218529      90             90             90           
     19500   257.61757     -157.71563     -125.38163     -157.71563      0              5526.0625      19.988054      20.035992      20.295348      0              0              0              8127.8906      1934.6339      7517.1449      7126.4086     -755.86448     -1298.4195     -410.18628      19.988054      20.035992      20.295348      90             90             90           
     20000   260.08189     -159.59593     -126.95264     -159.59593      0              6677.7252      19.816974      20.083475      20.262163      0              0              0              8064.2131      6248.1166      5298.2908      8486.7681      384.66991      1067.1163     -538.99492      19.816974      20.083475      20.262163      90             90             90           
     20500   258.64947     -159.10805     -126.64454     -159.10805      0              6256.9823      19.948576      20.048064      20.248408      0              0              0              8097.9525      4466.6069      7945.3876      6358.9522     -396.96921     -1728.6515     -1497.9003      19.948576      20.048064      20.248408      90             90             90           
     21000   253.1214      -158.16029     -126.39062     -158.16029      0              5502.3794      20.085963      19.959462      20.273387      0              0              0              8127.7027      2549.2833      9399.2706      4558.5843      431.75047      115.04532      1024.5022      20.085963      19.959462      20.273387      90             90             90           
     21500   251.14765     -159.28508     -127.76313     -159.28508      0              6211.7106      20.064231      19.826139      20.177327      0              0              0              8026.4646      3291.466       6919.2441      8424.4216      724.38961      994.30624     -270.39141      20.064231      19.826139      20.177327      90             90             90           
     22000   258.35747     -158.31872     -125.89186     -158.31872      0              6577.6357      20.118414      19.98506       20.251784      0              0              0              8142.5884      6477.0463      8458.5259      4797.3348     -1068.6926     -841.96581      1828.9451      20.118414      19.98506       20.251784      90             90             90           
     22500   264.40999     -158.8922      -125.70568     -158.8922       0              6000.149       20.006062      20.005919      20.31131       0              0              0              8129.3918      8498.9708      5259.7272      4241.7492     -970.90686      211.83751      2583.3748      20.006062      20.005919      20.31131       90             90             90           
     23000   259.23785     -159.90521     -127.36785     -159.90521      0              11160.202      19.919558      19.914202      20.357129      0              0              0              8075.3088      12688.217      6809.5481      13982.839     -1441.4409     -1079.2676      816.07986      19.919558      19.914202      20.357129      90             90             90           
     23500   258.29958     -158.10509     -125.68549     -158.10509      0              3928.8026      20.010748      19.968147      20.347188      0              0              0              8130.2796      5655.0578      3040.3181      3091.0319      1153.5165     -336.00996      801.50783      20.010748      19.968147      20.347188      90             90             90           
     24000   279.92147     -158.022       -122.88861     -158.022        0              7931.4492      19.950167      20.027412      20.084845      0              0              0              8024.9041      7538.8222      6131.1763      10124.349      239.05951      140.12195      1456.5368      19.950167      20.027412      20.084845      90             90             90           
     24500   268.44733     -158.22554     -124.53228     -158.22554      0              6797.7684      20.112315      20.166274      20.023446      0              0              0              8121.3187      6336.4689      4894.4489      9162.3872     -332.43842      606.61603     -343.56714      20.112315      20.166274      20.023446      90             90             90           
     25000   256.97098     -156.1621      -123.90926     -156.1621       0              5557.2469      20.152833      19.919914      20.198701      0              0              0              8108.621       2639.7437      8314.9783      5717.0188     -1436.3962      1696.0234     -215.97653      20.152833      19.919914      20.198701      90             90             90           
     25500   266.36126     -157.42837     -123.99694     -157.42837      0              2397.9116      20.077219      19.713746      20.597084      0              0              0              8152.2682      2905.563       3202.2475      1085.9241      1518.5813     -976.16159      2887.0317      20.077219      19.713746      20.597084      90             90             90           
     26000   269.14201     -157.79174     -124.01129     -157.79174      0              6289.3572      19.937333      19.742151      20.632658      0              0              0              8121.1352      4060.3783      8770.0503      6037.6431      1154.6065     -2065.8549      1219.0092      19.937333      19.742151      20.632658      90             90             90           
     26500   264.76125     -159.18261     -125.952       -159.18261      0              5801.9081      19.92903       19.993477      20.350679      0              0              0              8108.7406      7246.4286      5405.1498      4754.1461     -1466.5461     -15.575002      1382.4846      19.92903       19.993477      20.350679      90             90             90           
     27000   264.45234     -156.49722     -123.30539     -156.49722      0              3570.2561      20.024439      20.133714      20.132149      0              0              0              8116.6047      4487.443       3355.369       2867.9562      289.51893     -2201.5937     -1648.2518      20.024439      20.133714      20.132149      90             90             90           
     27500   271.61984     -159.07958     -124.98814     -159.07958      0              8476.5224      20.041455      20.057971      20.068572      0              0              0              8067.3836      8678.0014      8860.037       7891.5288     -2053.7028      2595.9229      848.75067      20.041455      20.057971      20.068572      90             90             90           
     28000   266.3788      -159.97933     -126.5457      -159.97933      0              4110.8914      20.09967       20.086406      20.253906      0              0              0              8177.1122      3378.3322      2338.4992      6615.8428     -1168.7488     -1410.5486     -1016.1484      20.09967       20.086406      20.253906      90             90             90           
     28500   272.01193     -158.43771     -124.29706     -158.43771      0              7503.3121      19.97261       19.85828       20.266429      0              0              0              8038.1052      4987.5404      8382.8159      9139.5799     -388.91997      3963.1036     -1182.4107      19.97261       19.85828       20.266429      90             90             90           
     29000   277.35086     -160.01102     -125.20027     -160.01102      0              6109.9818      19.962743      19.95337       20.449142      0              0              0              8145.3839      4228.9347      8478.4852      5622.5254      139.15525     -517.90269     -511.11158      19.962743      19.95337       20.449142      90             90             90           
     29500   273.15744     -158.33745     -124.05303     -158.33745      0              4471.4677      19.970575      20.023038      20.41675       0              0              0              8164.078       4645.7901      2130.9039      6637.7091      123.5883      -176.09668      1311.177       19.970575      20.023038      20.41675       90             90             90           
     30000   282.77228     -157.46699     -121.97579     -157.46699      0              6616.5622      19.984633      20.02587       20.212288      0              0              0              8089.1529      8265.2607      5261.6205      6322.8054     -228.54157     -648.79258     -42.703903      19.984633      20.02587       20.212288      90             90             90           
     30500   273.58644     -158.14285     -123.80458     -158.14285      0              8090.05        20.117863      20.096501      20.052852      0              0              0              8107.3408      6176.6292      8600.5906      9492.9302     -935.05883      1344.5554      54.429324      20.117863      20.096501      20.052852      90             90             90           
     31000   279.28292     -158.46176     -123.40851     -158.46176      0              5877.5562      20.142159      20.133388      20.087807      0              0              0              8146.2063      8060.4334      5431.2926      4140.9425     -123.9005       85.189408     -2377.0709      20.142159      20.133388      20.087807      90             90             90           
     31500   272.17637     -158.54899     -124.3877      -158.54899      0              10041.974      19.930721      19.899985      20.272917      0              0              0              8040.6658      9268.1834      11205.566      9652.1715     -825.66769     -1597.1076     -1682.2143      19.930721      19.899985      20.272917      90             90             90           
     32000   270.57699     -159.63377     -125.67321     -159.63377      0              5877.0034      19.956352      19.770458      20.684853      0              0              0              8161.1306      6108.7446      7353.8909      4168.3746      406.39262     -703.08345     -2043.3679      19.956352      19.770458      20.684853      90             90             90           
     32500   262.18082     -157.10104     -124.1943      -157.10104      0              5748.6037      19.988291      19.714893      20.677774      0              0              0              8148.4288      8935.3517      6573.0135      1737.4459     -1617.7879     -867.49533     -728.74544      19.988291      19.714893      20.677774      90             90             90           
     33000   263.38775     -156.75935     -123.70114     -156.75935      0              6749.175       20.038923      19.849134      20.20502       0              0              0              8036.6534      5802.8621      8120.4797      6324.1834      932.84314      1756.8629     -2667.5434      20.038923      19.849134      20.20502       90             90             90           
     33500   252.42008     -157.27914     -125.59749     -157.27914      0              4730.7275      20.147377      20.214145      19.97496       0              0              0              8135.0422      5692.1992      5095.4839      3404.4994      39.165168      69.986763     -134.22117      20.147377      20.214145      19.97496       90             90             90           
     34000   262.17827     -160.1809      -127.27448     -160.1809       0              4533.7459      19.997513      20.26696       19.995863      0              0              0              8104.0992      3132.6613      4413.8745      6054.7017      1768.706       106.99984     -2003.3557      19.997513      20.26696       19.995863      90             90             90           
     34500   254.81813     -159.89841     -127.91577     -159.89841      0              3590.2702      19.861808      20.037134      20.232257      0              0              0              8051.9063      3042.0032      4018.6055      3710.202       1261.991       629.87154      1302.8865      19.861808      20.037134      20.232257      90             90             90           
     35000   256.74135     -160.58053     -128.35651     -160.58053      0              6006.2346      19.904354      19.889491      20.46114       0              0              0              8100.309       6605.123       2895.0137      8518.567       658.37441      2600.5076      1248.4505      19.904354      19.889491      20.46114       90             90             90           
     35500   257.9877      -159.50187     -127.12142     -159.50187      0              4554.7423      20.010689      19.864956      20.480251      0              0              0              8141.1344      6977.1425      5575.4599      1111.6246     -886.81797     -750.66202      232.11474      20.010689      19.864956      20.480251      90             90             90           
     36000   272.05771     -159.97005     -125.82365     -159.97005      0              3398.833       20.080844      19.859555      20.271207      0              0              0              8084.0889      3448.3967      21.857024      6726.2452      1274.1808     -68.692408      3108.9691      20.080844      19.859555      20.271207      90             90             90           
     36500   265.8942      -158.664       -125.29119     -158.664        0              7093.5427      20.085927      19.943739      20.240142      0              0              0              8107.9678      7727.9612      8263.5997      5289.0672     -359.87526      2901.0243     -2322.3268      20.085927      19.943739      20.240142      90             90             90           
     37000   262.403       -158.30776     -125.37314     -158.30776      0              8280.8157      20.056205      20.005342      20.285503      0              0              0              8139.1774      7427.9252      8493.3869      8921.1349     -1280.1714     -3391.7711     -2859.6111      20.056205      20.005342      20.285503      90             90             90           
     37500   261.26349     -158.87644     -126.08484     -158.87644      0              5906.2579      19.939098      19.974687      20.321778      0              0              0              8093.7018      7824.744       2363.5345      7530.4953     -1376.6612     -82.996803      471.67626      19.939098      19.974687      20.321778      90             90             90           
     38000   275.95419     -158.91798     -124.28253     -158.91798      0              6977.7547      19.896988      19.99231       20.250601      0              0              0              8055.4209      7546.2273      9444.3618      3942.6749      1044.798      -562.26268      1314.2677      19.896988      19.99231       20.250601      90             90             90           
     38500   267.83574     -158.94653     -125.33004     -158.94653      0              3666.3481      20.101819      20.258229      20.317098      0              0              0              8273.676       3295.8575      4297.4639      3405.7228      829.20186      1846.55       -1905.7718      20.101819      20.258229      20.317098      90             90             90           
     39000   270.06608     -159.58729     -125.69087     -159.58729      0              9500.0923      19.989813      19.992495      19.98857       0              0              0              7988.3569      12205.672      6092.404       10202.201     -997.11138     -1963.3704      648.34076      19.989813      19.992495      19.98857       90             90             90           
     39500   260.38618     -157.70618     -125.02469     -157.70618      0              4976.4751      20.167365      19.920594      20.123234      0              0              0              8084.4263      6800.359       3614.5217      4514.5447     -710.44145      2383.9802      1257.5252      20.167365      19.920594      20.123234      90             90             90           
     40000   260.33635     -158.64375     -125.96852     -158.64375      0              4520.5298      20.125626      19.952045      20.345692      0              0              0              8169.7597      3870.4211      5698.1998      3992.9685     -1955.8867     -1982.6025      1867.6947      20.125626      19.952045      20.345692      90             90             90           
     40500   263.37101     -159.34042     -126.2843      -159.34042      0              6885.3257      19.940359      19.972334      20.383713      0              0              0              8117.9258      8996.5666      5682.4892      5976.9214      1961.6791     -359.22051     -1266.3853      19.940359      19.972334      20.383713      90             90             90           
     41000   260.80892     -159.24613     -126.51159     -159.24613      0              6403.0116      19.899618      19.937894      20.278837      0              0              0              8045.7598      5500.0875      9917.4261      3791.5213      341.34775      675.58677     -2502.8235      19.899618      19.937894      20.278837      90             90             90           
     41500   262.42987     -157.95395     -125.01596     -157.95395      0              6450.0962      20.084339      20.041034      20.244096      0              0              0              8148.4697      5004.4363      8541.3515      5804.501      -906.10491     -4458.4502     -2018.6155      20.084339      20.041034      20.244096      90             90             90           
     42000   266.20347     -159.28049     -125.86887     -159.28049      0              8442.1941      20.090992      20.033808      20.128435      0              0              0              8101.6767      9271.2251      8845.1645      7210.1928     -1454.9548     -218.15685     -1488.477       20.090992      20.033808      20.128435      90             90             90           
     42500   269.73499     -158.00511     -124.15024     -158.00511      0              4931.4371      20.042148      20.024486      20.104021      0              0              0              8068.4209      5668.3247      2904.0508      6221.9359      1247.1131     -122.39643     -3922.4789      20.042148      20.024486      20.104021      90             90             90           
     43000   263.10268     -157.01137     -123.98893     -157.01137      0              7523.8905      19.988393      19.964938      20.253524      0              0              0              8082.5133      7704.0349      8344.7854      6522.8513     -985.37095     -1072.4402      1993.925       19.988393      19.964938      20.253524      90             90             90           
     43500   267.23774     -159.12601     -125.58458     -159.12601      0              2818.484       19.940588      19.894133      20.493216      0              0              0              8129.6731      3503.5988      2998.8576      1952.9955      350.62645      129.40215      596.69983      19.940588      19.894133      20.493216      90             90             90           
     44000   268.81484     -159.38319     -125.64381     -159.38319      0              2539.861       19.958606      19.899634      20.525693      0              0              0              8152.168       4290.3177      1232.8313      2096.434      -383.6915       1782.7683      853.27897      19.958606      19.899634      20.525693      90             90             90           
     44500   265.59696     -158.54281     -125.20731     -158.54281      0              5722.8707      19.95435       19.95577       20.167505      0              0              0              8030.7895      4451.386       5784.044       6933.1822     -730.19836      2002.6844      1552.9399      19.95435       19.95577       20.167505      90             90             90           
     45000   249.61748     -158.68863     -127.35874     -158.68863      0              4794.9086      20.085234      20.154429      20.005759      0              0              0              8098.4596      3558.575       7643.1566      3182.9943      771.82645      2435.1493     -1837.5992      20.085234      20.154429      20.005759      90             90             90           
     45500   264.5375      -160.15668     -126.95415     -160.15668      0              6483.8421      20.123525      20.137631      20.03911       0              0              0              8120.6512      8758.2296      2427.9047      8265.392      -472.3926      -1401.337       1794.9777      20.123525      20.137631      20.03911       90             90             90           
     46000   265.00213     -159.51896     -126.25812     -159.51896      0              6251.0506      19.95483       19.885427      20.216328      0              0              0              8022.0475      7960.322       7484.0527      3308.7772      1273.9215      2670.9316     -414.72481      19.95483       19.885427      20.216328      90             90             90           
     46500   269.68618     -159.92273     -126.07399     -159.92273      0              7569.7067      19.985344      19.920908      20.487477      0              0              0              8156.6013      7023.7459      6154.6633      9530.7108      2694.1455     -742.427       -1490.8251      19.985344      19.920908      20.487477      90             90             90           
     47000   267.48979     -158.96641     -125.39333     -158.96641      0              5675.6213      20.056114      19.925677      20.424258      0              0              0              8162.1796      4765.292       5423.1463      6838.4258      802.96553      256.00274     -253.03075      20.056114      19.925677      20.424258      90             90             90           
     47500   279.92773     -158.92886     -123.79468     -158.92886      0              3694.3737      19.978268      19.917431      20.17693       0              0              0              8028.7187      2211.9074      5755.2269      3115.9868      609.15187      1161.5313     -2447.6689      19.978268      19.917431      20.17693       90             90             90           
     48000   269.80425     -158.32861     -124.46505     -158.32861      0              5671.1369      20.004906      20.130325      20.160095      0              0              0              8118.5764      3694.3735      6701.0574      6617.9799      357.28938      1413.0451     -1118.4286      20.004906      20.130325      20.160095      90             90             90           
     48500   263.41401     -158.04896     -124.98745     -158.04896      0              5388.35        20.043066      20.078278      20.091138      0              0              0              8085.2815      6155.6033      3787.4786      6221.9682      755.59898     -2085.6697      2253.9058      20.043066      20.078278      20.091138      90             90             90           
     49000   270.35923     -157.08872     -123.1555      -157.08872      0              6083.7695      20.09414       19.894186      20.201255      0              0              0              8075.5842      3838.6495      4335.4299      10077.229     -437.15277     -1309.1024      458.23082      20.09414       19.894186      20.201255      90             90             90           
     49500   277.88869     -155.38106     -120.50281     -155.38106      0              6907.3572      20.048963      19.83536       20.406875      0              0              0              8115.3731      4795.7211      8853.5101      7072.8404     -1070.3432      16.238021      1644.2209      20.048963      19.83536       20.406875      90             90             90           
     50000   272.99806     -157.68416     -123.41973     -157.68416      0              2217.7905      20.009084      20.024031      20.469126      0              0              0              8201.2116      5562.8458      1017.9535      72.572147     -3022.8964      1250.7797     -4.1886347      20.009084      20.024031      20.469126      90             90             90           
     50500   263.47534     -157.5675      -124.49829     -157.5675       0              8186.3842      19.842023      20.128692      20.084421      0              0              0              8021.5969      12986.365      2588.3288      8984.4587      817.62683      1470.0323     -4641.217       19.842023      20.128692      20.084421      90             90             90           
     51000   265.78569     -157.85202     -124.49283     -157.85202      0              5633.1484      20.07638       20.150812      20.04497       0              0              0              8109.3004      6255.0717      3337.7534      7306.62        29.677191      3214.5988     -2219.8313      20.07638       20.150812      20.04497       90             90             90           
     51500   269.14256     -159.27886     -125.49835     -159.27886      0              4249.2895      20.215918      19.953683      20.207423      0              0              0              8151.3108      4559.2746      3489.464       4699.13       -800.48534      847.99495      301.72998      20.215918      19.953683      20.207423      90             90             90           
     52000   259.8297      -159.63431     -127.02267     -159.63431      0              6091.3419      19.993571      19.817813      20.306239      0              0              0              8045.9179      3783.5636      7936.1118      6554.3504     -1015.36        714.96989      1868.8297      19.993571      19.817813      20.306239      90             90             90           
     52500   267.00493     -158.02597     -124.51376     -158.02597      0              2294.0228      19.860917      20.047805      20.428135      0              0              0              8133.8251      3831.5524     -302.81992      3353.3359     -248.7134      -1238.491       1097.3344      19.860917      20.047805      20.428135      90             90             90           
     53000   265.46702     -158.98304     -125.66385     -158.98304      0              6966.6935      19.852668      20.042006      20.315545      0              0              0              8083.2968      8493.9235      4779.182       7626.975       1771.645       663.31589      2509.7621      19.852668      20.042006      20.315545      90             90             90           
     53500   262.60129     -158.63534     -125.67583     -158.63534      0              6687.7301      20.135884      19.981608      20.213106      0              0              0              8132.6892      5432.2225      7677.429       6953.5387      181.80353      1649.086      -813.95993      20.135884      19.981608      20.213106      90             90             90           
     54000   265.06787     -157.29495     -124.02586     -157.29495      0              7049.3355      20.215822      19.908113      20.148212      0              0              0              8108.8265      5256.6634      9703.9449      6187.3984     -401.01977      1162.1216     -1137.0303      20.215822      19.908113      20.148212      90             90             90           
     54500   260.78333     -160.02395     -127.29262     -160.02395      0              7853.0756      20.021549      19.960785      20.185592      0              0              0              8067.0877      13412.391      4444.2539      5702.5821     -745.46593      2065.149      -24.450558      20.021549      19.960785      20.185592      90             90             90           
     55000   274.26846     -160.61918     -126.19531     -160.61918      0              5193.3773      19.979431      20.050047      20.305407      0              0              0              8134.1134      4532.3761      6213.2995      4834.4562      1407.3966      1270.3852      1219.3138      19.979431      20.050047      20.305407      90             90             90           
     55500   260.55085     -159.66204     -126.95989     -159.66204      0              6012.4117      19.904887      20.047208      20.326864      0              0              0              8111.1789      6949.6924      6632.8935      4454.649      -1502.3016      1106.7419      429.68493      19.904887      20.047208      20.326864      90             90             90           
     56000   267.77867     -157.64805     -124.03872     -157.64805      0              7288.7372      19.889925      20.021675      20.24397       0              0              0              8061.7484      8040.9113      6504.0067      7321.2935     -1331.7763      341.82819     -260.68916      19.889925      20.021675      20.24397       90             90             90           
     56500   275.30966     -159.42509     -124.87054     -159.42509      0              6755.6897      20.147317      20.059563      20.129022      0              0              0              8135.0715      3762.3173      9992.1833      6512.5684     -193.88292     -2947.7649      1972.8082      20.147317      20.059563      20.129022      90             90             90           
     57000   266.38467     -158.53405     -125.09968     -158.53405      0              5504.5372      20.345207      20.068655      20.074641      0              0              0              8196.4947      6068.2957      5915.8075      4529.5084     -1015.0079     -1165.2351      606.21597      20.345207      20.068655      20.074641      90             90             90           
     57500   268.66902     -158.51871     -124.79763     -158.51871      0              9561.4156      19.993755      19.867992      20.025028      0              0              0              7954.6569      10267.059      7776.2527      10640.936      8.3870489      1035.827       1701.9165      19.993755      19.867992      20.025028      90             90             90           
     58000   264.2925      -159.13595     -125.96417     -159.13595      0              6577.9817      19.989264      20.014807      20.47175       0              0              0              8190.3632      8004.1523      3589.4754      8140.3176      214.96312      81.000345      1114.102       19.989264      20.014807      20.47175       90             90             90           
     58500   265.45736     -158.45185     -125.13387     -158.45185      0              8050.2357      19.911167      19.970526      20.458087      0              0              0              8134.8817      6858.3977      7282.8375      10009.472      913.39763     -1880.5037     -706.4392       19.911167      19.970526      20.458087      90             90             90           
     59000   270.96247     -158.21116     -124.20223     -158.21116      0              5653.9242      19.927585      20.055383      20.312374      0              0              0              8117.949       4611.7357      7314.3751      5035.6618     -503.30205      125.53369      242.15605      19.927585      20.055383      20.312374      90             90             90           
     59500   273.76498     -158.56546     -124.20478     -158.56546      0              7928.0023      20.063175      20.088364      20.177912      0              0              0              8132.4325      9141.7945      6671.0288      7971.1837     -989.16088      722.59398     -3374.0795      20.063175      20.088364      20.177912      90             90             90           
     60000   252.57198     -157.65416     -125.95345     -157.65416      0              6982.3472      20.059307      20.002499      20.107877      0              0              0              8068.0097      1979.2401      10600.117      8367.6847      912.13349      364.6768      -2801.2962      20.059307      20.002499      20.107877      90             90             90           
     60500   262.73507     -159.31574     -126.33944     -159.31574      0              1910.8591      20.1116        20.010369      20.286003      0              0              0              8163.91        1145.4402      1590.4713      2996.6657     -164.64927      1921.3529      497.44014      20.1116        20.010369      20.286003      90             90             90           
     61000   271.24313     -158.85527     -124.81111     -158.85527      0              6322.4461      20.013747      19.841661      20.30363       0              0              0              8062.6931      4954.1896      7108.9993      6904.1495      1576.2234     -1786.3458     -3713.0828      20.013747      19.841661      20.30363       90             90             90           
     61500   265.0063      -158.36835     -125.10699     -158.36835      0              4505.7466      20.090666      19.897549      20.350905      0              0              0              8135.3763      4238.9544      5403.9203      3874.3651     -469.49276     -1075.7853      3410.172       20.090666      19.897549      20.350905      90             90             90           
     62000   270.26144     -158.26064     -124.33969     -158.26064      0              2571.2125      20.03828       19.961066      20.313891      0              0              0              8125.2603      1608.4205      3702.316       2402.9011     -1030.4308      292.82816     -2551.7715      20.03828       19.961066      20.313891      90             90             90           
     62500   260.6548      -158.53854     -125.82334     -158.53854      0              5918.8017      19.923261      20.043173      20.179784      0              0              0              8058.2999      6404.2012      5483.4507      5868.7534      1604.956       322.27883      2616.3869      19.923261      20.043173      20.179784      90             90             90           
     63000   275.19289     -157.65469     -123.11479     -157.65469      0              5124.4728      20.04617       20.267606      20.250141      0              0              0              8227.3865      3620.7241      5505.7436      6246.9506      289.26663     -1581.0044     -2720.0191      20.04617       20.267606      20.250141      90             90             90           
     63500   258.46718     -157.80723     -125.3666      -157.80723      0              4340.6248      19.917571      19.944175      20.170665      0              0              0              8012.585       6638.6762      2131.2188      4251.9794      249.99488      4188.8075      3064.1267      19.917571      19.944175      20.170665      90             90             90           
     64000   264.58673     -157.62377     -124.41506     -157.62377      0              6743.3574      20.119044      19.811442      20.303364      0              0              0              8092.6625      5756.2968      10404.507      4069.2682     -927.40029      637.41906      174.54557      20.119044      19.811442      20.303364      90             90             90           
     64500   272.6555      -159.76768     -125.54626     -159.76768      0              6025.9727      20.220347      19.941295      20.370782      0              0              0              8213.9049      6547.2655      4282.6507      7248.0018      829.12683     -1052.6911     -1211.5504      20.220347      19.941295      20.370782      90             90             90           
     65000   254.01223     -159.23124     -127.34976     -159.23124      0              5576.9016      19.909745      19.980425      20.227809      0              0              0              8046.7267      3266.8819      7895.2721      5568.5506      1051.8913     -2063.8738      735.19328      19.909745      19.980425      20.227809      90             90             90           
     65500   265.26152     -159.56905     -126.27565     -159.56905      0              9325.611       19.816093      20.023561      20.209766      0              0              0              8019.0076      11129.939      7798.3701      9048.5238     -1419.0472      105.05855     -34.112421      19.816093      20.023561      20.209766      90             90             90           
     66000   284.84539     -159.39664     -123.64524     -159.39664      0              9354.5911      20.05241       20.188439      20.355515      0              0              0              8240.4588      8485.7453      9455.7912      10122.237      876.82878     -1463.0164      1055.681       20.05241       20.188439      20.355515      90             90             90           
     66500   281.7086      -159.51301     -124.15531     -159.51301      0              4812.8564      20.046282      19.980173      20.277068      0              0              0              8121.5372      5264.3864      2600.517       6573.6659     -308.45584      1461.1344      678.68414      20.046282      19.980173      20.277068      90             90             90           
     67000   270.22684     -159.74153     -125.82492     -159.74153      0              7787.9009      19.966792      19.828371      20.151698      0              0              0              7978.2376      5888.3504      9581.9709      7893.3814      783.55914     -662.80094     -115.83134      19.966792      19.828371      20.151698      90             90             90           
     67500   267.20261     -159.90982     -126.37279     -159.90982      0              7705.1633      20.139729      20.058463      20.332034      0              0              0              8213.5728      5471.5166      8433.5018      9210.4717      990.48033      143.96872      1558.7298      20.139729      20.058463      20.332034      90             90             90           
     68000   258.74874     -158.85603     -126.38006     -158.85603      0              5066.4374      20.015309      19.972099      20.286117      0              0              0              8109.3289      3338.322       6396.882       5464.1081      429.34123     -4822.4962      1915.6704      20.015309      19.972099      20.286117      90             90             90           
     68500   271.58247     -158.54827     -124.46152     -158.54827      0              10253.507      19.940995      19.933753      20.243821      0              0              0              8046.8959      10918.186      11546.317      8296.0182     -1467.3599     -1388.2624      1184.3486      19.940995      19.933753      20.243821      90             90             90           
     69000   258.83824     -159.62193     -127.13473     -159.62193      0              5456.129       19.958735      19.972502      20.311229      0              0              0              8096.5817      4600.7209      6476.9772      5290.6889     -1449.5364      537.10772      1716.3285      19.958735      19.972502      20.311229      90             90             90           
     69500   262.36082     -160.16312     -127.23379     -160.16312      0              5474.807       20.078293      19.945453      20.393841      0              0              0              8167.1349      3908.268       8935.8736      3580.2795      160.88714      3791.7831     -631.31926      20.078293      19.945453      20.393841      90             90             90           
     70000   265.63391     -159.17773     -125.83759     -159.17773      0              5994.9409      20.030844      19.852979      20.20864       0              0              0              8036.4087      5485.6394      3715.0093      8784.1739      1847.7079      1183.8547      847.87849      20.030844      19.852979      20.20864       90             90             90           
     70500   254.62589     -158.34263     -126.38413     -158.34263      0              2922.4526      20.031722      19.982016      20.146647      0              0              0              8064.1826      805.98598      6484.5659      1476.8057     -654.18397     -1445.5615      1382.6371      20.031722      19.982016      20.146647      90             90             90           
     71000   260.05618     -159.06796     -126.42789     -159.06796      0              5888.1783      19.99944       20.169466      20.203342      0              0              0              8149.5846      8149.2959      5274.717       4240.5221      757.14498     -241.33474     -2257.8247      19.99944       20.169466      20.203342      90             90             90           
     71500   249.04137     -157.1728      -125.91522     -157.1728       0              5760.5809      19.902547      20.0819        20.209026      0              0              0              8077.1628      7670.0823      3254.1834      6357.4771     -1274.624      -2462.6383      1544.484       19.902547      20.0819        20.209026      90             90             90           
     72000   266.46117     -156.4707      -123.02673     -156.4707       0              6384.7706      19.963568      19.993197      20.308947      0              0              0              8106.0227      11108.931      2814.4952      5230.8856      2132.8787     -57.333901     -1007.7521      19.963568      19.993197      20.308947      90             90             90           
     72500   263.21312     -157.94155     -124.90525     -157.94155      0              5063.5458      20.158003      19.878112      20.384166      0              0              0              8167.9971      3750.0249      8421.4651      3019.1472      509.14033      1030.1592     -610.52275      20.158003      19.878112      20.384166      90             90             90           
     73000   255.39487     -158.26757     -126.21255     -158.26757      0              5752.2598      20.106141      19.741638      20.274183      0              0              0              8047.3941      6954.4718      5024.4666      5277.8411     -1198.2953      2443.4384     -3462.4519      20.106141      19.741638      20.274183      90             90             90           
     73500   265.6547      -158.62879     -125.28604     -158.62879      0              6621.9143      19.962922      20.034534      20.209715      0              0              0              8082.8316      4038.5779      7560.7847      8266.3801      473.10433     -178.61119      1644.5557      19.962922      20.034534      20.209715      90             90             90           
     74000   262.94619     -158.96048     -125.95768     -158.96048      0              6455.2292      19.87568       20.262614      20.214963      0              0              0              8141.2373      9028.5823      4410.247       5926.8583      703.68487     -261.14585     -2036.3962      19.87568       20.262614      20.214963      90             90             90           
     74500   260.18519     -158.54181     -125.88555     -158.54181      0              5972.9618      19.929131      20.066828      20.205492      0              0              0              8080.468       5692.746       6784.0025      5442.1368      733.06982     -1764.6484     -5.9544675      19.929131      20.066828      20.205492      90             90             90           
     75000   269.15986     -157.94175     -124.15907     -157.94175      0              2341.8634      20.047091      19.904785      20.297519      0              0              0              8099.3807      4186.4667      1260.0084      1579.1152      1062.58       -109.2105      -211.95806      20.047091      19.904785      20.297519      90             90             90           
     75500   261.74244     -159.61173     -126.76001     -159.61173      0              4629.6954      20.118608      19.906831      20.406511      0              0              0              8172.7617      6580.4104      3250.9775      4057.6984     -1519.0391     -3137.6062     -4598.2271      20.118608      19.906831      20.406511      90             90             90           
     76000   272.50027     -159.08626     -124.88432     -159.08626      0              3736.4221      19.961244      19.883023      20.219965      0              0              0              8025.0997      6287.2848      3214.6394      1707.3421     -287.0535      -615.00432      427.1297       19.961244      19.883023      20.219965      90             90             90           
     76500   258.8859      -161.87183     -129.37865     -161.87183      0              3704.7061      20.046295      19.964916      20.167577      0              0              0              8071.5198      1439.7499      4242.0765      5432.2919      1202.0658      424.98608     -2187.4087      20.046295      19.964916      20.167577      90             90             90           
     77000   252.29494     -160.20844     -128.5425      -160.20844      0              5565.8165      20.148483      20.026707      20.253636      0              0              0              8172.499       8615.482       2616.207       5465.7606     -403.43114      456.22028      1366.357       20.148483      20.026707      20.253636      90             90             90           
     77500   267.80854     -159.36419     -125.75111     -159.36419      0              7275.2224      19.908036      19.913669      20.152955      0              0              0              7989.4786      9330.4724      5357.7009      7137.4937     -1180.985       677.76458     -1617.7863      19.908036      19.913669      20.152955      90             90             90           
     78000   278.51521     -158.10222     -123.14533     -158.10222      0              4245.4494      19.947172      20.152751      20.367569      0              0              0              8187.5672      4997.6548      3143.0446      4595.649      -924.09648      196.2995      -25.810462      19.947172      20.152751      20.367569      90             90             90           
     78500   266.67053     -160.82448     -127.35424     -160.82448      0              5769.1802      20.056375      20.112633      20.340968      0              0              0              8205.2718      5609.8831      5869.6283      5828.0292      713.65502     -933.99151      2554.0274      20.056375      20.112633      20.340968      90             90             90           
     79000   267.79803     -159.75245     -126.14069     -159.75245      0              7802.1242      20.040614      19.820193      20.069494      0              0              0              7971.7803      8150.5068      6182.6213      9073.2444     -96.455896     -678.61124     -1732.6326      20.040614      19.820193      20.069494      90             90             90           
     79500   259.39839     -157.66425     -125.10674     -157.66425      0              6431.4682      20.114503      19.952939      20.193958      0              0              0              8104.7126      9180.558       5475.9745      4637.8721      763.22799     -2627.947      -1702.4907      20.114503      19.952939      20.193958      90             90             90           
     80000   271.69506     -158.71174     -124.61086     -158.71174      0              4752.5028      20.052916      20.0946        20.342122      0              0              0              8196.9665      5004.7086      3787.1092      5465.6905     -844.05305      98.508365     -2839.7465      20.052916      20.0946        20.342122      90             90             90           
     80500   268.74637     -158.97189     -125.2411      -158.97189      0              2936.5455      19.961814      20.026169      20.389685      0              0              0              8150.9532      6293.6576      2415.96        100.01881     -151.93232     -15.353478     -1327.5106      19.961814      20.026169      20.389685      90             90             90           
     81000   266.45981     -158.66681     -125.22301     -158.66681      0              6969.3504      19.893278      19.882846      20.238518      0              0              0              8005.0417      7887.3541      7177.1139      5843.5832     -420.53309      722.04078      893.09402      19.893278      19.882846      20.238518      90             90             90           
     81500   255.13769     -158.40047     -126.37773     -158.40047      0              4225.6501      20.177859      20.050374      20.268759      0              0              0              8200.205       4736.8944      3806.0429      4134.0131     -596.05333      863.82426     -1459.3609      20.177859      20.050374      20.268759      90             90             90           
     82000   258.84476     -158.4304      -125.94238     -158.4304       0              3961.3362      20.081675      20.006463      20.139906      0              0              0              8091.4749      2728.4016      3638.6576      5516.9493      351.25729     -994.04027     -1541.2452      20.081675      20.006463      20.139906      90             90             90           
     82500   293.7373      -160.41037     -123.54293     -160.41037      0              7539.0327      19.906783      20.006003      20.182402      0              0              0              8037.7454      5594.7849      9011.5611      8010.7521     -864.90702      2006.0456      1194.3678      19.906783      20.006003      20.182402      90             90             90           
     83000   267.65494     -158.07209     -124.47829     -158.07209      0              7518.7536      19.973275      20.136788      20.476482      0              0              0              8235.5921      6808.2676      8014.9829      7733.0104     -343.09761      415.04004      260.98374      19.973275      20.136788      20.476482      90             90             90           
     83500   276.34322     -159.07388     -124.3896      -159.07388      0              6850.8843      19.952003      19.830116      20.334822      0              0              0              8045.4833      12409.718      501.09798      7641.8369      1535.1614      882.2271      -2369.1617      19.952003      19.830116      20.334822      90             90             90           
     84000   267.17648     -156.64785     -123.11411     -156.64785      0              4070.6743      20.157703      19.86579       20.273237      0              0              0              8118.3916      3666.2503      2750.3469      5795.4257     -1687.6203     -515.63505     -661.24628      20.157703      19.86579       20.273237      90             90             90           
     84500   252.19824     -156.56973     -124.91592     -156.56973      0              9257.7178      20.065645      20.026734      20.204511      0              0              0              8119.1692      7848.3771      9995.0615      9929.7148      974.37039     -551.14339      281.3429       20.065645      20.026734      20.204511      90             90             90           
     85000   254.42462     -157.28882     -125.35558     -157.28882      0              1628.2913      19.946709      20.103474      20.171361      0              0              0              8088.6786      1234.3879      4198.6837     -548.19777     -276.51423      2085.6565      2497.2979      19.946709      20.103474      20.171361      90             90             90           
     85500   272.72449     -158.10084     -123.87076     -158.10084      0              6356.0598      19.960086      20.076865      20.228106      0              0              0              8106.1295      6880.6042      4908.4316      7279.1436     -775.63109     -975.98051      25.110624      19.960086      20.076865      20.228106      90             90             90           
     86000   267.86444     -158.76997     -125.14987     -158.76997      0              3559.6428      20.037435      19.999047      20.300553      0              0              0              8135.0326      5960.5205      3823.147       895.26072      1143.3566      2558.2707      3093.6895      20.037435      19.999047      20.300553      90             90             90           
     86500   259.89944     -158.86238     -126.24198     -158.86238      0              5975.0421      20.045213      19.872871      20.235211      0              0              0              8060.8164      3992.5404      7718.2311      6214.3547     -1572.5543      4774.3429     -522.83817      20.045213      19.872871      20.235211      90             90             90           
     87000   255.09563     -159.53466     -127.5172      -159.53466      0              5955.6101      20.104591      19.890193      20.263257      0              0              0              8102.9562      7723.2453      5999.2111      4144.3741      2565.5049     -2733.5672      688.27253      20.104591      19.890193      20.263257      90             90             90           
     87500   260.75832     -159.06265     -126.33445     -159.06265      0              6458.1097      20.030855      19.969656      20.323277      0              0              0              8129.4995      3343.8131      9117.4788      6913.0372     -401.15218      164.2342       3729.0585      20.030855      19.969656      20.323277      90             90             90           
     88000   273.88817     -159.07419     -124.69804     -159.07419      0              5114.6001      19.900641      20.02237       20.293209      0              0              0              8085.9912      3842.0548      6465.806       5035.9396      1864.5434     -1335.5793      644.59716      19.900641      20.02237       20.293209      90             90             90           
     88500   258.41624     -158.88643     -126.45219     -158.88643      0              4404.2176      19.893445      20.152304      20.312449      0              0              0              8143.2355      6163.4658      3708.3104      3340.8766      635.4624       1606.3013     -1437.9545      19.893445      20.152304      20.312449      90             90             90           
     89000   256.86549     -160.18125     -127.94165     -160.18125      0              5024.5052      19.87836       20.051495      20.119816      0              0              0              8019.5741      2668.128       5718.3158      6687.0716      806.66416     -1733.8368      411.27335      19.87836       20.051495      20.119816      90             90             90           
     89500   256.52905     -160.64277     -128.4454      -160.64277      0              4329.0953      20.15554       19.919137      20.163978      0              0              0              8095.4533      6554.8733      4137.2442      2295.1684     -106.23376     -5493.2396      329.19438      20.15554       19.919137      20.163978      90             90             90           
     90000   255.85034     -159.58748     -127.4753      -159.58748      0              6581.2954      20.207875      19.824194      20.274389      0              0              0              8122.0182      7709.7106      7090.6267      4943.549       139.79246     -1495.8295     -922.61427      20.207875      19.824194      20.274389      90             90             90           
     90500   271.28772     -159.31042     -125.26066     -159.31042      0              7814.8979      19.951525      19.896733      20.296477      0              0              0              8057.0959      10444.728      8634.4898      4365.4758      1279.1549     -1430.3175     -545.7179       19.951525      19.896733      20.296477      90             90             90           
     91000   267.66484     -159.82218     -126.22714     -159.82218      0              5535.1217      19.882396      20.187019      20.396801      0              0              0              8186.5889      9093.0963      3216.8235      4295.4452     -1455.4148      850.48699     -1322.0986      19.882396      20.187019      20.396801      90             90             90           
     91500   249.75629     -160.14887     -128.80156     -160.14887      0              6088.7918      19.858323      20.072465      20.258048      0              0              0              8074.9691      6149.3867      4992.4086      7124.58        1604.4232      732.95065      1415.2166      19.858323      20.072465      20.258048      90             90             90           
     92000   265.48958     -160.02751     -126.70549     -160.02751      0              4993.5783      20.033418      19.958784      20.193742      0              0              0              8074.32        9243.524       2335.7228      3401.4881     -211.8474      -240.72845     -1363.081       20.033418      19.958784      20.193742      90             90             90           
     92500   263.06592     -159.38496     -126.36713     -159.38496      0              4541.9057      20.17262       19.994564      20.263084      0              0              0              8172.9679      4747.5417      3857.7072      5020.4683     -293.36778     -3134.3028      316.2086       20.17262       19.994564      20.263084      90             90             90           
     93000   258.52027     -157.91697     -125.46968     -157.91697      0              6881.2102      19.976755      19.969906      20.205717      0              0              0              8060.746       8331.0498      5088.3694      7224.2114      944.36909      896.89073     -1123.9588      19.976755      19.969906      20.205717      90             90             90           
     93500   257.74962     -159.38537     -127.0348      -159.38537      0              3651.7823      19.899681      20.111606      20.413015      0              0              0              8169.5858      6408.0578      1233.5536      3313.7354     -374.22779      2108.7353     -1289.0979      19.899681      20.111606      20.413015      90             90             90           
     94000   264.12002     -160.10489     -126.95476     -160.10489      0              8448.5326      19.884496      19.970251      20.434035      0              0              0              8114.3221      5763.4303      10376.367      9205.8009      1290.0054     -2425.6697      499.15663      19.884496      19.970251      20.434035      90             90             90           
     94500   257.48242     -158.50508     -126.18805     -158.50508      0              6376.0183      20.115858      19.869202      20.204184      0              0              0              8075.3302      5182.8625      7244.8272      6700.3651     -882.55243      984.27799      2928.1928      20.115858      19.869202      20.204184      90             90             90           
     95000   256.13302     -160.85937     -128.7117      -160.85937      0              8175.6543      20.277299      19.974838      19.951008      0              0              0              8080.8717      6039.2083      11752.63       6735.1251      88.625031      1867.5481      1066.1323      20.277299      19.974838      19.951008      90             90             90           
[...]
    377000   257.06132     -159.47365     -127.20947     -159.47365      0              7013.6623      19.950818      19.902732      20.317811      0              0              0              8067.7107      9693.07        4933.6535      6414.2636      1060.7766     -1598.8305      962.79642      19.950818      19.902732      20.317811      90             90             90           
    377500   268.67417     -160.03129     -126.30956     -160.03129      0              5309.4233      19.951966      19.926687      20.127398      0              0              0              8002.1821      5159.4542      4739.5865      6029.2293      1370.6155     -1058.4018     -3976.0347      19.951966      19.926687      20.127398      90             90             90           
    378000   256.75654     -157.70105     -125.47512     -157.70105      0              2552.6928      20.126148      20.014641      20.189789      0              0              0              8132.8025      1822.8324      3301.2786      2533.9674      929.36623      1545.1506      3631.5665      20.126148      20.014641      20.189789      90             90             90           
    378500   254.92073     -159.38879     -127.39328     -159.38879      0              4400.285       20.050159      20.010106      20.257747      0              0              0              8127.5258      7076.1548      1358.5506      4766.1497     -428.83816      3542.2869      470.86963      20.050159      20.010106      20.257747      90             90             90           
    379000   274.22801     -159.56916     -125.15036     -159.56916      0              6053.1371      19.884432      19.922564      20.303928      0              0              0              8043.3782      6255.9555      5125.4666      6777.9893      280.74912     -1062.1007      785.41909      19.884432      19.922564      20.303928      90             90             90           
    379500   261.2815      -159.336       -126.54214     -159.336        0              6071.4533      19.953186      19.941931      20.356267      0              0              0              8099.8618      8463.6658      6191.8727      3558.8214     -393.00378     -1604.4321      748.29795      19.953186      19.941931      20.356267      90             90             90           
    380000   263.90507     -160.51276     -127.38961     -160.51276      0              5239.4691      20.063679      19.977792      20.23057       0              0              0              8108.979       8562.0277      2533.546       4622.8337      478.12583     -1414.983      -1908.6782      20.063679      19.977792      20.23057       90             90             90           
    380500   257.92698     -159.62443     -127.2516      -159.62443      0              3085.1068      20.109523      20.047387      19.939193      0              0              0              8038.3543      3673.9835      635.28211      4946.0547      1639.8642     -2378.0603     -351.06698      20.109523      20.047387      19.939193      90             90             90           
    381000   260.33936     -159.71035     -127.03474     -159.71035      0              5411.0836      20.056626      20.16502       20.030266      0              0              0              8101.0862      4888.8288      5158.2074      6186.2145     -532.26281     -1080.9974      3293.6168      20.056626      20.16502       20.030266      90             90             90           
    381500   278.9419      -157.61235     -122.6019      -157.61235      0              7467.9114      19.917022      20.025157      20.487484      0              0              0              8171.2587      5355.7728      13739.509      3308.4519      2243.2527     -333.16543     -2668.8815      19.917022      20.025157      20.487484      90             90             90           
    382000   267.74464     -158.69363     -125.08858     -158.69363      0              5327.0592      19.893053      19.693964      20.702875      0              0              0              8110.829       6619.7774      4815.0248      4546.3756     -1074.1171      3186.0498     -3222.1855      19.893053      19.693964      20.702875      90             90             90           
    382500   262.15658     -155.98959     -123.0859      -155.98959      0              4780.8417      19.991298      19.682879      20.453073      0              0              0              8048.004       4207.8568      3326.9302      6807.7381      167.30426     -2550.4091     -408.33289      19.991298      19.682879      20.453073      90             90             90           
    383000   270.55345     -158.4464      -124.48881     -158.4464       0              6592.9722      20.080812      20.057121      20.197628      0              0              0              8134.8628      7752.3713      5464.0098      6562.5354     -1284.2495     -1616.2064      272.81689      20.080812      20.057121      20.197628      90             90             90           
    383500   276.13397     -156.99897     -122.34095     -156.99897      0              3316.81        20.030988      20.129686      20.044492      0              0              0              8082.2897     -439.22245      3855.9624      6533.69        507.90507     -232.70389      513.10458      20.030988      20.129686      20.044492      90             90             90           
    384000   253.06294     -157.78964     -126.02731     -157.78964      0              6774.3215      20.063768      20.045215      20.122998      0              0              0              8093.1184      3233.6779      10659.348      6429.939       1552.0171     -2503.3518      4252.4133      20.063768      20.045215      20.122998      90             90             90           
    384500   253.95626     -158.06884     -126.19438     -158.06884      0              5630.88        20.032039      19.917259      20.260199      0              0              0              8083.481       5080.3494      6566.4172      5245.8733     -573.74882      1569.3809     -2297.0175      20.032039      19.917259      20.260199      90             90             90           
    385000   259.21164     -159.89922     -127.36515     -159.89922      0              7722.3307      19.915009      19.933149      20.353227      0              0              0              8079.597       7695.2967      7450.0075      8021.688       970.03082      2901.8578      509.88094      19.915009      19.933149      20.353227      90             90             90           
    385500   254.43831     -159.19958     -127.26462     -159.19958      0              2572.3345      19.880785      19.995728      20.275225      0              0              0              8060.0257     -179.03602      4518.7205      3377.319       1056.4287     -2537.8727     -198.37282      19.880785      19.995728      20.275225      90             90             90           
    386000   263.28311     -159.11772     -126.07263     -159.11772      0              2029.4669      20.113574      20.056025      20.210697      0              0              0              8152.9613      2487.5433     -405.30968      4006.1671     -641.66975      1582.1727      33.971861      20.113574      20.056025      20.210697      90             90             90           
    386500   271.48737     -158.42382     -124.349       -158.42382      0              5822.4364      20.267436      19.861742      20.180917      0              0              0              8123.7593      3689.4568      7773.4165      6004.4359     -1020.1867     -2086.8967     -1853.2716      20.267436      19.861742      20.180917      90             90             90           
    387000   262.4918      -158.03973     -125.09397     -158.03973      0              6395.8496      20.103085      19.792172      20.13674       0              0              0              8012.081       6172.316       8089.2644      4925.9682     -61.161983      1162.1332      1504.7877      20.103085      19.792172      20.13674       90             90             90           
    387500   263.86303     -158.36791     -125.25004     -158.36791      0              6261.839       19.931545      20.122871      20.341516      0              0              0              8158.5734      6773.1167      4418.2623      7594.138       589.20595     -230.70304      3655.2017      19.931545      20.122871      20.341516      90             90             90           
    388000   260.71695     -160.46057     -127.73757     -160.46057      0              7434.0984      19.813001      20.095772      20.261341      0              0              0              8067.2061      10360.276      5440.2061      6501.813      -939.87359     -2906.81       -690.59095      19.813001      20.095772      20.261341      90             90             90           
    388500   257.28532     -160.55577     -128.26348     -160.55577      0              4166.9933      20.015232      19.943852      20.185068      0              0              0              8057.4919      4671.8079      2865.9287      4963.2433     -701.57391      801.65168      1070.0162      20.015232      19.943852      20.185068      90             90             90           
    389000   256.88578     -160.04875     -127.8066      -160.04875      0              2747.5287      20.237449      19.896806      20.245839      0              0              0              8152.2018      2555.2315      4672.9189      1014.4358     -49.982529     -733.26115      1420.009       20.237449      19.896806      20.245839      90             90             90           
    389500   259.44712     -159.48034     -126.91672     -159.48034      0              7939.5746      20.032926      19.812103      20.178792      0              0              0              8008.8494      9234.0925      7916.5438      6668.0874      1666.6118     -717.50075     -592.6816       20.032926      19.812103      20.178792      90             90             90           
    390000   251.99082     -159.98988     -128.36211     -159.98988      0              4389.3772      19.994281      20.01066       20.320412      0              0              0              8130.1715      5554.5699      4202.1953      3411.3663      709.0925       187.92387      3517.8846      19.994281      20.01066       20.320412      90             90             90           
    390500   264.95676     -158.76787     -125.51272     -158.76787      0              7799.856       19.900138      20.011883      20.276822      0              0              0              8075.026       6258.8481      10624.344      6516.3759      283.45579      34.066211     -2980.1816      19.900138      20.011883      20.276822      90             90             90           
    391000   266.84676     -157.76222     -124.26985     -157.76222      0              8593.6303      19.983591      19.933157      20.227467      0              0              0              8057.3294      8248.2196      8275.9505      9256.7209      472.74245      2645.1747     -4469.1875      19.983591      19.933157      20.227467      90             90             90           
    391500   281.04548     -157.55036     -122.27589     -157.55036      0              5573.5674      20.147121      19.971237      20.345203      0              0              0              8186.1554      2223.0836      9303.5056      5194.113       1335.4029     -561.51035     -1899.1165      20.147121      19.971237      20.345203      90             90             90           
    392000   258.57533     -160.29731     -127.8431      -160.29731      0              9918.5722      19.988206      19.850523      20.22115       0              0              0              8023.2739      12461.399      8392.2841      8902.0334     -1343.0148     -1568.083      -3276.9896      19.988206      19.850523      20.22115       90             90             90           
    392500   259.66896     -160.4189      -127.82744     -160.4189       0              4305.7452      19.953071      19.999717      20.246017      0              0              0              8079.2895      6603.0172      736.49382      5577.7246      77.613868      1336.5316     -2430.9049      19.953071      19.999717      20.246017      90             90             90           
    393000   278.323       -160.58939     -125.65662     -160.58939      0              6998.249       19.978878      20.137149      20.328531      0              0              0              8178.5266      8437.313       6480.6513      6076.7826      1742.303       752.78916      1562.3047      19.978878      20.137149      20.328531      90             90             90           
    393500   279.63408     -157.80411     -122.70679     -157.80411      0              3104.8181      20.001512      20.034202      20.322337      0              0              0              8143.4513      5510.3849     -273.55343      4077.6228      500.36033      591.41828     -1958.2391      20.001512      20.034202      20.322337      90             90             90           
    394000   263.24755     -159.03728     -125.99666     -159.03728      0              5670.1217      20.05952       19.781867      20.164155      0              0              0              8001.4343      9713.7768      146.98315      7149.6052     -31.950196     -1612.8259     -1886.2929      20.05952       19.781867      20.164155      90             90             90           
    394500   254.50194     -159.44136     -127.49841     -159.44136      0              6352.8859      20.225137      19.91586       20.16174       0              0              0              8121.169       3790.4671      8887.9043      6380.2864      1263.8396      2215.0126     -1126.7042      20.225137      19.91586       20.16174       90             90             90           
    395000   261.63313     -158.18864     -125.35065     -158.18864      0              1613.7127      20.051028      20.247656      20.150765      0              0              0              8180.935       2383.4698     -802.05456      3259.7228     -1059.7116     -329.57229     -1166.6157      20.051028      20.247656      20.150765      90             90             90           
    395500   261.71378     -159.74802     -126.89991     -159.74802      0              6493.8241      19.727505      20.142391      20.08267       0              0              0              7980.0317      6522.8892      5518.7605      7439.8227      1482.9043      137.37772     -3168.6226      19.727505      20.142391      20.08267       90             90             90           
    396000   253.00051     -159.45837     -127.70387     -159.45837      0              5600.3597      19.999708      19.987202      20.358255      0              0              0              8137.9724      4437.3232      8760.7977      3602.9582      469.2478      -1519.1226     -1163.73        19.999708      19.987202      20.358255      90             90             90           
    396500   264.15307     -161.24779     -128.09352     -161.24779      0              3568.4481      20.122747      19.863864      20.462224      0              0              0              8179.0686      1160.0644      6208.783       3336.497       939.63472      675.36437      1296.1388      20.122747      19.863864      20.462224      90             90             90           
    397000   266.78988     -159.16559     -125.68037     -159.16559      0              6046.3329      19.954956      19.88474       20.249194      0              0              0              8034.8624      3386.2113      9642.7711      5110.0165     -527.57113      837.60265      232.30562      19.954956      19.88474       20.249194      90             90             90           
    397500   262.98319     -158.8251      -125.81765     -158.8251       0              6985.0187      19.951351      20.114408      20.167247      0              0              0              8093.31        10024.256      4426.4205      6504.3792     -610.5359      -1042.1962      222.61803      19.951351      20.114408      20.167247      90             90             90           
    398000   258.386       -158.13323     -125.70279     -158.13323      0              3922.2951      20.089877      20.062807      20.168483      0              0              0              8129.0954      3903.5858      1788.2295      6075.0699     -44.213355     -348.30221     -1457.8774      20.089877      20.062807      20.168483      90             90             90           
    398500   265.53262     -158.36778     -125.04036     -158.36778      0              6572.4165      20.157521      19.843401      20.280728      0              0              0              8112.165       6338.4862      6233.7636      7144.9997     -281.2014       485.96676      788.34136      20.157521      19.843401      20.280728      90             90             90           
    399000   250.71518     -160.39026     -128.92259     -160.39026      0              6599.4532      20.025781      19.803436      20.358941      0              0              0              8073.934       3741.4914      9808.3682      6248.5001     -300.84225      1546.1055      69.992903      20.025781      19.803436      20.358941      90             90             90           
    399500   257.43571     -158.58419     -126.27302     -158.58419      0              5921.5415      19.907462      20.037344      20.391191      0              0              0              8133.8967      8460.5782      2092.9739      7211.0725     -1425.1972     -246.34983     -478.21437      19.907462      20.037344      20.391191      90             90             90           
    400000   261.80239     -160.26808     -127.40885     -160.26808      0              7228.8738      19.886951      20.098638      20.227625      0              0              0              8084.9941      9875.3764      5159.9426      6651.3023     -2436.1707      1554.9837     -2127.7254      19.886951      20.098638      20.227625      90             90             90           
Loop time of 1388.75 on 1 procs for 400000 steps with 972 atoms

Performance: 12.443 ns/day, 1.929 hours/ns, 288.029 timesteps/s
108.6% CPU use with 1 MPI tasks x no OpenMP threads

MPI task timing breakdown:
Section |  min time  |  avg time  |  max time  |%varavg| %total
---------------------------------------------------------------
Pair    | 1065.5     | 1065.5     | 1065.5     |   0.0 | 76.72
Bond    | 0.027116   | 0.027116   | 0.027116   |   0.0 |  0.00
Neigh   | 237.9      | 237.9      | 237.9      |   0.0 | 17.13
Comm    | 10.236     | 10.236     | 10.236     |   0.0 |  0.74
Output  | 54.027     | 54.027     | 54.027     |   0.0 |  3.89
Modify  | 19.939     | 19.939     | 19.939     |   0.0 |  1.44
Other   |            | 1.162      |            |       |  0.08

Nlocal:            972 ave         972 max         972 min
Histogram: 1 0 0 0 0 0 0 0 0 0
Nghost:           4655 ave        4655 max        4655 min
Histogram: 1 0 0 0 0 0 0 0 0 0
Neighs:              0 ave           0 max           0 min
Histogram: 1 0 0 0 0 0 0 0 0 0
FullNghs:       250310 ave      250310 max      250310 min
Histogram: 1 0 0 0 0 0 0 0 0 0

Total # of neighbors = 250310
Ave neighs/atom = 257.52058
Ave special neighs/atom = 0
Neighbor list builds = 40000
Dangerous builds not checked

unfix		3
unfix		2

write_data	data.final.${pid}
write_data	data.final.0
System init for write_data ...
Generated 0 of 1 mixed pair_coeff terms from geometric mixing rule

write_restart   restart.lmp.${pid}
write_restart   restart.lmp.0
System init for write_restart ...
Generated 0 of 1 mixed pair_coeff terms from geometric mixing rule
Total wall time: 0:23:27
