LAMMPS data file via write_data, version 29 Sep 2021, timestep = 400000

864 atoms
2 atom types

0.1497190459780562 18.057853954020512 xlo xhi
0.06644252581135213 23.56273447418888 ylo yhi
0.11946218599655367 22.093733814002263 zlo zhi

Masses

1 1.008
2 15.999

Atoms # full

706 0 1 -1.1794 3.21783408115515 1.5646341110385174 2.8437448469314144 0 0 0
708 0 2 0.5897 2.286079805745291 1.7691878747110614 2.5776757334593423 0 0 0
1 0 1 -1.1794 0.7200157874472283 2.7169532041891737 2.3537754510226385 0 0 0
3 0 2 0.5897 0.5895129805013861 3.5781950433559935 2.710572111512596 0 0 0
20 0 2 0.5897 0.21803227044941767 2.98428181744938 0.5714323341304197 0 0 0
707 0 2 0.5897 3.110101999618879 1.6748499707351379 3.807147289608919 0 0 0
29 0 2 0.5897 4.726084174269638 2.9448826257537646 2.607455954974742 0 0 0
668 0 2 0.5897 4.813221638664498 3.427250897173639 0.18981131745277965 0 0 0
30 0 2 0.5897 5.0704954726658045 4.3747571651790675 2.3240356893207297 0 0 0
28 0 1 -1.1794 5.342532214072277 3.5024106245891033 2.0866345801635218 0 0 0
493 0 1 -1.1794 7.644330837960512 2.0757507279063403 2.7172751373131354 0 0 0
494 0 2 0.5897 7.0139398578290155 2.704807271622403 2.3370922483581675 0 0 0
495 0 2 0.5897 8.475043365311112 2.3581659172106963 2.2369180570226064 0 0 0
819 0 2 0.5897 7.432319698715051 0.2912985915322512 2.2196190142242167 0 0 0
749 0 2 0.5897 10.146658209120123 4.049450984311273 2.307430489147551 0 0 0
748 0 1 -1.1794 10.251912267209361 3.1361940138295186 2.0581099605395083 0 0 0
750 0 2 0.5897 10.082062178334299 3.0729620598206413 1.130331230935764 0 0 0
106 0 1 -1.1794 11.93416695002506 1.669673731190995 3.583608708307976 0 0 0
108 0 2 0.5897 11.293431237745384 2.2764871187722497 3.126955038325984 0 0 0
215 0 2 0.5897 13.167990693432836 2.4794680151252977 2.7825783657910748 0 0 0
63 0 2 0.5897 11.906538181345725 0.2017062693129471 2.6006306723000963 0 0 0
214 0 1 -1.1794 13.932820361820028 2.750581105231051 2.243590014637228 0 0 0
2 0 2 0.5897 17.84192102530716 2.1598511832303777 2.5056740839319014 0 0 0
216 0 2 0.5897 14.052366843892315 3.6595416861223544 2.370354722045483 0 0 0
406 0 1 -1.1794 16.338813326134236 1.2518761512477106 2.615740581712576 0 0 0
408 0 2 0.5897 15.512094452100031 1.7315878629993326 2.426257828014757 0 0 0
407 0 2 0.5897 16.263677961242017 0.2870583738678817 2.5122059760969884 0 0 0
369 0 2 0.5897 13.885758662930536 2.9434836768248305 0.4826603079197417 0 0 0
253 0 1 -1.1794 3.070992802851902 6.698708817873025 2.098531718465739 0 0 0
254 0 2 0.5897 2.7773584568714313 6.99043644842851 1.2084493898080446 0 0 0
255 0 2 0.5897 2.2405586713408403 6.191644221012395 2.4074580398375267 0 0 0
123 0 2 0.5897 2.8722245413859877 8.595850456030808 2.9555260106295536 0 0 0
595 0 1 -1.1794 0.5998233038434306 5.447254774767097 2.8833657032917426 0 0 0
138 0 2 0.5897 4.599965164190404 6.33972092607326 2.7420873947713598 0 0 0
597 0 2 0.5897 0.667562788161262 5.6497229329710015 3.8236311108260344 0 0 0
136 0 1 -1.1794 5.437899277493163 6.01104270216068 3.0638685032677726 0 0 0
65 0 2 0.5897 8.062008108275016 8.216018596576447 2.6796336999463817 0 0 0
415 0 1 -1.1794 7.913918787992335 6.868048706888875 1.817394020162029 0 0 0
416 0 2 0.5897 7.08794195678581 6.499598638419276 2.143781727164753 0 0 0
417 0 2 0.5897 8.60528384867581 6.427425441903488 2.3233433447400444 0 0 0
162 0 2 0.5897 7.539615609906474 6.817901999147719 0.2099251701166292 0 0 0
66 0 2 0.5897 7.945978287868268 9.272208536872412 3.8242020922543167 0 0 0
64 0 1 -1.1794 7.893946243749397 9.14471691717488 2.8443367336067147 0 0 0
137 0 2 0.5897 5.437208621274758 5.853208889801907 4.001458772177935 0 0 0
190 0 1 -1.1794 12.092831617999192 7.368694192565312 2.40773966516596 0 0 0
191 0 2 0.5897 11.839566070835955 7.385816347303618 1.4700174756275513 0 0 0
192 0 2 0.5897 11.984310041541178 8.267562824825252 2.71264160591188 0 0 0
298 0 1 -1.1794 10.147061260530611 5.7373996147234605 3.1951616029269214 0 0 0
299 0 2 0.5897 10.8965531669131 6.392993711463041 3.086042488080448 0 0 0
300 0 2 0.5897 9.985256337741367 5.618607936488155 4.143441026917576 0 0 0
110 0 2 0.5897 13.587542258334597 5.950172816922667 2.682632315600959 0 0 0
109 0 1 -1.1794 14.311619130492087 5.423858835464284 2.991162383887013 0 0 0
596 0 2 0.5897 17.75214604270738 5.908849567818933 2.479268282651043 0 0 0
111 0 2 0.5897 15.124603816481399 5.885304795440297 2.744917490968856 0 0 0
838 0 1 -1.1794 16.574636018418712 6.792381558485601 2.145259449019037 0 0 0
839 0 2 0.5897 16.71898601987247 7.723103423381889 2.3851126375813956 0 0 0
840 0 2 0.5897 16.232923638153206 6.868799806533937 1.223068812031232 0 0 0
122 0 2 0.5897 2.7653810487128037 9.662638232477674 4.03927906719862 0 0 0
121 0 1 -1.1794 3.037262079398616 9.561733010838434 3.102840926739918 0 0 0
44 0 2 0.5897 1.750074958436946 11.108093925530687 2.2989261923228304 0 0 0
45 0 2 0.5897 0.6360373924629539 12.107071860046075 2.482673253862606 0 0 0
43 0 1 -1.1794 0.7709601614551428 11.204501427990785 2.1722326007362303 0 0 0
373 0 1 -1.1794 0.6922860299066048 13.744495647395233 3.241735860053951 0 0 0
374 0 2 0.5897 0.6987603306458717 13.777666174587738 4.170527226295777 0 0 0
173 0 2 0.5897 4.467834219559366 13.281849805062713 2.423039695114846 0 0 0
396 0 2 0.5897 0.3890399372604029 11.049485979586631 0.31100007812081865 0 0 0
219 0 2 0.5897 4.661325821091519 9.937139019421004 2.6062868803429033 0 0 0
172 0 1 -1.1794 5.2758294317880035 12.977816850051738 2.8745137942482883 0 0 0
174 0 2 0.5897 5.20434274006599 12.013689121079738 2.9036283442287036 0 0 0
217 0 1 -1.1794 5.423263031325958 10.493178730335817 2.422472899535447 0 0 0
218 0 2 0.5897 6.218153457259397 10.061963219588716 2.718457919442118 0 0 0
363 0 2 0.5897 5.408183159567968 10.920110305682371 0.5773989587199757 0 0 0
480 0 2 0.5897 6.894264442004858 13.972345728974087 2.3069303682934073 0 0 0
479 0 2 0.5897 8.362821407349712 14.162668754587584 2.531711724392064 0 0 0
773 0 2 0.5897 9.324753363899065 9.880967031878807 2.215077085687773 0 0 0
91 0 1 -1.1794 12.068522124347643 9.990583465310456 3.327352437410704 0 0 0
92 0 2 0.5897 11.96105358670005 10.184651100272811 4.269863644883337 0 0 0
774 0 2 0.5897 9.729013259992831 10.611942234021972 0.8830663547489397 0 0 0
772 0 1 -1.1794 9.991262602728247 10.520092994071966 1.858551189081217 0 0 0
154 0 1 -1.1794 9.577502663247667 12.989764592352401 2.7267199755133458 0 0 0
156 0 2 0.5897 9.430980039732402 12.142013329953103 2.2136138564235663 0 0 0
93 0 2 0.5897 11.295233241288296 10.305085644705013 2.834505992823173 0 0 0
806 0 2 0.5897 9.812097369533229 13.202637141241976 4.3981140175065825 0 0 0
560 0 2 0.5897 12.627786456558631 13.853809576150004 2.132568208102176 0 0 0
155 0 2 0.5897 10.482055838367742 13.38595175054784 2.482644910781647 0 0 0
860 0 2 0.5897 13.68531978081029 10.552512966281359 2.6622002172784724 0 0 0
842 0 2 0.5897 16.86027583286437 9.66765001008823 3.826150354393942 0 0 0
841 0 1 -1.1794 16.73363335660095 9.540883408427554 2.893509112615124 0 0 0
859 0 1 -1.1794 14.49934336715184 10.878661216156841 2.233019600893344 0 0 0
55 0 1 -1.1794 14.384188192717176 13.571928592633869 2.695725457517687 0 0 0
57 0 2 0.5897 14.568351658920106 12.59438318375352 2.603561815379462 0 0 0
843 0 2 0.5897 17.49232273334925 10.078693396921436 2.5266968315209275 0 0 0
861 0 2 0.5897 15.17728995030541 10.191499374212109 2.4219505563196453 0 0 0
56 0 2 0.5897 14.355520690634869 13.792379523467025 3.6056344486127396 0 0 0
152 0 2 0.5897 14.154825695386844 11.233108394237872 0.44728910785758547 0 0 0
557 0 2 0.5897 2.2154259516418757 14.215322807119692 2.3086091010635794 0 0 0
556 0 1 -1.1794 3.09130489022202 14.341193059110948 1.8688920415559476 0 0 0
558 0 2 0.5897 2.9214536303425014 14.421972604139153 0.9184438054008813 0 0 0
292 0 1 -1.1794 3.217898262161897 16.892512784733157 2.915075312219213 0 0 0
293 0 2 0.5897 3.3833707414603986 16.009928474700253 2.5233305769301393 0 0 0
344 0 2 0.5897 1.8806514604470506 18.040271650040133 2.478030841869826 0 0 0
345 0 2 0.5897 1.1773918824861684 18.417503011151993 1.10178282484196 0 0 0
294 0 2 0.5897 3.396464892478352 16.778971115629226 3.845330725565808 0 0 0
343 0 1 -1.1794 1.0415156567724742 18.34543749877409 2.058355612455679 0 0 0
227 0 2 0.5897 4.507890833507214 18.116362158578006 2.5920552274861537 0 0 0
478 0 1 -1.1794 7.497031236264533 14.69032909338777 2.4097399044600945 0 0 0
448 0 1 -1.1794 7.6165314986215344 17.522174857205876 2.8428512415679146 0 0 0
449 0 2 0.5897 7.702756410736762 16.571114857427 2.758134982226044 0 0 0
450 0 2 0.5897 6.720427107596031 17.73965904555292 2.441728027979566 0 0 0
317 0 2 0.5897 7.19288945390945 15.015866553219855 0.744768151981403 0 0 0
321 0 2 0.5897 8.971101763602638 18.410589543669367 2.302933890377232 0 0 0
226 0 1 -1.1794 5.284889054820272 18.527625722699852 2.1340843958512083 0 0 0
559 0 1 -1.1794 11.764862920219413 14.256555898593312 1.924885517966222 0 0 0
561 0 2 0.5897 11.674195663588632 14.31088853824486 0.9050145344367071 0 0 0
832 0 1 -1.1794 11.93744666289831 17.066942661906403 3.015990876543808 0 0 0
833 0 2 0.5897 12.790380391417994 17.550564834760188 2.7692222274031466 0 0 0
834 0 2 0.5897 11.981024123777535 16.198475299968337 2.6738847541955715 0 0 0
320 0 2 0.5897 10.475072013398954 18.306534370051658 2.466040277315804 0 0 0
375 0 2 0.5897 17.85939466547807 14.182761891865306 2.8799439325200153 0 0 0
179 0 2 0.5897 15.685423148919504 14.642935484449788 2.356181201267982 0 0 0
746 0 2 0.5897 17.27026518118091 18.086222972771125 2.4350931031317518 0 0 0
178 0 1 -1.1794 16.50113406791822 15.152645562800824 2.2296703369108677 0 0 0
180 0 2 0.5897 16.33279486850021 16.026232344092442 2.687980812636294 0 0 0
745 0 1 -1.1794 16.49028111883779 17.803838840069837 2.965304884464954 0 0 0
747 0 2 0.5897 15.694589919435456 18.117216197771526 2.5332292058159784 0 0 0
614 0 2 0.5897 16.20745110365732 15.275899686700875 0.42715131692625263 0 0 0
304 0 1 -1.1794 14.065668692596846 18.65569259150304 2.13064827014108 0 0 0
305 0 2 0.5897 13.801397459518936 18.756498134313567 1.1668665351432763 0 0 0
188 0 2 0.5897 3.3094673785926685 23.48806443765247 2.0257266480713687 0 -1 0
187 0 1 -1.1794 3.214470914345682 22.552482449603033 1.8109055266447014 0 0 0
189 0 2 0.5897 3.0000796470079107 22.512412985821918 0.8770574023822074 0 0 0
694 0 1 -1.1794 0.8617566961988864 20.93600470261557 2.8257476135883595 0 0 0
695 0 2 0.5897 1.0021504967675385 19.966551499285764 2.712350639495206 0 0 0
696 0 2 0.5897 1.6241060009337696 21.448517472889094 2.4779884873970675 0 0 0
266 0 2 0.5897 4.681760727061656 21.76743317615675 2.4341240919361535 0 0 0
228 0 2 0.5897 5.303119214625094 19.410132802980698 2.5332358740044882 0 0 0
265 0 1 -1.1794 5.45064250424632 21.264273643242944 2.7920497710138883 0 0 0
267 0 2 0.5897 6.1989230825530655 21.726891718679816 2.424262020358358 0 0 0
817 0 1 -1.1794 7.530916810370969 22.8948759337568 1.8217286282089422 0 0 0
818 0 2 0.5897 8.301847810131344 22.43839991010475 2.2546623108471002 0 0 0
319 0 1 -1.1794 9.783401619255693 18.894449926905033 2.0694796820012815 0 0 0
61 0 1 -1.1794 12.094372156425337 22.956901552523078 1.9891779978135775 0 0 0
62 0 2 0.5897 12.786522605109495 22.37771011230452 2.2624760037855487 0 0 0
397 0 1 -1.1794 9.822328500121596 21.566031118018742 2.918164351349982 0 0 0
398 0 2 0.5897 9.89021956626803 20.634470712819542 2.7025746003468702 0 0 0
399 0 2 0.5897 10.619163111964884 21.85563537110356 2.4355359634141602 0 0 0
425 0 2 0.5897 11.71281961336783 23.14014793492735 0.3500707649651179 0 0 0
389 0 2 0.5897 9.51454458699375 19.102698062733396 0.3186344794688032 0 0 0
306 0 2 0.5897 14.069294667421346 19.54988628106004 2.459298198024175 0 0 0
118 0 1 -1.1794 13.963536187159596 21.32302046175041 2.8804043536325143 0 0 0
729 0 2 0.5897 16.988184835278922 21.55308022366207 2.3120236733322637 0 0 0
120 0 2 0.5897 14.86948006774578 21.606333963673833 2.578204175268778 0 0 0
727 0 1 -1.1794 16.28194118956206 21.952593718996013 1.8194157287343027 0 0 0
728 0 2 0.5897 16.46377054967866 22.265589492640856 0.9647042179699796 0 0 0
119 0 2 0.5897 13.875003438758577 21.416342652610524 3.787444009631218 0 0 0
487 0 1 -1.1794 3.272444634764233 1.813798608839457 5.661688926311529 0 0 0
488 0 2 0.5897 2.4136916972622444 2.2490169335172627 5.968847582321445 0 0 0
489 0 2 0.5897 3.167876250521587 0.8518088113173056 5.794915418532946 0 0 0
784 0 1 -1.1794 0.8707702786627018 2.926530972546149 6.513665339520486 0 0 0
785 0 2 0.5897 0.6932704593992544 2.9409499453940335 7.521660869695476 0 0 0
83 0 2 0.5897 4.981421158263108 2.7448258717261496 6.28667417664725 0 0 0
846 0 2 0.5897 7.779251907088787 1.768191177872767 4.553679118041817 0 0 0
82 0 1 -1.1794 5.705007649572335 3.3033375421737827 6.593586557204472 0 0 0
84 0 2 0.5897 6.52913741466784 2.8584059549587866 6.344523315046093 0 0 0
844 0 1 -1.1794 7.953009820468875 1.6874943562088376 5.502571721595926 0 0 0
845 0 2 0.5897 7.93548948166849 0.7697922674097106 5.80134250598607 0 0 0
275 0 2 0.5897 5.610037846696497 3.0608320775369773 8.350640512664317 0 0 0
107 0 2 0.5897 11.766596307181336 1.804526243292648 4.52608878274753 0 0 0
419 0 2 0.5897 9.303966773992547 2.6227838748675363 6.150438543551436 0 0 0
177 0 2 0.5897 9.636010710880544 3.10022290807981 8.479808187708551 0 0 0
420 0 2 0.5897 9.762440699603397 4.080296762094468 6.420284544494495 0 0 0
418 0 1 -1.1794 9.703335579797606 3.1882725225618467 6.814130656215348 0 0 0
802 0 1 -1.1794 12.157943901610821 2.0140336075239116 6.239358027046552 0 0 0
803 0 2 0.5897 11.442401141659928 2.506083196572469 6.73289149733621 0 0 0
804 0 2 0.5897 13.001436309041665 2.5023396343900046 6.445713560315225 0 0 0
171 0 2 0.5897 12.195497040762005 0.15549705077756276 6.541741381441295 0 0 0
786 0 2 0.5897 17.964753371016904 2.4953825191430274 6.224857815787289 0 0 0
660 0 2 0.5897 16.571496294308147 1.487059372015496 4.6648358341264045 0 0 0
436 0 1 -1.1794 14.563344362497688 3.2284752750216663 7.331755782970033 0 0 0
437 0 2 0.5897 14.597527680346085 3.033756995422676 8.27786214080124 0 0 0
438 0 2 0.5897 15.236866509267568 2.7174659654673285 6.91409580169282 0 0 0
658 0 1 -1.1794 16.707035406029153 1.3771343439174781 5.612273362349972 0 0 0
659 0 2 0.5897 16.72146921732621 0.43477323939820023 5.788581190875464 0 0 0
183 0 2 0.5897 0.3616354552371005 5.127532643035145 6.1087900162535265 0 0 0
10 0 1 -1.1794 2.8796166613007026 7.356261443288854 6.355925739040291 0 0 0
11 0 2 0.5897 2.0406033385161897 6.913450095357873 6.1959812452236465 0 0 0
12 0 2 0.5897 2.8675433099416643 8.380704886051168 6.269293544801263 0 0 0
650 0 2 0.5897 3.2409296957489366 6.625048497444457 8.302571916896682 0 0 0
181 0 1 -1.1794 0.4069340184992997 6.032971813576907 5.753743368259037 0 0 0
687 0 2 0.5897 4.385357325242689 6.470135926390605 6.073726904145074 0 0 0
686 0 2 0.5897 5.168788406088115 5.144740592925386 6.489526814609721 0 0 0
685 0 1 -1.1794 5.215285088616139 5.960327081381369 5.966437861692294 0 0 0
145 0 1 -1.1794 7.734135115873835 6.960457274940289 6.868905386571932 0 0 0
146 0 2 0.5897 6.916088175735111 6.47440349005963 6.776013907452244 0 0 0
147 0 2 0.5897 7.868327775818006 7.033783296087279 7.838344396064865 0 0 0
714 0 2 0.5897 8.005289372085867 8.562064806494085 5.857704845368861 0 0 0
712 0 1 -1.1794 8.14758953959943 9.450976013063826 5.548304035232816 0 0 0
165 0 2 0.5897 9.245733441971344 6.26358432064164 6.44920349408146 0 0 0
163 0 1 -1.1794 10.022866541870895 5.837361767036369 6.039750255426081 0 0 0
164 0 2 0.5897 10.7679838718995 6.399739575734051 6.307733191821926 0 0 0
230 0 2 0.5897 12.09094374723713 8.806213492562685 6.24197370231621 0 0 0
391 0 1 -1.1794 12.357112609229478 7.029303553634813 6.813743602103957 0 0 0
392 0 2 0.5897 12.528370838152256 6.960319551850787 7.737770674423809 0 0 0
393 0 2 0.5897 12.997252719651245 6.460010861789585 6.357731725223459 0 0 0
732 0 2 0.5897 14.513852608641024 4.869059765246022 6.325815404693751 0 0 0
182 0 2 0.5897 17.54543053637717 6.479753699019696 6.2070905990938705 0 0 0
731 0 2 0.5897 14.265991136963052 5.3594301565643345 4.766543554255577 0 0 0
730 0 1 -1.1794 14.364834046561619 5.597862981696946 5.715280842675452 0 0 0
525 0 2 0.5897 16.665338660148418 8.996733087075674 6.182470117805097 0 0 0
541 0 1 -1.1794 16.33885721444521 7.17229337018795 6.887788977293957 0 0 0
542 0 2 0.5897 15.46340958481113 6.9917809984700705 6.611220088157819 0 0 0
543 0 2 0.5897 16.42139286648541 6.922190050937881 7.8302067867833305 0 0 0
793 0 1 -1.1794 3.0639494934571565 9.902027479891558 5.960763614970144 0 0 0
794 0 2 0.5897 2.5099340528816363 10.588719001199978 6.333370017965269 0 0 0
551 0 2 0.5897 0.6111854828318364 11.423451998381182 7.93542670711381 0 0 0
795 0 2 0.5897 3.9449395619413363 10.188459784488572 6.1780565949331265 0 0 0
550 0 1 -1.1794 0.7290393325340504 11.331117574395662 6.966561457455418 0 0 0
552 0 2 0.5897 0.6563592413036683 12.238380437323835 6.584950208098127 0 0 0
655 0 1 -1.1794 0.8124094387106053 13.760725695164654 5.833342861805468 0 0 0
656 0 2 0.5897 1.7271820751737346 14.058666767350275 6.113230505369778 0 0 0
18 0 2 0.5897 4.147798331859605 14.127131632291864 6.558050437167112 0 0 0
200 0 2 0.5897 5.28934515333735 13.402387027632733 4.569613339012114 0 0 0
577 0 1 -1.1794 5.630944856494777 10.857280496594631 6.822736764580825 0 0 0
578 0 2 0.5897 6.314442262312322 10.357429896814352 6.398869092463584 0 0 0
579 0 2 0.5897 5.578393550642277 11.784893342414708 6.374724172792186 0 0 0
582 0 2 0.5897 5.435040020761896 10.71782227926768 8.500003706052361 0 0 0
713 0 2 0.5897 8.811081617668316 9.89451946511842 6.144500241636201 0 0 0
199 0 1 -1.1794 5.396656390930081 13.478516374132724 5.524216468896888 0 0 0
201 0 2 0.5897 6.230931517059825 13.999959573778295 5.679178537902627 0 0 0
229 0 1 -1.1794 12.120692082750171 9.7427002697075 6.226192980329426 0 0 0
231 0 2 0.5897 12.895841360898634 10.07181983391187 6.738853989586714 0 0 0
805 0 1 -1.1794 9.722746081436505 13.309693236531082 5.349249142128835 0 0 0
807 0 2 0.5897 9.885866855418142 12.409737845151541 5.68577422707789 0 0 0
741 0 2 0.5897 10.097116614219322 10.95294982558046 7.908741862689719 0 0 0
739 0 1 -1.1794 10.028905708885043 10.998728001018621 6.938348072953939 0 0 0
740 0 2 0.5897 10.843880146902388 10.508305939761172 6.672706317679113 0 0 0
642 0 2 0.5897 11.160230112724987 14.06390880733086 6.056505082045054 0 0 0
523 0 1 -1.1794 16.783482165986346 9.824203737684302 5.713572338224525 0 0 0
524 0 2 0.5897 17.535360690725636 10.318607467300891 6.204627175161491 0 0 0
634 0 1 -1.1794 14.39483210475176 11.234362501076813 6.749939576559185 0 0 0
635 0 2 0.5897 15.166348402447426 10.796909501707452 6.384684037942839 0 0 0
636 0 2 0.5897 14.432801520164722 12.19060542329191 6.438467172843869 0 0 0
857 0 2 0.5897 14.510371407966042 10.858933971473995 8.592590612847617 0 0 0
724 0 1 -1.1794 14.398327310348408 13.866838183183361 5.713387666371245 0 0 0
657 0 2 0.5897 0.17040097533121 14.320599549627048 6.278428973291804 1 0 0
16 0 1 -1.1794 3.323446520278867 14.603978055697757 6.717585668260054 0 0 0
17 0 2 0.5897 3.2651337675809775 14.655821117080336 7.680576134352206 0 0 0
238 0 1 -1.1794 3.740308743296306 17.059745469164127 5.625687791320807 0 0 0
239 0 2 0.5897 3.5438535910030415 16.162621320506815 5.970352712746525 0 0 0
240 0 2 0.5897 4.5530985808491895 17.463391960713764 6.017606314367852 0 0 0
341 0 2 0.5897 2.4364684625079476 17.881663341880795 6.3594197278072455 0 0 0
340 0 1 -1.1794 1.5886673202878896 18.36538176800586 6.593719008139149 0 0 0
342 0 2 0.5897 1.5829168346292255 18.437792716884864 7.570093397176784 0 0 0
308 0 2 0.5897 7.690780435775713 17.345328136071863 4.704333364723289 0 0 0
519 0 2 0.5897 8.225432367573312 14.359231143917697 6.031256966864441 0 0 0
517 0 1 -1.1794 7.43587162189555 14.836329531678512 6.326497115478853 0 0 0
307 0 1 -1.1794 7.804670129074281 17.380771953228425 5.712574228451482 0 0 0
378 0 2 0.5897 7.534590166664882 14.869094366150737 7.971259402412562 0 0 0
518 0 2 0.5897 7.520619591521519 15.785930930948375 6.1185179465530695 0 0 0
309 0 2 0.5897 8.487682139792076 18.015309757073915 5.9387888134934075 0 0 0
386 0 2 0.5897 6.610968205779507 18.65673538626168 6.193786277869776 0 0 0
102 0 2 0.5897 5.547574788213349 18.853197154419526 8.065833224857396 0 0 0
376 0 1 -1.1794 7.537067090724364 15.189009226749024 8.904167143137993 0 0 0
726 0 2 0.5897 13.522844000068753 14.221648219710389 5.959711875853268 0 0 0
645 0 2 0.5897 11.848161283752106 17.254024338618073 4.706126969440489 0 0 0
640 0 1 -1.1794 11.862223748195365 14.671929376539412 6.346032723913575 0 0 0
641 0 2 0.5897 11.81968779019472 14.749927962455736 7.29306375262831 0 0 0
643 0 1 -1.1794 12.025476242470237 17.320827998284507 5.673470170852562 0 0 0
644 0 2 0.5897 11.876624914013679 16.40728148262869 6.055184535460264 0 0 0
303 0 2 0.5897 10.592020891474467 18.39951046895827 6.1821980094182685 0 0 0
734 0 2 0.5897 10.187193177525117 18.48980826142904 8.385209114430968 0 0 0
348 0 2 0.5897 13.498483025228436 18.341120583936792 6.296412745208538 0 0 0
725 0 2 0.5897 15.009268837901365 14.279777710588327 6.345666122508562 0 0 0
564 0 2 0.5897 16.967623585370436 17.67866702791541 4.92100013284089 0 0 0
205 0 1 -1.1794 16.578067847549494 15.060918404954274 6.891094763325594 0 0 0
563 0 2 0.5897 17.644584598177634 17.838209294235696 6.32532854535464 0 0 0
206 0 2 0.5897 16.476348092837643 15.976594018739624 6.57984899020779 0 0 0
207 0 2 0.5897 16.65070272441109 15.020021068364281 7.863395447711572 0 0 0
562 0 1 -1.1794 16.85286814422551 17.556890682898306 5.942325133992922 0 0 0
347 0 2 0.5897 15.057941191485451 18.183175201051945 6.175670463242391 0 0 0
346 0 1 -1.1794 14.347384969700784 18.81228479980397 6.413548550270286 0 0 0
371 0 2 0.5897 14.596568017561593 18.706354359547895 8.10658618002963 0 0 0
413 0 2 0.5897 0.8827953347931009 21.04040011671185 4.625265603051751 0 0 0
700 0 1 -1.1794 3.229274146847069 22.609886271235133 6.535607466754997 0 0 0
701 0 2 0.5897 3.1882078799389926 22.57208841884937 7.505563099469062 0 0 0
702 0 2 0.5897 2.457673599117396 22.149811861104077 6.223045547094615 0 0 0
412 0 1 -1.1794 1.0157437097519968 20.972064820754575 5.59385940924051 0 0 0
414 0 2 0.5897 1.0704789294634494 20.007681050473295 5.847695381562356 0 0 0
385 0 1 -1.1794 5.756703441514343 19.04706407386304 6.318824053905319 0 0 0
248 0 2 0.5897 4.687770229693597 22.004011593858948 5.903176564358816 0 0 0
249 0 2 0.5897 5.299689857979556 21.56621180467898 4.592564847185324 0 0 0
247 0 1 -1.1794 5.433591109735792 21.54920986890688 5.520050131050017 0 0 0
31 0 1 -1.1794 7.88477126501984 22.77191048607215 6.5400719760922765 0 0 0
33 0 2 0.5897 7.151282972218569 22.28971002598906 6.102530079306212 0 0 0
387 0 2 0.5897 5.668886348353325 19.99411511775579 6.019521321297894 0 0 0
32 0 2 0.5897 8.72009873412309 22.438262960377834 6.1876867182486714 0 0 0
86 0 2 0.5897 7.697735188611943 22.895653418297485 8.269947485697882 0 0 0
591 0 2 0.5897 10.03611624512562 21.64079003584409 4.697738728725471 0 0 0
301 0 1 -1.1794 9.805943309364789 18.872087779019438 6.501237473773517 0 0 0
169 0 1 -1.1794 12.331935533816957 22.708670858700998 6.701870338996609 0 0 0
170 0 2 0.5897 13.133141426330969 22.407854986413554 6.165651594747469 0 0 0
302 0 2 0.5897 9.928043927688147 19.77501166667868 6.198374441716171 0 0 0
589 0 1 -1.1794 10.185550434322948 21.670464719133875 5.661949259761004 0 0 0
590 0 2 0.5897 11.068281050910201 21.979312980361996 5.918031303245398 0 0 0
330 0 2 0.5897 12.205863352619138 22.722015867520682 8.357739322511515 0 0 0
532 0 1 -1.1794 14.39792303393579 21.464005351912974 5.688863873635536 0 0 0
352 0 1 -1.1794 16.727301548532882 22.192223203357933 6.6321699674935175 0 0 0
353 0 2 0.5897 17.58098017510574 21.717553869361836 6.383019647801563 0 0 0
354 0 2 0.5897 16.65696638683255 22.25128766029073 7.582917543200912 0 0 0
533 0 2 0.5897 15.257165420028494 21.724256889404174 6.064946660722334 0 0 0
534 0 2 0.5897 14.386853159781273 20.480904228622542 5.7957865355731455 0 0 0
34 0 1 -1.1794 0.8887012110556678 3.0571648862258325 9.38980921600456 0 0 0
35 0 2 0.5897 0.8038878975174335 3.9648811210384687 9.768856441119226 0 0 0
36 0 2 0.5897 1.769747719632561 2.6332834203594313 9.624005493723171 0 0 0
167 0 2 0.5897 2.876646040895396 2.073821104084507 11.983977898448952 0 0 0
673 0 1 -1.1794 3.070473169229635 1.8496043627365024 10.201493819510599 0 0 0
674 0 2 0.5897 3.7334487724681416 2.2200130473542 9.629768608689842 0 0 0
675 0 2 0.5897 3.067498514060217 0.8550622503687747 10.057200868876675 0 0 0
166 0 1 -1.1794 2.8674251731651506 2.075440077222616 12.942921865377306 0 0 0
168 0 2 0.5897 2.096995166213956 2.5536153918688704 13.236154489384804 0 0 0
274 0 1 -1.1794 5.393072618957574 3.1112292094227336 9.30219425314772 0 0 0
276 0 2 0.5897 6.133715876392208 2.7045590562600714 9.730168219404176 0 0 0
355 0 1 -1.1794 7.484976552053496 1.6709503103066385 10.529892451953046 0 0 0
356 0 2 0.5897 7.507113903744485 0.7730055788489838 10.219995586620328 0 0 0
357 0 2 0.5897 7.607840565139606 1.6637872208338524 11.495806438095606 0 0 0
176 0 2 0.5897 9.00887976389904 2.5853026129538494 9.837909715849023 0 0 0
592 0 1 -1.1794 7.560546711870845 1.8230581449700254 13.246997466272848 0 0 0
175 0 1 -1.1794 9.849379082609099 2.9844355011489174 9.448286194484348 0 0 0
514 0 1 -1.1794 12.085101748520046 1.5750553471219397 10.476180456635138 0 0 0
515 0 2 0.5897 12.096881901247649 1.5453582898167941 11.413533414193008 0 0 0
516 0 2 0.5897 11.467879793988983 2.2327620633241754 10.160460644863054 0 0 0
329 0 2 0.5897 12.139231159121842 0.17629754929777153 9.502758536170594 0 1 0
705 0 2 0.5897 10.10306278528627 4.681976062287143 9.93358150491903 0 0 0
757 0 1 -1.1794 12.409683703952556 1.4075951845651828 13.17594041131135 0 0 0
849 0 2 0.5897 13.889342016689849 2.0523788990788114 10.224369223286686 0 0 0
847 0 1 -1.1794 14.758994086460785 2.404216040691171 9.921420279217765 0 0 0
652 0 1 -1.1794 17.050034391980603 1.2260129203534074 10.789812160100759 0 0 0
653 0 2 0.5897 17.12597327163351 1.6006635825791782 11.676293732877506 0 0 0
654 0 2 0.5897 17.78656845489734 1.6688833889287884 10.32551599975323 0 0 0
848 0 2 0.5897 15.461258144820242 2.010895927929841 10.451310643565737 0 0 0
545 0 2 0.5897 14.743695244738625 4.389321787679593 10.24556581334455 0 0 0
649 0 1 -1.1794 3.1965083172414652 6.667119081071282 9.251303511258982 0 0 0
112 0 1 -1.1794 0.7575926208275287 5.544110916736736 10.385806893647493 0 0 0
113 0 2 0.5897 0.8447537012880489 5.607021872245356 11.342087554531448 0 0 0
114 0 2 0.5897 1.5475344897428305 5.85482141081784 9.862203931972248 0 0 0
257 0 2 0.5897 2.8221273586136677 8.586084995642885 9.926204465032924 0 0 0
651 0 2 0.5897 4.11119019086747 6.374297426752423 9.465405178619488 0 0 0
256 0 1 -1.1794 2.920736665416645 9.413701846825548 10.414940402452583 0 0 0
364 0 1 -1.1794 0.9253899943685105 5.649235717013963 13.079019308198523 0 0 0
678 0 2 0.5897 5.656884230280369 4.835790026798998 9.849008286170651 0 0 0
526 0 1 -1.1794 8.060011121357103 7.321167870053415 9.673698735589007 0 0 0
527 0 2 0.5897 8.14184111007625 8.206621279384741 10.022837141449456 0 0 0
528 0 2 0.5897 8.659512443285767 6.755423931162997 10.100048377526052 0 0 0
676 0 1 -1.1794 5.702320362341905 5.715894501466052 10.31089311024041 0 0 0
677 0 2 0.5897 6.536665037828738 6.10010340732131 9.9987975338257 0 0 0
761 0 2 0.5897 5.020830335653693 5.788581879437024 12.202304050921503 0 0 0
760 0 1 -1.1794 4.828743638499487 5.689541144697446 13.108292485947207 0 0 0
475 0 1 -1.1794 7.496434150980729 9.449893703663673 13.07053190012314 0 0 0
851 0 2 0.5897 8.994031446425469 5.708135502061606 13.266884311937842 0 0 0
313 0 1 -1.1794 12.382734099367129 6.937277763600473 9.648768112071819 0 0 0
703 0 1 -1.1794 10.072912943376355 5.5709775781468105 10.327219353483837 0 0 0
314 0 2 0.5897 11.57173667228702 6.542070451538311 9.897870756471654 0 0 0
315 0 2 0.5897 13.056999598563452 6.277514264320978 10.015649732286626 0 0 0
444 0 2 0.5897 12.193590259731236 8.703935781068637 10.046218752096655 0 0 0
704 0 2 0.5897 10.379262981315442 5.359483072044049 11.23188259091321 0 0 0
850 0 1 -1.1794 9.840467011198335 5.28973896866304 13.273622068546594 0 0 0
622 0 1 -1.1794 16.40270336636633 6.9417329783737465 9.864011390817033 0 0 0
816 0 2 0.5897 14.303607486463163 5.678208424201842 12.28130139574676 0 0 0
544 0 1 -1.1794 14.51363963760656 5.285316918622494 10.38993466572979 0 0 0
546 0 2 0.5897 15.254974146780743 5.841103741946825 10.149599538972302 0 0 0
623 0 2 0.5897 17.276236376550138 6.581802632373422 9.97322445993031 0 0 0
624 0 2 0.5897 16.506360305985382 7.902209643502563 10.059580748288969 0 0 0
814 0 1 -1.1794 14.175909121645827 5.6604129313822975 13.2216415295884 0 0 0
796 0 1 -1.1794 2.7593474001743554 9.707416815123361 13.242180951737927 0 0 0
797 0 2 0.5897 2.636392897770455 9.753021318945553 12.259302238159176 0 0 0
13 0 1 -1.1794 0.6807497374511544 10.932306553872538 9.829032547271822 0 0 0
14 0 2 0.5897 0.8251237409245303 11.825066975445065 10.170281738388717 0 0 0
15 0 2 0.5897 1.6279310310832256 10.552039785127123 9.948473867206625 0 0 0
258 0 2 0.5897 3.8089452987110937 9.642512589863003 10.226872726158843 0 0 0
767 0 2 0.5897 1.0572661393667713 13.524691492952298 11.434830916858933 0 0 0
766 0 1 -1.1794 1.0511821940512038 13.639521297839531 10.450961454545897 0 0 0
637 0 1 -1.1794 0.6743189678957089 13.400540870487061 13.26412571275899 0 0 0
768 0 2 0.5897 0.19257830707685591 13.95983647268959 10.167420981644755 1 0 0
821 0 2 0.5897 7.757451943407382 9.861359923849786 11.308208279358032 0 0 0
820 0 1 -1.1794 7.807563781326944 10.020646621448817 10.307017711763853 0 0 0
580 0 1 -1.1794 5.358312606832551 10.635740657027606 9.50758213531013 0 0 0
581 0 2 0.5897 6.2766191040825134 10.457722594060536 9.744168476790009 0 0 0
454 0 1 -1.1794 5.525721879182518 13.33333364388539 10.230939557055683 0 0 0