LAMMPS (29 Sep 2021 - Update 2)
  using 1 OpenMP thread(s) per MPI task
plugin load libdeepmd_lmp.so
Loading plugin: deepmd pair style v2.0 by Han Wang
Loading plugin: compute deeptensor/atom v2.0 by Han Wang
Loading plugin: fix dplr v2.0 by Han Wang
echo both

include		in.partitions
variable        pid world 0
include		in.temp
variable        temperature equal 260
variable        tempDamp equal 0.100
include		in.pressure
variable        pressure equal 1973.846
variable        pressureDamp equal 1.0 # This is 1 ps
include		in.seed
variable        seed world 745823

units           metal
atom_style	full
include		in.box
read_data       water.data
Reading data file ...
  orthogonal box = (0.0000000 0.0000000 0.0000000) to (18.207573 23.629177 22.213196)
  1 by 1 by 1 MPI processor grid
  reading atoms ...
  864 atoms
  reading velocities ...
  864 velocities
Finding 1-2 1-3 1-4 neighbors ...
  special bond factors lj:    0        0        0       
  special bond factors coul:  0        0        0       
     0 = max # of 1-2 neighbors
     0 = max # of 1-3 neighbors
     0 = max # of 1-4 neighbors
     1 = max # of special neighbors
  special bonds CPU = 0.000 seconds
  read_data CPU = 0.035 seconds
include 	in.setup
variable	out_freq equal 500
variable	out_freq2 equal 500

timestep        0.0005

neigh_modify    delay 7 every 1

include         in.deepmd
# This is deepMD model

# create groups ###
#group ox type 2
#group hy type 1

mass 2 15.999
mass 1 1.008

pair_style      deepmd ../graph.pb
pair_coeff      * *

bond_style      none
angle_style     none
dihedral_style  none
improper_style  none
neigh_modify exclude none


neighbor        2.0 bin
neigh_modify    every 10 delay 0 check no

thermo          ${out_freq}
thermo          500
thermo_style 	custom step temp pe etotal epair emol press lx ly lz xy xz yz vol pxx pyy pzz pxy pxz pyz cella cellb cellc cellalpha cellbeta cellgamma


restart 	${out_freq} restart.lmp.${pid} restart2.lmp.${pid}
restart 	500 restart.lmp.${pid} restart2.lmp.${pid}
restart 	500 restart.lmp.0 restart2.lmp.${pid}
restart 	500 restart.lmp.0 restart2.lmp.0


include         in.dump
dump            myDump all atom ${out_freq2} dump.water.${pid}
dump            myDump all atom 500 dump.water.${pid}
dump            myDump all atom 500 dump.water.0
dump            myDump2 all dcd ${out_freq2} dump.dcd
dump            myDump2 all dcd 500 dump.dcd
dump_modify     myDump append yes
dump_modify     myDump2 append yes


timer           timeout 23:50:00 every 1000
New timer settings: style=normal  mode=nosync  timeout=23:50:00

fix             2 all nph aniso ${pressure} ${pressure} ${pressureDamp}
fix             2 all nph aniso 1973.846 ${pressure} ${pressureDamp}
fix             2 all nph aniso 1973.846 1973.846 ${pressureDamp}
fix             2 all nph aniso 1973.846 1973.846 1
fix             3 all temp/csvr ${temperature} ${temperature} ${tempDamp} ${seed}
fix             3 all temp/csvr 260 ${temperature} ${tempDamp} ${seed}
fix             3 all temp/csvr 260 260 ${tempDamp} ${seed}
fix             3 all temp/csvr 260 260 0.1 ${seed}
fix             3 all temp/csvr 260 260 0.1 745823
velocity 	all create ${temperature} ${seed} dist gaussian
velocity 	all create 260 ${seed} dist gaussian
velocity 	all create 260 745823 dist gaussian

run             400000

CITE-CITE-CITE-CITE-CITE-CITE-CITE-CITE-CITE-CITE-CITE-CITE-CITE

Your simulation uses code contributions which should be cited:

- USER-DEEPMD package:

@article{Wang_ComputPhysCommun_2018_v228_p178,
  author = {Wang, Han and Zhang, Linfeng and Han, Jiequn and E, Weinan},
  doi = {10.1016/j.cpc.2018.03.016},
  url = {https://doi.org/10.1016/j.cpc.2018.03.016},
  year = 2018,
  month = {jul},
  publisher = {Elsevier {BV}},
  volume = 228,
  journal = {Comput. Phys. Commun.},
  title = {{DeePMD-kit: A deep learning package for many-body potential energy representation and molecular dynamics}},
  pages = {178--184}
}

CITE-CITE-CITE-CITE-CITE-CITE-CITE-CITE-CITE-CITE-CITE-CITE-CITE

Neighbor list info ...
  update every 10 steps, delay 0 steps, check no
  max neighbors/atom: 2000, page size: 100000
  master list distance cutoff = 8
  ghost atom cutoff = 8
  binsize = 4, bins = 5 6 6
  1 neighbor lists, perpetual/occasional/extra = 1 0 0
  (1) pair deepmd, perpetual
      attributes: full, newton on
      pair build: full/bin
      stencil: full/bin/3d
      bin: standard
Per MPI rank memory allocation (min/avg/max) = 7.189 | 7.189 | 7.189 Mbytes
Step Temp PotEng TotEng E_pair E_mol Press Lx Ly Lz Xy Xz Yz Volume Pxx Pyy Pzz Pxy Pxz Pyz Cella Cellb Cellc CellAlpha CellBeta CellGamma 
       0          260   -169.12462   -140.12123   -169.12462            0   -24374.872    18.207573    23.629177    22.213196            0            0            0    9556.7825   -24725.589   -23827.692   -24571.334    -2.235479    312.46159   -222.91034    18.207573    23.629177    22.213196           90           90           90 
     500    245.85927   -149.71963   -122.29366   -149.71963            0    2276.4657    17.833692    23.101834    21.725072            0            0            0     8950.534   -1141.3686    3830.0859    4140.6799   -899.90691   -104.09864    -271.2518    17.833692    23.101834    21.725072           90           90           90 
    1000    246.25895   -144.64718   -117.17662   -144.64718            0   -23.626958     17.70344    22.967732    21.709519            0            0            0    8827.2608    139.22431   -2524.1417    2314.0365    669.60805    792.06152   -313.15012     17.70344    22.967732    21.709519           90           90           90 
    1500    254.10199   -146.98673   -118.64127   -146.98673            0    1398.0251    17.899237    23.240726    22.055939            0            0            0    9175.0781    4530.8643    343.27121   -680.06011    -1005.113    363.84766   -33.010482    17.899237    23.240726    22.055939           90           90           90 
    2000    271.80095   -146.37655   -116.05675   -146.37655            0    3546.8412    17.956371    23.239041    22.010959            0            0            0    9184.9273    6638.3252    2274.9512    1727.2473   -2569.1736    995.82124   -619.57424    17.956371    23.239041    22.010959           90           90           90 
    2500    268.51228   -145.63401   -115.68107   -145.63401            0   -4287.1515    17.985561    23.242351    21.861111            0            0            0    9138.5287    193.49948   -3239.5453   -9815.4087    1109.9729   -335.14632   -210.42733    17.985561    23.242351    21.861111           90           90           90 
    3000    259.46903   -143.61612   -114.67195   -143.61612            0    3236.8618    17.809947    23.167093    21.861737            0            0            0     9020.255    7591.2703    458.10062    1661.2145   -2084.7498   -1888.8956   -515.38715    17.809947    23.167093    21.861737           90           90           90 
    3500    264.48856    -145.9951     -116.491    -145.9951            0    5689.1181    17.805448     23.25537    22.050795            0            0            0    9130.6227    6890.9018    4300.3577    5876.0947    1580.7634    260.76325    1632.9786    17.805448     23.25537    22.050795           90           90           90 
    4000    259.74373   -146.60674   -117.63194   -146.60674            0   -3139.7322    18.008328    23.387284    22.238396            0            0            0    9366.0538   -303.50658   -5723.3882   -3392.3017   -300.96938   -3962.6583    219.88309    18.008328    23.387284    22.238396           90           90           90 
    4500     256.3968   -145.91234   -117.31089   -145.91234            0    3442.3254    17.897296    23.084517    21.811263            0            0            0    9011.3327    5137.3954     362.1325    4827.4484   -1366.7618    1186.8544   -565.58994    17.897296    23.084517    21.811263           90           90           90 
    5000    262.21612    -145.4721    -116.2215    -145.4721            0    5359.2479    17.926451    23.127476    21.858358            0            0            0    9062.3347    7108.5227     7419.249    1549.9719    672.17572   -604.01911    848.55483    17.926451    23.127476    21.858358           90           90           90 
    5500    254.71955   -146.14063   -117.72628   -146.14063            0    2406.4878     18.00715    23.229003    22.096861            0            0            0    9242.8545    1971.9607    3014.7301    2232.7726   -260.39265   -192.54508   -1505.5379     18.00715    23.229003    22.096861           90           90           90 
    6000    256.20125   -145.46986   -116.89023   -145.46986            0    3458.7719    17.961024    23.148904    22.002839            0            0            0    9148.2967    3315.2047    2520.9875    4540.1234   -1323.7517   -68.311756   -473.56355    17.961024    23.148904    22.002839           90           90           90 
    6500    245.10805   -145.18805   -117.84588   -145.18805            0    1151.8838    17.940513    23.217313    21.924284            0            0            0    9132.1334    3595.0169    1600.9934    -1740.359    10.173599   -397.94757    160.11237    17.940513    23.217313    21.924284           90           90           90 
    7000    262.41932   -144.28676   -115.01349   -144.28676            0    1530.7825      17.8137    23.295547    21.940373            0            0            0    9104.8137    3083.6807   -2135.6576    3644.3243   -1926.7775    1729.2994    2104.7739      17.8137    23.295547    21.940373           90           90           90 
    7500    250.73367   -143.75247   -115.78275   -143.75247            0    1945.5664    17.899571    23.465889    22.146434            0            0            0     9302.152    1804.2589     2876.706    1155.7342   -57.300777    358.44874    -868.7559    17.899571    23.465889    22.146434           90           90           90 
    8000    268.62286   -146.77147   -116.80619   -146.77147            0     4738.453    17.867197    23.210905    22.021787            0            0            0    9132.7397    2549.9969    6076.1065    5589.2556    2138.5787    1124.6941   -996.52809    17.867197    23.210905    22.021787           90           90           90 
    8500    246.16823   -144.66358   -117.20314   -144.66358            0    467.81851    17.957992    23.127346    21.933583            0            0            0    9109.4711    1004.9575   -830.44204      1228.94    712.63595   -1317.9387     1373.074    17.957992    23.127346    21.933583           90           90           90 
    9000    266.97728   -144.49251    -114.7108   -144.49251            0    3407.7152    18.010101    23.138929    21.966922            0            0            0    9154.3732    3262.3405    4194.6476    2766.1574    2347.1751   -66.383906   -251.68483    18.010101    23.138929    21.966922           90           90           90 
    9500    262.15573   -144.25832   -115.01445   -144.25832            0    6854.6955    17.991125    23.140805    22.055952            0            0            0    9182.5347    3608.4715    7180.7146    9774.9006     2105.424   -849.94461    74.908794    17.991125    23.140805    22.055952           90           90           90 
   10000    264.98036   -144.71351   -115.15455   -144.71351            0    3895.6899    17.896038    23.290187    22.119543            0            0            0    9219.4715    3798.5703    7252.6633    635.83608   -317.16303   -369.97258   -2086.1536    17.896038    23.290187    22.119543           90           90           90 
   10500    267.50215   -142.26001   -112.41974   -142.26001            0    1442.9066    17.690003    23.460026    21.900814            0            0            0    9089.0116    1822.5678     1286.682      1219.47    2450.7572    -1430.447    2485.8032    17.690003    23.460026    21.900814           90           90           90 
   11000    264.10004   -144.33687   -114.87612   -144.33687            0    2230.1478    17.819912    23.613323    21.939587            0            0            0    9231.9003   -332.12336    2989.3202    4033.2466   -1248.4569   -1668.5198   -533.96767    17.819912    23.613323    21.939587           90           90           90 
   11500    272.51586   -146.34412   -115.94456   -146.34412            0   -106.80292    18.077012    23.211571    22.030017            0            0            0    9243.7036    948.68521   -409.63122   -859.46274   -76.858438    186.01661     730.0832    18.077012    23.211571    22.030017           90           90           90 
   12000    271.15494   -145.46668   -115.21894   -145.46668            0     5657.943    18.074619    22.836484    21.971549            0            0            0    9068.9928    2760.9057    11375.416    2837.5078    1297.9012    465.41928   -2273.4817    18.074619    22.836484    21.971549           90           90           90 
   12500    265.19591   -144.53674   -114.95374   -144.53674            0   -1028.0786    18.102022    23.102838     22.04274            0            0            0    9218.4521   -4300.3559    2698.8763   -1482.7563   -1011.3325    1168.2719   -35.126382    18.102022    23.102838     22.04274           90           90           90 
   13000    272.01943   -144.49627   -114.15209   -144.49627            0    2569.3486    17.879609    23.303589    22.000713            0            0            0    9166.7963    3315.4425    2702.3331    1690.2702    1142.0568    323.24266    48.105961    17.879609    23.303589    22.000713           90           90           90 
   13500     265.8094   -146.28562   -116.63418   -146.28562            0   -74.792364    17.876284     23.38678    22.011717            0            0            0    9202.4106    254.48615   -1441.5189    962.65564   -2177.5752    1946.0016    258.11439    17.876284     23.38678    22.011717           90           90           90 
   14000    256.89597   -145.92903   -117.27189   -145.92903            0    1254.5593    17.943757    23.318936    21.987128            0            0            0    9200.0587   -626.46921    4455.5224   -65.375209   -1655.9722    577.34319   -109.63693    17.943757    23.318936    21.987128           90           90           90 
   14500     256.1888    -145.8331   -117.25486    -145.8331            0    1875.8172    17.987758    23.190211    21.940842            0            0            0    9152.4002   -189.22838    4827.0394    989.64041     300.6529   -1768.5456    1967.2362    17.987758    23.190211    21.940842           90           90           90 
   15000    257.72251   -144.77841   -116.02907   -144.77841            0    1716.1285    18.007748    23.100207    21.976643            0            0            0    9141.9036     430.4157     12.10784    4705.8619   -2857.4434   -1283.2416   -213.94832    18.007748    23.100207    21.976643           90           90           90 
   15500    265.50756   -145.76189   -116.14412   -145.76189            0    432.33004    18.114852     23.25804    22.178465            0            0            0    9344.1412    802.96675    1132.9159   -638.89254     72.48738   -1058.1866    267.29491    18.114852     23.25804    22.178465           90           90           90 
   16000    252.33646   -144.34466   -116.19615   -144.34466            0    2728.6303    17.793879    23.156457    21.937469            0            0            0    9039.1845    4017.2378    2632.7339    1535.9192    1449.8609     1527.941    15.674857    17.793879    23.156457    21.937469           90           90           90 
   16500    258.05629   -144.89852   -116.11195   -144.89852            0    96.099042    17.889787    23.480149     21.99135            0            0            0    9237.5736    1179.3219    1501.3527   -2392.3775   -239.06793   -311.00009     446.7204    17.889787    23.480149     21.99135           90           90           90 
   17000    259.00953   -144.57026   -115.67736   -144.57026            0    3800.2392    17.928573    23.405193    21.926311            0            0            0    9200.7559    5861.8876    3344.9832    2193.8469    1313.5476   -2017.0395   -597.97502    17.928573    23.405193    21.926311           90           90           90 
   17500    256.15852   -144.45636   -115.88149   -144.45636            0    3168.9493    17.960701    23.103104     21.90146            0            0            0    9087.9656    2021.4386    4192.1865    3293.2229   -2267.1706   -700.01471   -702.00898    17.960701    23.103104     21.90146           90           90           90 
   18000    252.58037   -146.49223   -118.31651   -146.49223            0    3670.0628    18.107029    23.173597     22.17436            0            0            0     9304.472    5526.4439    2856.7951    2626.9493    -700.7165   -929.88186    429.73889    18.107029    23.173597     22.17436           90           90           90 
   18500    255.23969   -144.83827    -116.3659   -144.83827            0     3333.815    17.908062    23.164917    21.949739            0            0            0    9105.6027    2809.8458    5461.5727    1730.0263    4379.8591    188.57335     -2025.69    17.908062    23.164917    21.949739           90           90           90 
   19000    256.86347   -145.38578   -116.73227   -145.38578            0   -251.79375    17.875217    23.409309    21.940768            0            0            0    9181.0373   -1469.8632   -2024.6979    2739.1799   -749.60287    1518.5237   -212.33482    17.875217    23.409309    21.940768           90           90           90 
   19500    259.28822   -145.07818   -116.15418   -145.07818            0    6563.7513    17.929626     23.43406    21.989379            0            0            0    9239.1438    8168.7324    7028.3666     4494.155    2223.7311    -338.5017   -71.371549    17.929626     23.43406    21.989379           90           90           90 
   20000    252.53098   -145.59233   -117.42212   -145.59233            0    562.90841    17.952624    23.233169    21.959561            0            0            0    9159.2527   -58.467512    909.21782    837.97491   -1214.3602   -1368.6031    305.33838    17.952624    23.233169    21.959561           90           90           90 
   20500    254.02558   -145.74253   -117.40559   -145.74253            0    1943.6535    17.964691    23.114488    21.940327            0            0            0    9110.6032    3233.5521   -74.940638    2672.3489   -1.4534789    262.46601    275.78188    17.964691    23.114488    21.940327           90           90           90 
   21000    253.16411   -146.20586   -117.96502   -146.20586            0    4480.9695    18.033015    23.214422    22.096283            0            0            0    9250.0792    5062.3445    1432.3623    6948.2017    1642.9464    -667.0384   -986.17005    18.033015    23.214422    22.096283           90           90           90 
   21500    252.81422   -146.91312   -118.71132   -146.91312            0   -1339.6494    17.926706     23.17695    22.002463            0            0            0    9141.7237   -4247.8621   -161.40364    390.31764    1239.4831    818.35764    48.830055    17.926706     23.17695    22.002463           90           90           90 
   22000     251.3551   -145.24129   -117.20225   -145.24129            0   -242.95371    17.923532    23.313543    21.975552            0            0            0    9182.7271    388.20837   -99.374012   -1017.6955    2152.9106    112.68103   -1387.8303    17.923532    23.313543    21.975552           90           90           90 
   22500    260.96613   -146.43254   -117.32137   -146.43254            0    5383.1719     17.91214    23.409682    21.957344            0            0            0    9207.0987    3466.9742     7698.434    4984.1076    210.71089    1588.0943    1151.0899     17.91214    23.409682    21.957344           90           90           90 
   23000    258.16111   -146.42245   -117.62418   -146.42245            0   -51.154003    17.885128    23.264327    21.941477            0            0            0    9129.5294    3567.0514   -2917.7239   -802.78956   -654.08904   -176.02549    262.59392    17.885128    23.264327    21.941477           90           90           90 
   23500    251.66648   -144.55156   -116.47778   -144.55156            0    1020.4441     18.08607    23.207801     22.05823            0            0            0    9258.6756   -1307.5434    83.415117    4285.4606    170.36952    588.34011    154.63373     18.08607    23.207801     22.05823           90           90           90 
   24000    268.71103   -144.40148   -114.42636   -144.40148            0    6461.4592    18.063319    23.038388    21.948379            0            0            0    9133.8127    5406.7828    7754.9811    6222.6136    447.26333    2529.7355   -897.16168    18.063319    23.038388    21.948379           90           90           90 
   24500     256.4574   -144.34774   -115.73953   -144.34774            0   -50.865028    17.985195      23.1726    21.982409            0            0            0    9161.4705    2620.9891   -2992.4028     218.8186    3269.5298   -1510.1063    337.30415    17.985195      23.1726    21.982409           90           90           90 
   25000    271.59018   -145.38408   -115.08779   -145.38408            0   -1549.6127    17.924119    23.494183    22.122688            0            0            0    9316.1414   -562.59543    471.18797   -4557.4305   -77.785276    1574.7368     312.0965    17.924119    23.494183    22.122688           90           90           90 
   25500    270.88922   -144.78787   -114.56977   -144.78787            0    2695.3238    17.790769    23.401577    21.931343            0            0            0    9130.7209    2651.1555    5287.4966     147.3192    1929.3677   -3244.6304   -929.21909    17.790769    23.401577    21.931343           90           90           90 
   26000    260.81176   -143.74106   -114.64711   -143.74106            0    817.54037    17.914813    23.335293    21.944272            0            0            0    9173.7465    707.88287    1156.5328    588.20543   -216.94236   -688.77141   -420.41118    17.914813    23.335293    21.944272           90           90           90 
   26500    254.56797   -145.08208   -116.68464   -145.08208            0    1422.5476    18.030977    23.202374    22.073385            0            0            0    9234.6538    623.93338    2052.6546    1591.0547   -863.54129   -762.76247    418.09745    18.030977    23.202374    22.073385           90           90           90 
   27000    271.24297   -145.45859   -115.20103   -145.45859            0    3189.2663    18.075135    23.135719    22.083139            0            0            0    9234.7542    5572.8416    2005.8907    1989.0667    22.316999    254.00043   -1532.4679    18.075135    23.135719    22.083139           90           90           90 
   27500    259.75987    -144.7826     -115.806    -144.7826            0     2456.797     18.04831    23.221318    21.977915            0            0            0    9211.0658   -93.221556    3022.7154     4440.897    1081.2659    942.02827    252.96845     18.04831    23.221318    21.977915           90           90           90 
   28000    258.86031   -145.39482   -116.51856   -145.39482            0    4849.8498    17.772052    23.239081    21.786553            0            0            0    8997.9807     3178.073    3681.5834     7689.893   -852.50997    88.434691    241.91399    17.772052    23.239081    21.786553           90           90           90 
   28500    262.17519   -144.85241   -115.60638   -144.85241            0    814.93818    17.863407    23.570053    22.132935            0            0            0     9318.883    2375.6787    2382.4664   -2313.3306    1011.8441    1383.7744   -777.42631    17.863407    23.570053    22.132935           90           90           90 
   29000    257.66846   -145.29035   -116.54705   -145.29035            0    263.62837    17.938745    23.471579    22.163689            0            0            0    9332.0361    753.51376   -2198.1594    2235.5307   -676.49176     1570.561    795.36123    17.938745    23.471579    22.163689           90           90           90 
   29500     269.9464    -144.7194   -114.60648    -144.7194            0    4117.9481    17.893557    23.076382    21.911401            0            0            0    9047.6244    3700.0557    3659.6478    4994.1409     577.6915   -545.50568   -1121.5957    17.893557    23.076382    21.911401           90           90           90 
   30000    276.12935   -143.44208   -112.63943   -143.44208            0    163.19092    18.066978     23.17063     22.07935            0            0            0    9242.9296    2140.5611   -1908.3527    257.36437   -422.48729   -1338.0273    20.598742    18.066978     23.17063     22.07935           90           90           90 
   30500    263.04034   -143.77057   -114.42803   -143.77057            0    1919.0542    18.038862    23.236681    22.020509            0            0            0    9230.1889    4840.7834    464.90096    451.47813    848.76153   -590.05433    760.72841    18.038862    23.236681    22.020509           90           90           90 
   31000     260.2412    -143.8384    -114.8081    -143.8384            0    3404.3864    17.954047    23.328795    21.960149            0            0            0    9197.9268    3907.4064    2998.1275    3307.6253    636.11326   -1732.5672   -1801.8163    17.954047    23.328795    21.960149           90           90           90 
   31500    266.88413   -145.21904   -115.44772   -145.21904            0    -708.8161    17.920137    23.405481    22.011619            0            0            0    9232.3211   -3534.4518   -1618.8867    3026.8902    1438.4349    1416.4129     996.3911    17.920137    23.405481    22.011619           90           90           90 
   32000    260.75411    -144.9253   -115.83779    -144.9253            0    2813.3786    17.838953    23.175799     22.08634            0            0            0    9131.1993    4867.0199    2803.7721    769.34378    1489.6053   -2036.8969   -143.65126    17.838953    23.175799     22.08634           90           90           90 
   32500    256.54392   -144.65129   -116.03343   -144.65129            0    4192.6107    17.967392    23.137621    22.222696            0            0            0    9238.4793    5149.3269    6001.4894    1427.0159   -1720.6594    551.35204    136.21509    17.967392    23.137621    22.222696           90           90           90 
   33000    260.06259    -145.0242   -116.01383    -145.0242            0    1730.9739    18.120239    23.239206    21.990369            0            0            0    9260.1439    1449.0696   -1015.7656    4759.6175    1190.6378    1380.9197    -823.7399    18.120239    23.239206    21.990369           90           90           90 
   33500    268.94228   -145.73653   -115.73561   -145.73653            0     577.9654    18.096877    23.327335    21.655247            0            0            0    9141.8039    -2505.251    1070.6275    3168.5196    539.87331    407.45782      530.084    18.096877    23.327335    21.655247           90           90           90 
   34000    260.07737   -146.88919   -117.87717   -146.88919            0    2601.7209    17.867406    23.341991    21.863608            0            0            0    9118.4546   -1022.4758    4653.0527    4174.5858   -1496.0485     957.5758   -2077.9806    17.867406    23.341991    21.863608           90           90           90 
   34500    256.26871   -147.41749   -118.83032   -147.41749            0    505.26151    17.783919    23.407028    22.368802            0            0            0    9311.4318   -763.96287   -591.05817    2870.8056   -1880.9397   -117.66283    1593.9533    17.783919    23.407028    22.368802           90           90           90 
   35000     248.5902   -146.56433   -118.83372   -146.56433            0    4407.7098    17.794886    23.150474    22.223885            0            0            0    9155.3527    4124.1518    3924.7272    5174.2503    1514.6931    302.77682    1114.4006    17.794886    23.150474    22.223885           90           90           90 
   35500    246.05057   -145.15744   -117.71013   -145.15744            0   -467.21175    17.975333    23.089726    21.926718            0            0            0    9100.5861   -4176.2859    3327.9428   -553.29213   -400.79659   -1677.1781    1092.2975    17.975333    23.089726    21.926718           90           90           90 
   36000    260.71742   -146.36263   -117.27921   -146.36263            0    2720.5555    18.121571    23.289484    21.942225            0            0            0    9260.5413    4514.3869    2896.6795    750.60023      550.023    888.85724   -300.03139    18.121571    23.289484    21.942225           90           90           90 
   36500    274.41217   -146.93908   -116.32799   -146.93908            0    1914.6739    17.991573    23.225336    21.965604            0            0            0    9178.5544    1752.8046    2269.6722     1721.545    1528.2405    552.17291   -302.39738    17.991573    23.225336    21.965604           90           90           90 
   37000    266.04696   -146.27769   -116.59975   -146.27769            0    1944.7519    17.926762    23.252327    22.102963            0            0            0    9213.3754    2013.0816    3257.5531    563.62104    168.45822   -1266.1696    97.437159    17.926762    23.252327    22.102963           90           90           90 
   37500    262.93829   -146.08287    -116.7517   -146.08287            0    -426.6956    17.917463    23.321489    22.127839            0            0            0     9246.381   -2032.0323     124.5084    627.43707   -499.82344    932.82584    600.51538    17.917463    23.321489    22.127839           90           90           90 
   38000    263.63497   -145.09601   -115.68713   -145.09601            0    112.09196     17.94397    23.359275    21.944661            0            0            0    9198.2831   -555.24184   -1745.6255    2637.1432    95.594713    56.866758   -1100.8722     17.94397    23.359275    21.944661           90           90           90 
   38500    263.34674   -145.25305   -115.87632   -145.25305            0     1052.705    18.043314    23.368459    21.849098            0            0            0    9212.5504   -2746.5112   -195.27055    6099.8967   -473.94582   -871.68157    732.43374    18.043314    23.368459    21.849098           90           90           90 
   39000    261.50494   -145.84612   -116.67485   -145.84612            0    2170.7987    17.977823    23.198172    22.033578            0            0            0    9189.1616    645.77555    4316.1149    1550.5057     354.2962   -906.78447   -1483.5969    17.977823    23.198172    22.033578           90           90           90 
   39500    262.77481   -145.21883   -115.90591   -145.21883            0    3154.1264    17.855927    23.143124    22.267381            0            0            0    9201.8157    4547.2485    2135.1686    2779.9623    476.83201   -692.85929    1025.0482    17.855927    23.143124    22.267381           90           90           90 
   40000     259.7322   -145.72223   -116.74871   -145.72223            0    1368.2633    17.916561    23.275021    22.125515            0            0            0    9226.5243    1738.5484     2325.426    40.815571   -569.27548   -111.60727   -1416.1329    17.916561    23.275021    22.125515           90           90           90 
   40500    251.21881    -145.7749   -117.75106    -145.7749            0   -1546.7588    18.089924    23.512824    21.868479            0            0            0    9301.6525   -24.902555   -3479.9522   -1135.4216    1832.3985   -1168.9747    875.68813    18.089924    23.512824    21.868479           90           90           90 
   41000    256.16948   -144.69108   -116.11499   -144.69108            0    4290.3353    17.988803    23.294149    21.740859            0            0            0     9110.156    4329.1017    4465.4437    4076.4606   -1071.7661    1242.8168    -665.0385    17.988803    23.294149    21.740859           90           90           90 
   41500    264.13504   -145.72221   -116.25755   -145.72221            0    4572.4932    17.899291    23.108309    22.084855            0            0            0    9134.7895    4156.4382    3827.5624     5733.479   -720.43741   -1111.3884    993.33687    17.899291    23.108309    22.084855           90           90           90 
   42000    264.91474   -145.57022   -116.01858   -145.57022            0    144.03609    17.988202     23.24515    22.411888            0            0            0     9371.272    734.66866    1088.9238   -1391.4841    318.07934   -1736.2614   -746.63941    17.988202     23.24515    22.411888           90           90           90 
   42500    268.96248   -145.26413   -115.26096   -145.26413            0    5024.0832    17.861025     23.18595     21.99931            0            0            0    9110.4608    5854.8888    3147.4422    6069.9187   -207.25112    1276.9507    1081.5959    17.861025     23.18595     21.99931           90           90           90 
   43000    264.21967   -144.85509   -115.38099   -144.85509            0    1193.6791    17.989589    23.352776    21.962998            0            0            0    9226.8059    786.68724    686.73764    2107.6125    3003.0665    603.93055   -234.43104    17.989589    23.352776    21.962998           90           90           90 
   43500    262.66568   -145.68242   -116.38167   -145.68242            0    777.63665    17.978929    23.299408     22.00928            0            0            0    9219.6519   -840.58632    1403.0192     1770.477   -833.28007    340.38688    1090.3943    17.978929    23.299408     22.00928           90           90           90 
   44000    250.99684    -144.3904   -116.39133    -144.3904            0    1578.5841    17.965317    23.150002    22.080645            0            0            0    9183.2765    2313.3411     1947.274    475.13733    2137.4922    208.79785   -2508.8011    17.965317    23.150002    22.080645           90           90           90 
   44500    264.39123   -145.64329   -116.15005   -145.64329            0    3870.4807    17.999323    23.210528    22.140184            0            0            0    9249.5887    3860.7512    3920.9889    3829.7019   -2244.7905    160.05155    902.58337    17.999323    23.210528    22.140184           90           90           90 
   45000    248.03222   -146.03028   -118.36191   -146.03028            0    1562.9092     17.95694    23.397378    22.000498            0            0            0    9243.4063    1279.2588    2082.0212    1327.4477    186.81942    -417.9201   -280.17568     17.95694    23.397378    22.000498           90           90           90 
   45500    254.74559   -146.49942   -118.08216   -146.49942            0    4947.9922    17.847612    23.386142    21.833511            0            0            0    9113.0192    6005.8052    3947.6546    4890.5168     2223.235    1421.5846    -180.3401    17.847612    23.386142    21.833511           90           90           90 
   46000    259.38411   -145.71278    -116.7781   -145.71278            0    302.95599    17.961055    23.459193    22.068632            0            0            0    9298.6591    -206.2091   -2322.5683    3437.6454    1465.7682    309.80048    1996.1859    17.961055    23.459193    22.068632           90           90           90 
   46500    259.06091   -145.42483    -116.5262   -145.42483            0    2744.8965    17.928207    23.119084    22.129937            0            0            0    9172.4988    1818.7661    4695.5002    1720.4231   -852.58551    1483.6062     795.8134    17.928207    23.119084    22.129937           90           90           90 
   47000     262.1783      -145.51   -116.26362      -145.51            0    3801.1644    18.013182    23.056303    22.148287            0            0            0    9198.5684    5574.0114    1868.6095    3960.8724    2160.5543   -769.38142    557.63129    18.013182    23.056303    22.148287           90           90           90 
   47500    269.77799   -145.73157   -115.63743   -145.73157            0   -116.96679    18.083468    23.271264    22.010771            0            0            0    9262.6862    -846.2513   -271.70509      767.056   -2958.0822    1657.1151    3026.1354    18.083468    23.271264    22.010771           90           90           90 
   48000    264.75791   -144.49837   -114.96423   -144.49837            0    2329.6774    17.963926    23.425748    21.836637            0            0            0    9189.2585    13.060026    3457.3188    3518.6534   -1607.6437   -521.17862    428.48913    17.963926    23.425748    21.836637           90           90           90 
   48500    256.97174   -144.58886   -115.92328   -144.58886            0    1772.1526    17.809976    23.544136    22.010527            0            0            0    9229.4653    3166.1035    2483.3762   -333.02184   -930.04224   -422.10844    1335.6895    17.809976    23.544136    22.010527           90           90           90 
   49000    260.40113    -143.8474   -114.79927    -143.8474            0   -667.34549     17.84117    23.322708    22.190975            0            0            0    9233.7624    366.34919    81.918855   -2450.3045   -1969.4504   -1353.0484   -395.37416     17.84117    23.322708    22.190975           90           90           90 
   49500    275.68331   -142.46104   -111.70815   -142.46104            0    3352.9369    17.991397      22.9775    22.138728            0            0            0    9152.0905    1332.2992    1799.7821    6926.7293   -145.79469   -1070.8827   -2803.6344    17.991397      22.9775    22.138728           90           90           90 
   50000    272.13932   -144.50139   -114.14384   -144.50139            0     3100.099    18.220089    22.973879    22.064115            0            0            0    9235.7323    6003.3386    1563.2094    1733.7491    436.73535    2128.0971    174.27302    18.220089    22.973879    22.064115           90           90           90 
   50500    265.71618   -145.53168   -115.89064   -145.53168            0    1797.3733    18.110913    23.126132    21.821457            0            0            0     9139.598     476.5781    668.74365    4246.7982    344.71299   -490.64728    225.18531    18.110913    23.126132    21.821457           90           90           90 
   51000    260.42075   -144.33255   -115.28222   -144.33255            0   -3.7476505    17.962105    23.530863    21.958144            0            0            0    9280.9134    1590.8858     -4291.01    2688.8813   -911.87994   -50.289687   -171.09775    17.962105    23.530863    21.958144           90           90           90 
   51500    263.34391   -146.10272   -116.72631   -146.10272            0    2410.3348    17.741469    23.434679    22.041773            0            0            0    9164.2118    3190.2495     3395.924    644.83087   -1243.7997   -520.51765    370.35342    17.741469    23.434679    22.041773           90           90           90 
   52000    249.76783   -145.75568    -117.8937   -145.75568            0    4793.8574    17.785157    23.303112     22.11142            0            0            0     9164.067    6312.4988    3162.4911    4906.5824    58.085007   -460.85797   -216.58445    17.785157    23.303112     22.11142           90           90           90 
   52500    264.20366   -144.62641   -115.15409   -144.62641            0    2082.7068    18.089618    23.312339    22.110428            0            0            0    9324.2172    258.64822    4082.5199    1906.9522    2356.9948    455.90424    -716.2365    18.089618    23.312339    22.110428           90           90           90 
   53000     262.6485   -145.86569   -116.56686   -145.86569            0    4297.1103    18.120379    23.058425     21.88845            0            0            0    9145.5941    5286.1148    4290.1246    3315.0914   -585.77425    345.22611    647.92392    18.120379    23.058425     21.88845           90           90           90 
   53500    260.85911   -146.03234   -116.93312   -146.03234            0   -512.68482    18.130974    23.153504    22.047407            0            0            0    9255.4041   -74.494487   -312.41259   -1151.1474   -941.48259    -954.9927   -678.99451    18.130974    23.153504    22.047407           90           90           90 
   54000    258.02015   -143.95624    -115.1737   -143.95624            0    1317.5964    17.917925    23.271847    22.053532            0            0            0    9195.9531    3314.4753    1253.0632   -614.74927    2610.0525    328.08847   -72.184792    17.917925    23.271847    22.053532           90           90           90 
   54500    250.29047    -145.9728   -118.05253    -145.9728            0    3668.8373    17.798593    23.483109    21.999454            0            0            0    9195.0304    5656.3067    357.53614    4992.6691    1868.7931    257.35484    55.464267    17.798593    23.483109    21.999454           90           90           90 
   55000    266.47214   -146.91284   -117.18747   -146.91284            0    2997.5163    17.872763    23.506139    22.054985            0            0            0    9265.7328    1269.0422    4095.5916    3627.9151   -634.11999    138.94926    824.70072    17.872763    23.506139    22.054985           90           90           90 
   55500    255.16563   -146.41274   -117.94863   -146.41274            0     3042.991    17.998269    23.170642    22.053355            0            0            0    9196.9428    2136.7547     6754.471    237.74734    1408.0849    1528.4435   -2711.6965    17.998269    23.170642    22.053355           90           90           90 
   56000    265.01079   -144.73204   -115.16969   -144.73204            0    2268.4786    18.125279    22.994319    22.069797            0            0            0    9198.2155    2706.4164    3933.0827    165.93656    768.45798   -988.70284    786.02787    18.125279    22.994319    22.069797           90           90           90 
   56500    268.15414    -144.5465   -114.63351    -144.5465            0   -7.1880947    18.062141    23.162917    22.112584            0            0            0    9251.2833    2921.1085   -395.85285   -2546.8199   -1779.6748    270.95905   -226.89698    18.062141    23.162917    22.112584           90           90           90 
   57000    270.64886   -146.24341   -116.05212   -146.24341            0    3853.2907    17.810205    23.405595    21.944741            0            0            0    9147.8505    7085.7243    2494.8899    1979.2579   -1061.7381    128.90905    200.71247    17.810205    23.405595    21.944741           90           90           90 
   57500    259.24352   -145.08772   -116.16872   -145.08772            0    2048.0052    17.847354    23.656448    22.050385            0            0            0    9309.7832    39.070857    3203.8944    2901.0502   -832.08185   -1826.4992    295.30126    17.847354    23.656448    22.050385           90           90           90 
   58000    258.77747   -144.68375   -115.81674   -144.68375            0    4024.0611    17.755887    23.243005     22.00986            0            0            0    9083.4731    4500.3379    2767.6873    4804.1581    244.29826    2520.7791    -693.5675    17.755887    23.243005     22.00986           90           90           90 
   58500    260.10194   -145.56828   -116.55352   -145.56828            0    2138.4483     18.03178    23.096681    22.105029            0            0            0    9206.1755    2424.0439    1831.0971    2160.2038   -1690.6546    198.86624    321.57741     18.03178    23.096681    22.105029           90           90           90 
   59000    265.74746   -144.80528   -115.16076   -144.80528            0   -1818.4715    18.218169    23.026584    22.107307            0            0            0    9274.0638    610.99371   -3269.5943   -2796.8139    1285.0457    162.08911    733.84217    18.218169    23.026584    22.107307           90           90           90 
   59500    265.55029    -145.5762   -115.95367    -145.5762            0    6483.7747    18.096043    23.095823    21.956998            0            0            0    9176.7735    6647.7099    7234.8043    5568.8099   -3788.3939   -452.53218    611.32603    18.096043    23.095823    21.956998           90           90           90 
   60000    258.32365   -145.24261   -116.42621   -145.24261            0    2862.2741    17.919179    23.475027    21.976932            0            0            0    9244.6672    1339.8874    2871.8048    4375.1301   -400.27691   -1347.5762   -932.63459    17.919179    23.475027    21.976932           90           90           90 
   60500    258.08393   -145.59623   -116.80658   -145.59623            0    2478.2726    17.762803    23.516521    21.962388            0            0            0    9174.1138    2475.8424   -464.45325    5423.4287    -1437.308    135.68855    1954.0172    17.762803    23.516521    21.962388           90           90           90 
   61000    257.29123   -144.97165   -116.27043   -144.97165            0    3177.4014    17.801378    23.309092    22.048812            0            0            0    9148.8009    1313.7704    2807.5224    5410.9113    1623.0368   -770.98782   -617.82987    17.801378    23.309092    22.048812           90           90           90 
   61500    261.20157   -145.05143     -115.914   -145.05143            0    1684.1342    18.008869    23.163095    22.171657            0            0            0    9248.7101   -84.554974    307.73622    4829.2213   -1456.6102    244.26914    1455.0229    18.008869    23.163095    22.171657           90           90           90 
   62000     257.6222    -143.9387   -115.20055    -143.9387            0     2680.537    18.091505    23.105235    21.980594            0            0            0    9188.0744    3075.5981    3945.4157    1020.5971   -1490.5407    77.336027    90.277072    18.091505    23.105235    21.980594           90           90           90 
   62500    266.11589   -145.39956   -115.71394   -145.39956            0    1254.1503    18.005126    23.216675    21.849884            0            0            0    9133.6704     1650.587     115.5754    1996.2884    599.64913    1520.9537    1579.6868    18.005126    23.216675    21.849884           90           90           90 
   63000    276.98167   -144.51396   -113.61624   -144.51396            0    1303.0393    17.893935    23.454762    22.036456            0            0            0    9248.6562    2799.1118   -72.652627    1182.6587    1617.2585   -19.097913   -2954.8186    17.893935    23.454762    22.036456           90           90           90 
   63500    244.53774   -143.97905    -116.7005   -143.97905            0    3647.0504    17.752217    23.440954     22.10076            0            0            0    9196.7646    4142.9449    3408.3272    3389.8792   -1825.9084    557.08372    1508.0747    17.752217    23.440954     22.10076           90           90           90 
   64000    261.83928   -144.36256     -115.154   -144.36256            0    254.84123    17.891221     23.36076    22.114879            0            0            0    9242.9695    -631.1985    772.65942    623.06276   -2631.2923    -1007.181    268.20261    17.891221     23.36076    22.114879           90           90           90 
   64500    254.63943   -143.96647   -115.56106   -143.96647            0    2114.1579    18.116538    23.159827    22.064559            0            0            0    9257.7572   -244.49385    4768.5424    1818.4251   -564.98689    959.73964    1190.9251    18.116538    23.159827    22.064559           90           90           90 
   65000    255.59539   -146.72443   -118.21238   -146.72443            0     1813.685    18.142266    22.886449    21.951563            0            0            0    9114.5532    159.08376    1815.9603    3466.0109    1630.2979     1748.141    989.55185    18.142266    22.886449    21.951563           90           90           90 
   65500    249.84119   -144.72547   -116.85531   -144.72547            0    1840.7029    18.128621    23.183578    22.152447            0            0            0      9310.37    4157.3319    117.48675    1247.2902   -536.09703    982.97742      790.707    18.128621    23.183578    22.152447           90           90           90 
   66000    259.10253   -143.09728   -114.19401   -143.09728            0    4333.5854    17.747561    23.476554      22.0126            0            0            0    9171.5841    6438.9523    6048.5318    513.27226    1720.5827   -864.13545   -685.77372    17.747561    23.476554      22.0126           90           90           90 
   66500    262.55434   -144.03058   -114.74225   -144.03058            0    2099.8629    17.645109    23.677373    21.993508            0            0            0    9188.6636    1579.7404    1567.6254    3152.2229   -231.32292    657.34418    676.37302    17.645109    23.677373    21.993508           90           90           90 
   67000    257.07872   -145.02064   -116.34312   -145.02064            0    1679.3248    17.811056    23.406295    22.060155            0            0            0    9196.6758    1523.2319    4143.0929   -628.35048   -1552.7016    271.49608    318.70152    17.811056    23.406295    22.060155           90           90           90 
   67500    254.19944   -145.24704   -116.89071   -145.24704            0    514.20925    18.149055    23.131684    22.110592            0            0            0    9282.4292    1794.8346   -417.28836    165.08155    478.42293    601.54492    797.40739    18.149055    23.131684    22.110592           90           90           90 
   68000    240.92774   -143.64245    -116.7666   -143.64245            0    2049.2885    18.218784    22.984785    22.005651            0            0            0    9214.9726   -1864.1587    1873.1329    6138.8915   -1963.9695   -270.65795    1119.4501    18.218784    22.984785    22.005651           90           90           90 
   68500    263.08766   -145.05634   -115.70851   -145.05634            0    1938.8667    18.006377    23.053255    21.909911            0            0            0    9094.9271    2399.8039    3291.7558    125.04038   -1084.6645   -501.64431    79.062825    18.006377    23.053255    21.909911           90           90           90 
   69000    238.08546   -144.28025   -117.72145   -144.28025            0    1752.3592    17.941327    23.516366    22.193539            0            0            0    9363.7829    3427.2445    1704.6432    125.18979    952.23428   -367.06293    458.19406    17.941327    23.516366    22.193539           90           90           90 
   69500    259.69658   -146.71945   -117.74991   -146.71945            0    2895.4957    17.782135    23.455708    22.074365            0            0            0    9207.0537    4435.0364   -123.15401    4374.6047    802.89535    301.76957   -1215.7692    17.782135    23.455708    22.074365           90           90           90 
   70000    253.19334   -145.22442   -116.98032   -145.22442            0    1897.9393    17.895317    23.333822    21.998152            0            0            0    9185.6836    1438.2059     930.3558    3325.2563    209.82455     254.0453    1040.9563    17.895317    23.333822    21.998152           90           90           90 
   70500     256.7371    -145.2727   -116.63329    -145.2727            0      168.048    18.048368    23.166823     21.97884            0            0            0     9189.866     957.5711    -1566.196    1112.7689   -999.62697     -921.043    2084.3172    18.048368    23.166823     21.97884           90           90           90 
   71000    258.48302   -145.35439   -116.52022   -145.35439            0    6103.8437    18.095505    23.075803    22.013608            0            0            0    9192.1853    2306.1068    4738.1017    11267.323    1534.7606    1149.8135    253.74951    18.095505    23.075803    22.013608           90           90           90 
   71500    257.75151   -145.45295   -116.70038   -145.45295            0    1822.0457    18.096236    23.291563    22.212544            0            0            0    9362.3565    1233.3953      2253.61    1979.1316   -594.27386   -221.19964   -1727.3052    18.096236    23.291563    22.212544           90           90           90 
   72000    267.79926   -142.77383   -112.90042   -142.77383            0    4677.4508    17.730219    23.316433    22.006129            0            0            0    9097.4536    1240.8398    5597.0545     7194.458   -1015.5478   -1999.7775    218.07876    17.730219    23.316433    22.006129           90           90           90 
   72500    250.84657   -142.20507   -114.22276   -142.20507            0    3714.8757    17.739782    23.539482    22.120326            0            0            0    9237.1226    6596.4945    1181.3382    3366.7943   -1704.3674   -1324.2444    418.90754    17.739782    23.539482    22.120326           90           90           90 
   73000    254.33124   -145.22832   -116.85729   -145.22832            0    2071.6346    17.938254    23.433405    22.093797            0            0            0    9287.2247      1609.21     5387.631   -781.93727    1875.7486   -738.19633   -937.81132    17.938254    23.433405    22.093797           90           90           90 
   73500    264.24342   -145.50691   -116.03016   -145.50691            0    157.53223    18.135397    23.145157    22.051453            0            0            0    9256.0225    542.44969   -808.35746    738.50445    6.1850481    891.10306   -1211.1007    18.135397    23.145157    22.051453           90           90           90 
   74000    256.40899   -144.94594   -116.34313   -144.94594            0    4426.2355    18.121458    22.990393    22.020441            0            0            0    9174.1439    4550.7695    7493.3963    1234.5408    1652.1669   -122.31964    1441.0008    18.121458    22.990393    22.020441           90           90           90 
   74500    260.28135    -144.7696   -115.73483    -144.7696            0    913.14786    17.976125    23.144417    22.054475            0            0            0    9175.6962    1627.4268   -437.92281    1549.9396   -2133.3892   -599.62642   -1284.0591    17.976125    23.144417    22.054475           90           90           90 
   75000    261.06472   -144.66808   -115.54592   -144.66808            0     388.7236    17.929556    23.424248    22.117059            0            0            0    9288.8629    3359.9699   -1054.1222   -1139.6769    1893.2976    2504.7967     717.5036    17.929556    23.424248    22.117059           90           90           90 
   75500    267.05957   -146.86938   -117.07848   -146.86938            0    4134.5914    17.902991    23.420376    22.023657            0            0            0    9234.4045    2542.4338    4004.1997    5857.1407     883.2239    791.72831   -94.159705    17.902991    23.420376    22.023657           90           90           90 
   76000    274.27052   -147.01162   -116.41633   -147.01162            0   -50.356024    17.984147    23.334454    22.029986            0            0            0    9244.8888   -886.51472    182.67985     552.7668    1075.9215    690.77778    564.15633    17.984147    23.334454    22.029986           90           90           90 
   76500     241.8653    -146.6776   -119.69716    -146.6776            0    367.30371    18.005141    23.154943    22.119002            0            0            0    9221.5891    367.76612     1404.557   -670.41195    1356.5299   -903.87277    -31.00227    18.005141    23.154943    22.119002           90           90           90 
   77000    251.58072   -147.11263   -119.04842   -147.11263            0    3561.8334    18.028868    23.018358     22.15023            0            0            0    9192.2334    4009.2465    4093.2157    2583.0381   -1891.5673    618.90833    268.51328    18.028868    23.018358     22.15023           90           90           90 
   77500    249.67655    -144.3782    -116.5264    -144.3782            0    569.76334     18.17952    23.262024    22.052685            0            0            0    9325.9136   -229.41449   -248.33279    2187.0373     870.9831   -3388.9639   -810.00373     18.17952    23.262024    22.052685           90           90           90 
   78000    273.92026   -144.82677   -114.27055   -144.82677            0    1923.7215    17.987194    23.447356    21.684702            0            0            0    9145.5691    2420.8614    1543.0144    1807.2887     1707.838    540.35443    3.9760117    17.987194    23.447356    21.684702           90           90           90 
   78500    244.86128   -144.93449   -117.61985   -144.93449            0    2449.8073    17.902179    23.647089    22.015953            0            0            0    9320.1108    2870.3332    1925.8158    2553.2729     1205.395    -389.4936    751.52546    17.902179    23.647089    22.015953           90           90           90 
   79000    246.24964   -144.59066   -117.12115   -144.59066            0    4463.0317    17.701998    23.270803    22.232516            0            0            0    9158.4561    3761.2843    3885.4183    5742.3926    2341.8324   -688.79943  -0.81803568    17.701998    23.270803    22.232516           90           90           90 
   79500    258.80733   -143.90398   -115.03363   -143.90398            0    2300.9202    17.912338    23.203769    22.258226            0            0            0    9251.2704    4021.6561    3083.3151   -202.21069    421.27912   -1610.0868     828.6374    17.912338    23.203769    22.258226           90           90           90 
   80000    271.83793   -145.44382   -115.11989   -145.44382            0    87.690966    18.131717    23.234406    22.025564            0            0            0    9278.9224   -2198.3899   -1499.8716    3961.3344   -574.15826    462.63975     834.7211    18.131717    23.234406    22.025564           90           90           90 
   80500    262.33673    -144.8822   -115.61815    -144.8822            0    1632.6858     18.02479     23.20769    21.814507            0            0            0    9125.3082    2209.1967    1133.4671    1555.3934    1343.0279   -707.30978    414.38069     18.02479     23.20769    21.814507           90           90           90 
   81000    254.60629   -145.06078   -116.65907   -145.06078            0    24.865044    18.005273    23.409398    22.079267            0            0            0    9306.2475    3527.0129   -2764.6183   -687.79943    852.98051    713.68149   -1100.2467    18.005273    23.409398    22.079267           90           90           90 
   81500    255.50893   -145.33499   -116.83258   -145.33499            0    2159.3415    17.836184    23.384696    22.092997            0            0            0    9214.8504    3419.9573    5672.2858   -2614.2185   -1606.4017    1304.8832    542.18055    17.836184    23.384696    22.092997           90           90           90 
   82000    246.24305   -144.90151   -117.43272   -144.90151            0    955.56211    17.847277    23.384515    22.046306            0            0            0    9201.0237    1098.0723    698.92449    1069.6895    387.81804    838.30844   -1735.7086    17.847277    23.384515    22.046306           90           90           90 
   82500    254.58515   -142.94182   -114.54247   -142.94182            0      5693.29    17.971557    23.317928    21.999454            0            0            0    9219.0797    2367.1363    8667.7952    6044.9384    -1979.355    428.94393    1233.2178    17.971557    23.317928    21.999454           90           90           90 
   83000    272.34994    -145.2348   -114.85375    -145.2348            0    465.54942    18.151082    23.193397    21.995442            0            0            0    9259.7571    -756.7359    3347.9166   -1194.5325    206.41198   -1076.7675   -386.06604    18.151082    23.193397    21.995442           90           90           90 
   83500    266.19965   -145.66745   -115.97247   -145.66745            0    943.42316    18.147841    23.102002    21.991311            0            0            0    9219.8892   -1198.4267    5810.0875   -1781.3914   -1889.7998   -713.74431   -1053.3107    18.147841    23.102002    21.991311           90           90           90 
   84000    273.21752   -144.24762   -113.76979   -144.24762            0    2066.6294    17.967368    23.268008    22.104642            0            0            0    9241.1744    2515.0944    1855.8785    1828.9152    458.76575   -678.98084    1177.2626    17.967368    23.268008    22.104642           90           90           90 
   84500    262.10545   -144.83163   -115.59337   -144.83163            0    1538.4495    17.749204    23.442657    22.149908            0            0            0     9216.322    534.08297    1908.5378    2172.7279    -546.4974    207.91625   -16.426431    17.749204    23.442657    22.149908           90           90           90 
   85000    261.35202   -145.40831    -116.2541   -145.40831            0    3577.1701      17.7613    23.554349    22.048871            0            0            0    9224.2746    5296.1078    2706.9563    2728.4464   -1101.4405    3003.9363   -1812.4796      17.7613    23.554349    22.048871           90           90           90 
   85500    265.22464   -144.68782   -115.10161   -144.68782            0    369.31849    18.043862    23.381543    21.911901            0            0            0    9244.4849    271.18332   -1634.9258     2471.698    930.51182   -139.43557   -515.23224    18.043862    23.381543    21.911901           90           90           90 
   86000    267.20646   -145.96528   -116.15799   -145.96528            0    2176.5328    18.227972    23.049701    21.940101            0            0            0     9218.118    1322.6473    2397.2253    2809.7258   -1075.0481   -1805.7351    601.62045    18.227972    23.049701    21.940101           90           90           90 
   86500    255.16874   -145.59385   -117.12939   -145.59385            0    2157.1149    18.098324    22.980017    22.058508            0            0            0    9174.1287    4085.3142    1902.6879    483.34257    473.28795    -317.7031    376.74295    18.098324    22.980017    22.058508           90           90           90 
   87000    250.99825   -146.03097   -118.03173   -146.03097            0    2093.7319    17.928562    23.294152    22.204479            0            0            0    9273.2712    -106.3377    5656.1927    731.34084    978.49368    103.06262     354.7037    17.928562    23.294152    22.204479           90           90           90 
   87500    256.83065   -144.66695    -116.0171   -144.66695            0    681.62587    17.780973    23.489376    22.037671            0            0            0    9204.3408    3686.4515    2137.4262   -3779.0001    481.93738   -114.77178   -1121.2514    17.780973    23.489376    22.037671           90           90           90 
   88000    260.96908    -145.4814    -116.3699    -145.4814            0    2097.7912    17.863798    23.392878    21.971751            0            0            0    9181.6792    4796.1458    4086.8329    -2589.605    383.91277    1089.4639   -871.91279    17.863798    23.392878    21.971751           90           90           90 
   88500    263.80045   -146.22174   -116.79441   -146.22174            0    3218.2569    18.094993    23.191212    22.036836            0            0            0    9247.6442    6595.5812    3240.6525   -181.46307    588.05682    684.05443   -2411.4794    18.094993    23.191212    22.036836           90           90           90 
   89000    249.79894   -146.73503   -118.86958   -146.73503            0    1922.7129     18.16079    23.018916    22.005596            0            0            0    9199.2562    1984.2839    907.69334    2876.1614     883.5024    720.78402    658.44157     18.16079    23.018916    22.005596           90           90           90 
   89500    247.84217   -146.38743   -118.74026   -146.38743            0    2508.8914    18.050049    23.121262    22.001749            0            0            0    9182.2076   -1536.2088    422.22207    8640.6609   -331.74002   -1462.7158   -107.21122    18.050049    23.121262    22.001749           90           90           90 
   90000    245.72232   -146.45086   -119.04016   -146.45086            0    1154.6828    17.857096    23.443589    22.032076            0            0            0    9223.3852    1567.5244    112.20629    1784.3176   -2851.1421    1887.2508   -225.03816    17.857096    23.443589    22.032076           90           90           90 
   90500    267.48066   -146.65069   -116.81281   -146.65069            0    2658.8299    17.758875    23.681377    22.066074            0            0            0    9279.9889    971.99627    2136.0552    4868.4383    1514.6297    288.07161    1632.5856    17.758875    23.681377    22.066074           90           90           90 
   91000    260.05703   -145.76313   -116.75338   -145.76313            0    2242.5233    17.854029     23.50924    21.959167            0            0            0    9217.0235    630.23269    3533.7908    2563.5464   -730.82382    -847.9441    630.80374    17.854029     23.50924    21.959167           90           90           90 
   91500    251.16139   -147.02995   -119.01252   -147.02995            0    1137.1532    18.148594    23.118074    21.921664            0            0            0    9197.4653    -1846.096    1492.4747     3765.081     935.1125   -410.21757     738.5744    18.148594    23.118074    21.921664           90           90           90 
   92000     255.0981   -145.61365   -117.15707   -145.61365            0    3580.6768    18.298817    22.852032    22.075913            0            0            0    9231.3773    7129.5937    2481.8078     1130.629    145.32744   -401.10102    1866.7353    18.298817    22.852032    22.075913           90           90           90 
   92500    255.16833   -145.60841     -117.144   -145.60841            0    1529.1066    18.143213    23.074679    22.248587            0            0            0    9314.3445   -802.44994    3041.1428    2348.6268   -888.05679    2078.6153    913.17409    18.143213    23.074679    22.248587           90           90           90 
   93000    259.16281   -145.37491   -116.46491   -145.37491            0    1094.7315     17.76149    23.453745    22.059538            0            0            0     9189.418    2042.1057    796.86226    445.22657    1923.8494   -189.45964    1897.7942     17.76149    23.453745    22.059538           90           90           90 
   93500    246.11804   -144.04588   -116.59104   -144.04588            0    1975.1745    17.712758    23.669217    21.972776            0            0            0    9212.0229    3634.4984    2078.0958    212.92934   -62.931814   -2313.9995   -164.79991    17.712758    23.669217    21.972776           90           90           90 
   94000    250.69286    -145.1229   -117.15773    -145.1229            0    1088.1307    17.862613    23.474511    21.957938            0            0            0    9207.3171    856.95341    659.19383     1748.245   -99.671086   -2167.5754   -469.48788    17.862613    23.474511    21.957938           90           90           90 
   94500    257.89624   -146.26496   -117.49624   -146.26496            0    2309.5477    18.080902    23.324314    22.086565            0            0            0    9314.4483    2841.4578    2252.4837    1834.7016   -2265.7141     150.5583    525.97495    18.080902    23.324314    22.086565           90           90           90 
   95000    243.75602   -146.06495    -118.8736   -146.06495            0    782.79607    18.087295    23.129118    22.046943            0            0            0    9223.1883    2248.3864   -993.22776    1093.2295    236.06616    911.16193   -1746.5988    18.087295    23.129118    22.046943           90           90           90 
   95500    253.86996   -144.69977   -116.38019   -144.69977            0    3151.6418    17.978962    23.156447    21.987718            0            0            0    9154.1219    4361.1393    3468.6491     1625.137     1156.036    1029.2846   -1202.1974    17.978962    23.156447    21.987718           90           90           90 
   96000    263.06925   -145.06468   -115.71891   -145.06468            0     4561.534    17.984834    23.435367    22.128922            0            0            0    9326.9246    1248.3052    4861.6481    7574.6486   -560.98271   -98.212875   -951.38393    17.984834    23.435367    22.128922           90           90           90 
   96500    257.74464   -144.03844   -115.28664   -144.03844            0    4292.3595    17.870766    23.419054     22.04275            0            0            0    9225.2529    7364.6611    4696.8138    815.60354    242.87055    900.22997    1244.2533    17.870766    23.419054     22.04275           90           90           90 
   97000    257.10842   -145.19997   -116.51914   -145.19997            0    2749.6564    17.994855    23.433915    22.053579            0            0            0    9299.7716    1196.6394    4359.9212    2692.4087    1078.3285    -488.3715    857.72499    17.994855    23.433915    22.053579           90           90           90 
   97500    270.83749   -146.43919   -116.22686   -146.43919            0    3422.8068    18.047817    23.217027    21.994432            0            0            0    9216.0333    3293.5744    5128.2249    1846.6211   -2599.9889    -1772.763   -718.22496    18.047817    23.217027    21.994432           90           90           90 
   98000    245.91591   -145.10401   -117.67172   -145.10401            0    1929.9859    18.016487    23.076066    22.020708            0            0            0    9155.1016    3120.9927    3102.7601   -433.79513     1487.135    578.92633    622.43882    18.016487    23.076066    22.020708           90           90           90 
   98500    251.55535   -144.52638   -116.46501   -144.52638            0   -429.70009    18.120427    23.406077    22.215668            0            0            0    9422.2894    71.862088   -1182.2962   -178.66619   -98.974589   -1804.8373    2235.1703    18.120427    23.406077    22.215668           90           90           90 
   99000    252.43783   -144.70933   -116.54951   -144.70933            0    4827.6575    17.795143    23.345951    21.865088            0            0            0    9083.7315     5753.668    6120.0589    2609.2457   -2730.5156    2965.6819   -1450.1825    17.795143    23.345951    21.865088           90           90           90 
   99500    269.28277   -144.28649    -114.2476   -144.28649            0    1481.3731    17.852346    23.494585    22.022129            0            0            0    9236.8175    4907.1469   -1095.6284    632.60075    1285.0164   -1589.6989   -650.42195    17.852346    23.494585    22.022129           90           90           90 
  100000    264.15505   -145.24267   -115.77578   -145.24267            0    3319.3726    17.960461    23.386703    22.138042            0            0            0    9298.7737    3353.7901    1783.0156    4821.3122     1276.766    138.77835     -1128.46    17.960461    23.386703    22.138042           90           90           90 
  100500    264.33482   -145.08732   -115.60038   -145.08732            0    2978.0232    17.961276    23.230297    22.062626            0            0            0    9205.5371    4774.5847    2165.2305    1994.2544    1171.0217    -1014.769    -125.9961    17.961276    23.230297    22.062626           90           90           90 
  101000    246.55769     -144.239   -116.73512     -144.239            0    2262.6973    18.048473    23.264655    21.994754            0            0            0      9235.41    5299.4281    746.60312    742.06061   -526.89804   -1545.8111     160.9529    18.048473    23.264655    21.994754           90           90           90 
  101500    259.75271   -145.64947   -116.67366   -145.64947            0    2537.6322    17.986986      23.2787    22.021957            0            0            0    9220.8942    6510.0703    1669.0191   -566.19264   -34.655933   -887.69443    723.08751    17.986986      23.2787    22.021957           90           90           90 
  102000    259.03596    -145.5562   -116.66035    -145.5562            0    749.31413    17.880267    23.333555    22.108096            0            0            0     9223.723    1246.4915    466.39911    535.05176    525.19194   -2501.4252   -1268.5263    17.880267    23.333555    22.108096           90           90           90 
  102500    258.05803   -145.93905   -117.15229   -145.93905            0    2499.7721    17.875116    23.442943    22.064345            0            0            0    9245.9605    3200.2389     2539.274    1759.8035   -1424.7825    960.62585    822.93623    17.875116    23.442943    22.064345           90           90           90 
  103000    259.81444   -145.22639   -116.24369   -145.22639            0    154.73528    18.011614    23.523804      21.9411            0            0            0    9296.4811   -884.32726   -588.55157    1937.0847    280.54548   -974.28748     457.5584    18.011614    23.523804      21.9411           90           90           90 
  103500    262.85724   -146.42685   -117.10473   -146.42685            0    4132.0553    18.030818    23.081087    21.725066            0            0            0    9041.3393    2325.1755     5828.633    4242.3574   -2239.3891    1437.1508    1586.9513    18.030818    23.081087    21.725066           90           90           90 
  104000    261.14305   -145.05676   -115.92586   -145.05676            0   -792.99037    18.270234     23.05089    22.278274            0            0            0    9382.3874   -691.13776    230.99044   -1918.8238    2262.0447   -1657.0801    309.86027    18.270234     23.05089    22.278274           90           90           90 
  104500    247.50544   -144.58885   -116.97924   -144.58885            0    2191.0327     17.98791    22.988093    22.223411            0            0            0    9189.5525     1450.742    3426.8922    1695.4638    128.71908   -1678.8975    612.28366     17.98791    22.988093    22.223411           90           90           90 
  105000     260.5271    -144.8098   -115.74761    -144.8098            0    2337.8778    17.915133    23.345752     22.04586            0            0            0    9220.5103    3039.6458    2562.9193    1411.0682   -1907.0724    1.5258652   -416.74285    17.915133    23.345752     22.04586           90           90           90 
  105500    263.40512   -144.25504    -114.8718   -144.25504            0    2245.1268    17.962496    23.560989    21.960412            0            0            0    9293.9573    3821.2658    770.14041    2143.9741    2222.1376   -744.54481   -1636.1383    17.962496    23.560989    21.960412           90           90           90 
  106000    263.56566   -145.43774   -116.03659   -145.43774            0    4001.6667    17.910944    23.388536    21.977671            0            0            0    9206.6826    5233.7639     5740.058    1031.1782   -873.56628   -1602.7904    199.69768    17.910944    23.388536    21.977671           90           90           90 
  106500    244.19117   -143.71431   -116.47441   -143.71431            0    2102.2113    17.986604    23.297756    22.097517            0            0            0    9259.9093    1918.0431    3153.4948     1235.096    1095.4943   -199.52503    370.62069    17.986604    23.297756    22.097517           90           90           90 
  107000    265.86328   -146.56602   -116.90857   -146.56602            0    1181.0519    18.027646    23.209284    22.062876            0            0            0    9231.3007    947.06408    2678.0247   -81.933229   -632.80559    196.90626   -1856.3013    18.027646    23.209284    22.062876           90           90           90 
  107500      258.723    -145.0247   -116.16376    -145.0247            0    5377.9446    18.054484    23.184684    21.995886            0            0            0    9207.2034      4601.74    7014.6701    4517.4237     519.8042    1553.4106    1434.0905    18.054484    23.184684    21.995886           90           90           90 
  108000    263.83473   -144.73046   -115.29929   -144.73046            0   -856.66358    18.054556    23.380292    22.057415            0            0            0    9310.8936   -597.48927   -693.99052   -1278.5109    1951.7003   -800.80392    278.76849    18.054556    23.380292    22.057415           90           90           90 
  108500    265.37776   -144.28576   -114.68247   -144.28576            0    2508.2167    17.837529    23.496354    21.963653            0            0            0    9205.3381    992.07761    4302.1657    2230.4069    59.179751   -420.31483   -506.77139    17.837529    23.496354    21.963653           90           90           90 
  109000    251.84201   -144.51134   -116.41799   -144.51134            0    1553.3711    17.763298    23.499397    22.063114            0            0            0    9209.7348    4983.3051    2227.1533   -2550.3451    203.09297     897.3545    734.17512    17.763298    23.499397    22.063114           90           90           90 
  109500    259.67068    -144.3254   -115.35875    -144.3254            0    386.67184    17.923142    23.333885    22.200349            0            0            0    9284.5531    4118.6925   -1199.3544   -1759.3226   -701.22798    333.48136    875.98777    17.923142    23.333885    22.200349           90           90           90 
  110000     259.9832   -145.34907   -116.34755   -145.34907            0    3654.2078    18.135561    23.018353    22.059983            0            0            0    9208.9564    1919.4097    5756.3018    3286.9118   -1436.4286   -741.97868    186.69997    18.135561    23.018353    22.059983           90           90           90 
  110500    259.18328   -146.68079   -117.76851   -146.68079            0    1339.4186    18.241346    23.016538    21.962524            0            0            0    9221.0236   -1881.6971    2233.7202    3666.2327    2675.9145    298.91303   -1718.7726    18.241346    23.016538    21.962524           90           90           90 
  111000    260.20334   -145.69604   -116.66997   -145.69604            0      789.348    18.059425    23.303985     21.96745            0            0            0    9245.1456    1843.5703    822.57827   -298.10459   -1382.4804    63.267975   -877.75676    18.059425    23.303985     21.96745           90           90           90 
  111500    255.73654   -144.46572   -115.93793   -144.46572            0     4139.607    17.696995    23.517032    22.006291            0            0            0    9158.5957    5721.5439    3469.0458    3228.2314    770.25893    84.359358    430.78162    17.696995    23.517032    22.006291           90           90           90 
[...]
  373500    245.70154    -144.8053   -117.39693    -144.8053            0    1647.6731    18.134812    23.184023    21.918759            0            0            0    9215.4772   -567.51057    843.70855    4666.8214    315.81805   -1408.8825   -1222.0832    18.134812    23.184023    21.918759           90           90           90 
  374000    264.30844   -144.88923   -115.40523   -144.88923            0    1343.5533    18.207584    22.813434    22.033852            0            0            0    9152.3664    90.054533    2662.1846    1278.4207   -735.38804    1516.3371    1495.8357    18.207584    22.813434    22.033852           90           90           90 
  374500    269.92456   -144.05931   -113.94882   -144.05931            0    4660.6597     18.12487    22.992928    22.177094            0            0            0    9242.1668    6247.6247    3768.6429    3965.7115   -118.56592    216.78998    846.81949     18.12487    22.992928    22.177094           90           90           90 
  375000    274.21444   -145.08732   -114.49829   -145.08732            0    952.34241    17.908874    23.363303    22.124678            0            0            0    9257.1966    1837.6231    75.876801    943.52735   -927.94858   -885.64688   -341.49933    17.908874    23.363303    22.124678           90           90           90 
  375500    256.96598   -144.66502   -116.00007   -144.66502            0    889.47556    17.797046    23.517231    21.947398            0            0            0    9185.8032     1223.075    2113.2322   -667.88057   -1460.5935     2628.135   -734.60809    17.797046    23.517231    21.947398           90           90           90 
  376000    261.07099   -144.71509   -115.59223   -144.71509            0    1872.7222    17.837588    23.468389    21.934802            0            0            0    9182.3348    2380.0631    319.03854    2919.0649    -1673.755    960.74997   -1552.9037    17.837588    23.468389    21.934802           90           90           90 
  376500    266.89683   -143.99805    -114.2253   -143.99805            0    2570.9847    18.005806    23.320993    22.067942            0            0            0    9266.6218   -341.58625    6112.7802      1941.76    273.00452   -958.05518    755.43609    18.005806    23.320993    22.067942           90           90           90 
  377000    253.26516   -145.93344   -117.68133   -145.93344            0    2466.9718    18.021142    23.060331    22.107767            0            0            0    9187.4022    2073.0647    5442.2842   -114.43357   -1068.6749    2263.4109   -1207.3864    18.021142    23.060331    22.107767           90           90           90 
  377500    256.28846    -145.3576   -116.76824    -145.3576            0    1337.6635    18.071248    23.137051    22.045258            0            0            0     9217.462   -1647.1194    2372.4768     3287.633   -1753.3733    1265.3636    -1235.584    18.071248    23.137051    22.045258           90           90           90 
  378000    255.74009   -144.76291   -116.23471   -144.76291            0    3692.3605    17.985079     23.37223    21.972571            0            0            0    9236.2012    2779.4009    5193.8776    3103.8029   -1215.1322   -290.77715   -487.10605    17.985079     23.37223    21.972571           90           90           90 
  378500    259.26099   -146.85302   -117.93207   -146.85302            0    731.55545    17.823312    23.492311    21.974091            0            0            0    9200.7889   -1295.0229   -655.83133    4145.5206   -671.40876   -2156.7851    1457.6725    17.823312    23.492311    21.974091           90           90           90 
  379000    261.97299   -144.99814   -115.77466   -144.99814            0   -399.11069    17.761734     23.38497     22.02694            0            0            0    9149.0575    -1084.229    696.87683   -809.97995    710.03716   -220.02234    249.81886    17.761734     23.38497     22.02694           90           90           90 
  379500    252.71313   -145.30417   -117.11364   -145.30417            0    1237.7012    17.985369    23.319987    22.198182            0            0            0    9310.3297    2797.8435   -988.45861    1903.7188   -1641.1451   -519.20727   -168.92616    17.985369    23.319987    22.198182           90           90           90 
  380000    241.97609   -144.13701   -117.14421   -144.13701            0    3302.5711    18.084771    23.044106    22.020475            0            0            0    9176.9754   -516.97132    6113.9331    4310.7516    177.16204   -3403.2063    1576.4715    18.084771    23.044106    22.020475           90           90           90 
  380500    250.70788   -145.91289   -117.94604   -145.91289            0    2547.0698    18.127824    23.129075    21.896032            0            0            0    9180.5639    409.68521    3352.2776    3879.2465    1418.4235    623.72957   -2013.4133    18.127824    23.129075    21.896032           90           90           90 
  381000    261.03984   -145.67351   -116.55412   -145.67351            0    -344.7503    18.049136    23.362885    22.000723            0            0            0    9277.2626   -978.28615   -1648.0668    1592.1021   -1897.2427      461.237    1942.7924    18.049136    23.362885    22.000723           90           90           90 
  381500     265.2256    -142.8503   -113.26399    -142.8503            0    5163.7571    17.760584    23.399521    22.021586            0            0            0     9151.932    5468.2064    5011.1902    5011.8748    -4509.474    582.92778    728.26279    17.760584    23.399521    22.021586           90           90           90 
  382000    257.28992   -144.10457   -115.40349   -144.10457            0    2175.8964    17.760095    23.470995    22.202054            0            0            0    9254.8618    5110.8529    2694.8889   -1278.0525   -1430.2239   -651.66202   -1488.9586    17.760095    23.470995    22.202054           90           90           90 
  382500    277.62251   -144.83024   -113.86103   -144.83024            0    2555.5858    17.989264    23.213571    22.087442            0            0            0    9223.6066    2255.7579    3488.0641    1922.9353    1754.5189    806.43638   -206.24338    17.989264    23.213571    22.087442           90           90           90 
  383000     259.9713   -143.71085   -114.71066   -143.71085            0    3326.1775    18.323271    22.816831    21.919476            0            0            0     9164.072    2797.1333    3350.2258    3831.1736   -1227.7604    550.88633    242.70491    18.323271    22.816831    21.919476           90           90           90 
  383500    267.38544    -143.0532   -113.22595    -143.0532            0    809.00187    18.427649    22.820344    21.986852            0            0            0    9246.0274   -949.84176   -846.92508    4223.7725    74.881119    59.045634    918.67102    18.427649    22.820344    21.986852           90           90           90 
  384000    258.24764   -145.25688   -116.44896   -145.25688            0     5288.237    17.945278    23.264844    22.066751            0            0            0     9212.738    5682.7486    5255.2519    4926.7104   -616.87672    984.15839   -443.14354    17.945278    23.264844    22.066751           90           90           90 
  384500    258.58501   -145.59447   -116.74892   -145.59447            0   -781.01587    17.655695    23.600221    22.111694            0            0            0    9213.4628   -5.5246428   -1411.1885    -926.3345   -1107.6342   -484.91855   -358.25399    17.655695    23.600221    22.111694           90           90           90 
  385000     253.2909    -146.0733   -117.81831    -146.0733            0    2049.7887    17.757085    23.545795    22.112754            0            0            0    9245.4461    4697.9441    1698.4702   -247.04834    656.34939    640.53179    320.86253    17.757085    23.545795    22.112754           90           90           90 
  385500    247.65917   -145.93027   -118.30352   -145.93027            0    2115.6662    17.995172    23.240227    22.043155            0            0            0    9218.7093    1491.9867    3648.2684    1206.7436   -1501.2561   -852.29921   -608.51722    17.995172    23.240227    22.043155           90           90           90 
  386000    259.09239   -144.79644   -115.89429   -144.79644            0    3186.3657    18.107368    23.005999    21.988233            0            0            0    9159.8161    3497.8872    4793.9975    1267.2125   -1867.7706   -2106.5088    1144.4409    18.107368    23.005999    21.988233           90           90           90 
  386500    264.87716   -144.95361   -115.40616   -144.95361            0    1207.6453    18.175036    23.177917    22.121907            0            0            0    9319.0628    4456.8353   -2376.1788    1542.2794   -798.65526   -427.58751    -855.7609    18.175036    23.177917    22.121907           90           90           90 
  387000    262.22164    -145.2236   -115.97238    -145.2236            0     5697.205    17.928656    23.291678    21.967197            0            0            0    9173.2481    6418.1136    5392.3997    5281.1016     281.9001   -769.23572    159.80974    17.928656    23.291678    21.967197           90           90           90 
  387500     256.6742   -144.55855   -115.92616   -144.55855            0    617.33859    17.789188    23.434065    21.968008            0            0            0    9157.8689   -1052.5827   -473.45769    3378.0562    2147.0925    914.25658    1011.4656    17.789188    23.434065    21.968008           90           90           90 
  388000    258.64823    -147.2718    -118.4192    -147.2718            0   -128.74779    17.879865    23.519792    22.124573            0            0            0    9304.0619    -1621.189   -568.91693    1803.8626    -349.4232   -1133.9983   -280.65782    17.879865    23.519792    22.124573           90           90           90 
  388500     247.4187   -145.75692   -118.15699   -145.75692            0    3658.4545    17.990472    23.218339     22.01165            0            0            0    9194.4616   -578.48106    5565.6267    5988.2177    467.40814    1031.3365   -1391.6613    17.990472    23.218339     22.01165           90           90           90 
  389000    246.98359    -145.4094   -117.85801    -145.4094            0    2046.4004    18.086034    23.067283    21.976288            0            0            0    9168.4119    2270.0133     855.7208    3013.4672      1588.24   -1225.9385    1013.1906    18.086034    23.067283    21.976288           90           90           90 
  389500    254.16606   -146.32842   -117.97581   -146.32842            0    2951.9386    18.078819    23.186407    22.077181            0            0            0    9254.3755    4825.0034    1989.5694     2041.243   -2702.8598    -1672.543   -1103.3563    18.078819    23.186407    22.077181           90           90           90 
  390000    255.74439   -147.22759   -118.69892   -147.22759            0    4556.1993    17.829154    23.256315    22.062235            0            0            0    9147.8947    3422.8115    6723.8155     3521.971   -934.92183   -1060.3545   -371.39549    17.829154    23.256315    22.062235           90           90           90 
  390500    263.55838   -145.84665   -116.44632   -145.84665            0   -134.73967    17.823043    23.505996    22.205492            0            0            0    9302.9548   -997.20284    2303.4327   -1710.4489      1237.26   -272.86562   -149.77755    17.823043    23.505996    22.205492           90           90           90 
  391000     280.5959   -146.02436   -114.72347   -146.02436            0    3577.9168    17.778165    23.382418    21.935771            0            0            0    9118.6234     4607.634    4090.6951    2035.4214     407.4268   -510.71286    2007.0719    17.778165    23.382418    21.935771           90           90           90 
  391500    257.68767   -142.14626   -113.40081   -142.14626            0    2065.5364    17.972848    23.296241    21.865421            0            0            0    9155.0474    2344.2842     4840.216    -987.8909    1139.5372    1043.8216   -205.02727    17.972848    23.296241    21.865421           90           90           90 
  392000    244.36433   -145.67444   -118.41523   -145.67444            0    232.49162    18.185599     23.22403    22.048103            0            0            0    9311.8599   -407.68831    2771.5619   -1666.3987    2300.4616    991.59664    1276.1531    18.185599     23.22403    22.048103           90           90           90 
  392500    252.63397    -146.4545    -118.2728    -146.4545            0    1781.3949    18.043037    23.042234    22.030803            0            0            0    9159.3479   -1275.1315    4142.9348    2476.3814   -492.20062   -821.93549    1521.2794    18.043037    23.042234    22.030803           90           90           90 
  393000    259.08665   -144.06979   -115.16828   -144.06979            0   -102.93408    17.872926    23.203777    22.122596            0            0            0    9174.6698   -2466.3222   -1608.2062    3765.7262     1812.324    65.494623    -1737.334    17.872926    23.203777    22.122596           90           90           90 
  393500    276.32877   -144.17304   -113.34815   -144.17304            0    2854.8033     17.78058    23.520212    22.171856            0            0            0    9272.3371     3137.713    2803.2501    2623.4467    2008.6412     904.7189    1423.1639     17.78058    23.520212    22.171856           90           90           90 
  394000    253.22601   -144.59377   -116.34602   -144.59377            0    2594.0218     17.78513    23.543202    21.968405            0            0            0    9198.5865    3130.5761    942.17973    3709.3096   -1180.3663   -1483.2728   -334.76309     17.78513    23.543202    21.968405           90           90           90 
  394500    254.34415   -145.54193   -117.16946   -145.54193            0    1048.8496    18.083517    23.235175    21.989311            0            0            0      9239.33    452.68087    1371.0643    1322.8036   -442.62683    349.28352    586.06772    18.083517    23.235175    21.989311           90           90           90 
  395000    259.41624   -143.88197   -114.94369   -143.88197            0    2572.4372    18.271112      22.8306    22.088759            0            0            0    9214.1146    3513.7425     5895.797    -1692.228    422.44329    -366.7321    -2505.314    18.271112      22.8306    22.088759           90           90           90 
  395500    256.10678   -145.20093   -116.63184   -145.20093            0     3778.239    18.109267    22.856728    22.049432            0            0            0    9126.6696    3261.5503    3428.6636     4644.503   -105.61874    340.06251    2379.8553    18.109267    22.856728    22.049432           90           90           90 
  396000    253.82911    -145.5825   -117.26748    -145.5825            0    243.43758    18.009452    23.440255     22.08885            0            0            0    9324.7233   -969.39718    2942.2639    -1242.554    946.96783    83.862233     323.3031    18.009452    23.440255     22.08885           90           90           90 
  396500    264.67905   -147.81836   -118.29301   -147.81836            0    2653.2907    17.839658    23.541454    21.946985            0            0            0     9217.108    3561.6174   -190.07048    4588.3251    1554.1095    252.84393    1149.5137    17.839658    23.541454    21.946985           90           90           90 
  397000    244.25227    -143.6307   -116.38399    -143.6307            0    2389.8311    17.855838    23.380826    21.959103            0            0            0    9167.5794    1806.9924    2117.0964    3245.4046    62.941286   -3155.1566     1912.252    17.855838    23.380826    21.959103           90           90           90 
  397500    261.25962    -145.1622   -116.01829    -145.1622            0    2437.3496    17.970809    23.187337    22.008754            0            0            0    9170.9426     2883.036    2920.3783    1508.6346   -216.03633    896.41708    1884.2522    17.970809    23.187337    22.008754           90           90           90 
  398000    252.02252   -144.98594   -116.87245   -144.98594            0    2200.9859     18.10929    23.130972    22.125744            0            0            0     9268.153    146.54233    4588.0148    1868.4004    3343.0688   -168.53599    1628.3685     18.10929    23.130972    22.125744           90           90           90 
  398500    265.30711   -144.31977   -114.72436   -144.31977            0    4826.3185    18.042046    23.108543    22.063063            0            0            0    9198.6512    1533.0343    3433.3306    9512.5904   -1857.9836    865.42228    -1217.754    18.042046    23.108543    22.063063           90           90           90 
  399000    232.33809   -145.51007   -119.59241   -145.51007            0    3367.6486    17.885119    23.278355     22.03617            0            0            0    9174.4541    2538.4257    562.48829    7002.0317    1688.8069   -476.36659   -853.98557    17.885119    23.278355     22.03617           90           90           90 
  399500    254.89677   -145.45686   -117.02275   -145.45686            0    2630.2428    17.809304    23.419531     21.99885            0            0            0    9175.4026    3363.5468     1425.121    3102.0605    1242.2943    1041.6321    152.80529    17.809304    23.419531     21.99885           90           90           90 
  400000    247.75499   -145.91985   -118.28241   -145.91985            0     3998.431    17.908135    23.496292    21.974272            0            0            0     9246.219    3369.1882    2583.9333    6042.1716   -993.55229    272.09724    1848.7368    17.908135    23.496292    21.974272           90           90           90 
Loop time of 2111.98 on 1 procs for 400000 steps with 864 atoms

Performance: 8.182 ns/day, 2.933 hours/ns, 189.396 timesteps/s
74.5% CPU use with 1 MPI tasks x 1 OpenMP threads

MPI task timing breakdown:
Section |  min time  |  avg time  |  max time  |%varavg| %total
---------------------------------------------------------------
Pair    | 1837.8     | 1837.8     | 1837.8     |   0.0 | 87.02
Bond    | 0.053885   | 0.053885   | 0.053885   |   0.0 |  0.00
Neigh   | 246.72     | 246.72     | 246.72     |   0.0 | 11.68
Comm    | 8.1804     | 8.1804     | 8.1804     |   0.0 |  0.39
Output  | 2.9727     | 2.9727     | 2.9727     |   0.0 |  0.14
Modify  | 14.622     | 14.622     | 14.622     |   0.0 |  0.69
Other   |            | 1.589      |            |       |  0.08

Nlocal:        864.000 ave         864 max         864 min
Histogram: 1 0 0 0 0 0 0 0 0 0
Nghost:        3770.00 ave        3770 max        3770 min
Histogram: 1 0 0 0 0 0 0 0 0 0
Neighs:         0.00000 ave           0 max           0 min
Histogram: 1 0 0 0 0 0 0 0 0 0
FullNghs:      170214.0 ave      170214 max      170214 min
Histogram: 1 0 0 0 0 0 0 0 0 0

Total # of neighbors = 170214
Ave neighs/atom = 197.00694
Ave special neighs/atom = 0.0000000
Neighbor list builds = 40000
Dangerous builds not checked

unfix		3
unfix		2

write_data	data.final.${pid}
write_data	data.final.0
System init for write_data ...

write_restart   restart.lmp.${pid}
write_restart   restart.lmp.0
System init for write_restart ...
Unloading pair style deepmd
Unloading compute style deepmd
Unloading fix style deepmd
Total wall time: 0:35:15
