LAMMPS data file via MDAnalysis

        3840  atoms
           0  bonds
           0  angles
           0  dihedrals
           0  impropers

           2  atom types
           0  bond types
           0  angle types
           0  dihedral types
           0  improper types

0.000000 52.789078 xlo xhi
0.000000 24.812031 ylo yhi
0.000000 22.856064 zlo zhi


Masses

1 15.999000
2 1.008000

Atoms

1 0 1 -1.179400 5.660915 22.216341 5.451485
2 0 2 0.589700 5.590858 23.150921 5.613562
3 0 2 0.589700 6.178065 21.885477 6.179705
4 0 1 -1.179400 2.154505 10.559606 13.258704
5 0 2 0.589700 2.076732 10.290411 14.166987
6 0 2 0.589700 2.319133 11.495605 13.300276
7 0 1 -1.179400 20.342388 13.656436 4.780932
8 0 2 0.589700 20.160734 13.708954 5.712605
9 0 2 0.589700 20.285221 12.728773 4.579077
10 0 1 -1.179400 0.794406 1.738294 2.820670
11 0 2 0.589700 -0.044712 1.558036 2.400390
12 0 2 0.589700 1.446896 1.576789 2.144283
13 0 1 -1.179400 -0.617437 2.486101 5.058132
14 0 2 0.589700 -0.083548 2.267442 4.300155
15 0 2 0.589700 -1.324372 3.024918 4.710767
16 0 1 -1.179400 50.959103 1.365037 1.994929
17 0 2 0.589700 50.575558 0.570268 1.637855
18 0 2 0.589700 50.363136 2.057266 1.721766
19 0 1 -1.179400 7.596868 11.949542 9.210154
20 0 2 0.589700 7.636260 11.929444 10.159560
21 0 2 0.589700 8.488070 11.743980 8.930808
22 0 1 -1.179400 -0.469972 4.112409 1.313057
23 0 2 0.589700 -0.917825 3.408648 0.853738
24 0 2 0.589700 -0.637574 4.885283 0.784736
25 0 1 -1.179400 1.420091 22.115376 21.871059
26 0 2 0.589700 1.380498 21.697718 21.018084
27 0 2 0.589700 2.026213 21.576595 22.372271
28 0 1 -1.179400 -0.504784 24.727957 5.360017
29 0 2 0.589700 -0.620323 0.660190 5.481269
30 0 2 0.589700 -1.136438 24.496386 4.684459
31 0 1 -1.179400 20.861223 2.553117 10.807607
32 0 2 0.589700 21.675962 2.457937 11.297292
33 0 2 0.589700 21.127419 2.950529 9.985579
34 0 1 -1.179400 6.627829 8.951814 16.964087
35 0 2 0.589700 7.213500 9.173929 17.682312
36 0 2 0.589700 5.933052 8.436280 17.366550
37 0 1 -1.179400 4.656413 3.542812 12.997891
38 0 2 0.589700 4.006052 4.200090 13.232157
39 0 2 0.589700 5.254001 3.516739 13.739872
40 0 1 -1.179400 14.858161 0.697563 10.548911
41 0 2 0.589700 15.451818 1.427010 10.392411
42 0 2 0.589700 15.095774 0.054140 9.889949
43 0 1 -1.179400 9.708245 23.977131 21.325962
44 0 2 0.589700 10.460000 24.407181 20.924173
45 0 2 0.589700 9.763423 24.214167 22.244766
46 0 1 -1.179400 16.260799 3.026243 10.286455
47 0 2 0.589700 16.712934 3.691273 10.796467
48 0 2 0.589700 15.706404 3.517617 9.687155
49 0 1 -1.179400 6.638611 20.893644 12.178765
50 0 2 0.589700 7.020474 20.870983 11.307547
51 0 2 0.589700 6.630075 19.984758 12.458637
52 0 1 -1.179400 21.408625 20.438122 13.132935
53 0 2 0.589700 20.997351 20.082396 12.351799
54 0 2 0.589700 22.154165 20.938404 12.808344
55 0 1 -1.179400 2.252083 18.575140 16.665161
56 0 2 0.589700 1.371353 18.721930 16.323099
57 0 2 0.589700 2.759821 19.320368 16.357664
58 0 1 -1.179400 11.127789 15.186440 3.866968
59 0 2 0.589700 10.988672 14.898149 2.971854
60 0 2 0.589700 11.816863 14.615460 4.198029
61 0 1 -1.179400 20.258768 22.750324 10.860347
62 0 2 0.589700 20.447250 22.105869 10.186888
63 0 2 0.589700 19.469761 22.425392 11.289409
64 0 1 -1.179400 9.480866 20.421501 13.631534
65 0 2 0.589700 9.293409 20.421083 14.563554
66 0 2 0.589700 8.739902 19.963146 13.241402
67 0 1 -1.179400 11.352970 10.034746 22.775948
68 0 2 0.589700 12.234372 10.121677 0.012249
69 0 2 0.589700 10.921653 9.400844 0.216423
70 0 1 -1.179400 0.647012 19.736845 1.645872
71 0 2 0.589700 0.930567 18.948648 2.097164
72 0 2 0.589700 1.275588 19.841255 0.936743
73 0 1 -1.179400 21.286358 2.830590 18.344641
74 0 2 0.589700 21.013290 1.999912 18.719793
75 0 2 0.589700 22.085947 2.626549 17.863626
76 0 1 -1.179400 17.414761 16.742764 2.297035
77 0 2 0.589700 17.675259 17.317091 3.009087
78 0 2 0.589700 17.705124 15.878694 2.570197
79 0 1 -1.179400 21.290995 0.508723 6.770531
80 0 2 0.589700 21.232731 1.292474 6.235215
81 0 2 0.589700 20.411888 0.133766 6.739736
82 0 1 -1.179400 17.569098 3.689827 3.540185
83 0 2 0.589700 17.803085 4.405181 4.121836
84 0 2 0.589700 17.823538 2.904959 4.013819
85 0 1 -1.179400 12.038623 9.935676 12.191360
86 0 2 0.589700 11.503497 10.718762 12.284135
87 0 2 0.589700 12.330169 9.950150 11.286213
88 0 1 -1.179400 12.550319 18.490416 17.396978
89 0 2 0.589700 13.288657 18.052570 16.979385
90 0 2 0.589700 12.858994 18.682953 18.275810
91 0 1 -1.179400 23.705061 2.662717 0.233143
92 0 2 0.589700 23.888422 3.596142 0.243510
93 0 2 0.589700 24.447495 2.270695 0.687436
94 0 1 -1.179400 13.331396 6.781884 11.013544
95 0 2 0.589700 13.028085 6.979096 10.133905
96 0 2 0.589700 12.567108 6.934526 11.565013
97 0 1 -1.179400 25.042719 4.533536 3.367563
98 0 2 0.589700 25.736376 4.335364 2.743311
99 0 2 0.589700 25.392769 5.250326 3.886632
100 0 1 -1.179400 6.113071 4.646604 5.582844
101 0 2 0.589700 5.604631 4.597437 6.386594
102 0 2 0.589700 5.629282 5.258842 5.036733
103 0 1 -1.179400 14.345393 0.806096 21.645992
104 0 2 0.589700 13.910233 1.653221 21.646313
105 0 2 0.589700 14.186220 0.457312 22.515963
106 0 1 -1.179400 13.728245 4.862327 15.806252
107 0 2 0.589700 13.509709 4.221160 16.473866
108 0 2 0.589700 14.612749 4.628436 15.528174
109 0 1 -1.179400 21.265629 2.842384 1.565068
110 0 2 0.589700 22.122534 2.677499 1.174949
111 0 2 0.589700 21.112278 2.092776 2.129870
112 0 1 -1.179400 15.491619 -0.009304 7.796015
113 0 2 0.589700 14.583891 0.257175 7.654562
114 0 2 0.589700 15.559642 24.146660 7.371209
115 0 1 -1.179400 24.017632 5.434940 0.509863
116 0 2 0.589700 23.097775 5.622555 0.694023
117 0 2 0.589700 24.498066 5.860005 1.213644
118 0 1 -1.179400 20.753939 11.133095 13.012285
119 0 2 0.589700 20.142860 11.751713 13.403427
120 0 2 0.589700 21.168560 10.702027 13.752728
121 0 1 -1.179400 30.114540 1.168859 4.179287
122 0 2 0.589700 29.440516 1.135906 3.505273
123 0 2 0.589700 30.941380 1.157615 3.700614
124 0 1 -1.179400 28.350382 1.137036 2.241572
125 0 2 0.589700 27.393290 1.124565 2.243152
126 0 2 0.589700 28.600704 0.305659 1.852576
127 0 1 -1.179400 31.539164 4.262545 3.279701
128 0 2 0.589700 31.978342 4.335482 2.438377
129 0 2 0.589700 31.752047 3.386206 3.582588
130 0 1 -1.179400 28.692034 4.318407 3.623709
131 0 2 0.589700 29.618692 4.525804 3.506559
132 0 2 0.589700 28.337862 4.288123 2.741260
133 0 1 -1.179400 26.575333 2.529879 4.845101
134 0 2 0.589700 27.261854 2.893934 4.291683
135 0 2 0.589700 25.799278 3.050073 4.646876
136 0 1 -1.179400 25.637442 1.125791 1.996846
137 0 2 0.589700 25.020456 1.279040 2.707152
138 0 2 0.589700 25.251875 0.409799 1.502060
139 0 1 -1.179400 30.111626 2.662462 0.550184
140 0 2 0.589700 30.145798 3.612725 0.529411
141 0 2 0.589700 29.316000 2.462754 1.039426
142 0 1 -1.179400 27.055340 4.154355 1.201455
143 0 2 0.589700 26.915176 4.888429 0.613378
144 0 2 0.589700 27.091492 3.394521 0.630941
145 0 1 -1.179400 30.164005 5.566028 0.400303
146 0 2 0.589700 30.893524 5.948110 0.882803
147 0 2 0.589700 30.266945 5.897505 22.639343
148 0 1 -1.179400 26.678005 24.841473 4.944942
149 0 2 0.589700 25.891970 24.508509 4.516657
150 0 2 0.589700 26.608738 0.782640 4.865246
151 0 1 -1.179400 36.359657 0.733641 4.053018
152 0 2 0.589700 35.659096 0.858990 3.417625
153 0 2 0.589700 37.159142 0.691680 3.532093
154 0 1 -1.179400 34.517715 1.103535 2.019828
155 0 2 0.589700 33.581848 0.911946 2.075622
156 0 2 0.589700 34.558216 2.028409 1.801866
157 0 1 -1.179400 37.655483 4.351149 3.550856
158 0 2 0.589700 38.068977 4.204062 2.706388
159 0 2 0.589700 38.139050 3.790579 4.149993
160 0 1 -1.179400 34.981514 4.059438 3.596697
161 0 2 0.589700 35.937042 4.095793 3.554499
162 0 2 0.589700 34.745029 4.712842 4.246185
163 0 1 -1.179400 32.894260 2.538064 4.765531
164 0 2 0.589700 33.599045 2.938298 4.261934
165 0 2 0.589700 33.008114 1.603425 4.630586
166 0 1 -1.179400 31.729069 0.971810 1.779414
167 0 2 0.589700 31.357662 1.767144 1.411118
168 0 2 0.589700 31.194378 0.271679 1.416173
169 0 1 -1.179400 36.750404 2.977253 0.593953
170 0 2 0.589700 36.585453 2.662925 22.836006
171 0 2 0.589700 36.603439 3.915734 0.543841
172 0 1 -1.179400 33.470192 4.209262 1.368055
173 0 2 0.589700 34.158802 4.409353 1.997186
174 0 2 0.589700 33.553406 4.884481 0.703825
175 0 1 -1.179400 36.281528 5.600380 0.383672
176 0 2 0.589700 37.007111 5.833710 0.958017
177 0 2 0.589700 36.365116 6.192901 22.768858
178 0 1 -1.179400 33.307709 24.876795 4.712155
179 0 2 0.589700 32.496895 24.460920 4.425063
180 0 2 0.589700 33.494282 24.479820 5.555730
181 0 1 -1.179400 42.752338 1.309759 4.015028
182 0 2 0.589700 42.783092 0.503754 4.518663
183 0 2 0.589700 42.070587 1.158823 3.365177
184 0 1 -1.179400 40.947258 1.224616 1.914617
185 0 2 0.589700 41.403221 1.850362 1.360250
186 0 2 0.589700 41.274467 0.376548 1.632580
187 0 1 -1.179400 44.243958 4.195137 3.389005
188 0 2 0.589700 44.646355 4.957000 3.794029
189 0 2 0.589700 44.587814 3.456380 3.880676
190 0 1 -1.179400 41.335918 4.366000 3.302078
191 0 2 0.589700 42.284595 4.261486 3.373187
192 0 2 0.589700 40.975159 3.604882 3.745372
193 0 1 -1.179400 39.828518 2.560929 4.625919
194 0 2 0.589700 39.628746 1.636297 4.727025
195 0 2 0.589700 39.679821 2.932368 5.488317
196 0 1 -1.179400 38.207512 1.199708 2.148482
197 0 2 0.589700 37.812435 1.858767 1.586636
198 0 2 0.589700 39.143391 1.243430 1.953951
199 0 1 -1.179400 42.707676 2.774283 0.392437
200 0 2 0.589700 42.884853 3.700630 0.516732
201 0 2 0.589700 43.467678 2.335396 0.768565
202 0 1 -1.179400 39.458412 4.444351 1.422466
203 0 2 0.589700 40.152763 4.492316 2.074891
204 0 2 0.589700 39.527832 5.262324 0.942445
205 0 1 -1.179400 42.752060 5.592418 0.598277
206 0 2 0.589700 42.025181 5.815771 1.174958
207 0 2 0.589700 43.521534 5.976560 1.013232
208 0 1 -1.179400 39.412975 24.696558 4.836112
209 0 2 0.589700 40.151749 24.220175 4.463862
210 0 2 0.589700 39.324123 24.348051 5.716022
211 0 1 -1.179400 48.858799 1.060817 4.109842
212 0 2 0.589700 49.597904 1.231108 3.530403
213 0 2 0.589700 49.222126 0.510851 4.796224
214 0 1 -1.179400 47.263023 0.950023 1.756719
215 0 2 0.589700 47.614204 1.005105 2.639148
216 0 2 0.589700 46.321995 1.089475 1.860614
217 0 1 -1.179400 50.748856 4.261725 3.539250
218 0 2 0.589700 49.864502 4.344531 3.185176
219 0 2 0.589700 -1.471291 4.249642 2.775033
220 0 1 -1.179400 47.667152 3.942635 3.667252
221 0 2 0.589700 47.375961 4.661693 4.218061
222 0 2 0.589700 47.129967 4.013424 2.883805
223 0 1 -1.179400 45.802429 2.356317 5.027371
224 0 2 0.589700 45.794815 1.405438 5.046225
225 0 2 0.589700 46.609295 2.579310 4.567182
226 0 1 -1.179400 44.436966 0.948790 1.926631
227 0 2 0.589700 43.917015 0.351916 1.396531
228 0 2 0.589700 43.908001 1.090594 2.705962
229 0 1 -1.179400 48.964256 2.832028 0.684060
230 0 2 0.589700 48.960281 2.465011 22.931252
231 0 2 0.589700 48.274807 2.358674 1.143297
232 0 1 -1.179400 46.171078 4.343844 1.532432
233 0 2 0.589700 45.451305 4.378662 2.157977
234 0 2 0.589700 45.956684 3.608869 0.968018
235 0 1 -1.179400 49.250107 5.507130 0.686561
236 0 2 0.589700 49.009590 4.588578 0.625503
237 0 2 0.589700 49.111893 5.848119 22.933989
238 0 1 -1.179400 45.884201 24.591084 4.872588
239 0 2 0.589700 45.904884 24.200230 5.738804
240 0 2 0.589700 45.166145 24.146755 4.427835
241 0 1 -1.179400 17.938450 4.953643 11.135896
242 0 2 0.589700 17.521563 5.742592 11.468152
243 0 2 0.589700 18.037481 5.110968 10.203736
244 0 1 -1.179400 12.949292 2.538862 3.209951
245 0 2 0.589700 13.841815 2.653493 2.886249
246 0 2 0.589700 12.846887 3.215214 3.870376
247 0 1 -1.179400 1.709731 5.935466 21.829760
248 0 2 0.589700 0.762311 5.877501 21.952089
249 0 2 0.589700 2.042568 6.243893 22.665874
250 0 1 -1.179400 12.949442 24.376635 4.533742
251 0 2 0.589700 12.163658 24.425419 3.993230
252 0 2 0.589700 13.576278 -0.049777 4.106340
253 0 1 -1.179400 3.099281 7.270671 16.421822
254 0 2 0.589700 2.551309 8.048119 16.361101
255 0 2 0.589700 3.681663 7.441697 17.156460
256 0 1 -1.179400 50.901855 7.218363 2.199221
257 0 2 0.589700 50.436188 6.481901 1.814645
258 0 2 0.589700 50.482681 7.346210 3.044058
259 0 1 -1.179400 2.561905 1.450074 0.687919
260 0 2 0.589700 3.456479 1.787987 0.671497
261 0 2 0.589700 2.566853 0.735450 0.060771
262 0 1 -1.179400 1.384426 17.918362 3.642554
263 0 2 0.589700 2.077205 18.573654 3.678739
264 0 2 0.589700 0.729541 18.221367 4.266076
265 0 1 -1.179400 6.285728 0.453166 2.431963
266 0 2 0.589700 5.429097 0.288033 2.822572
267 0 2 0.589700 6.847907 24.769445 2.777366
268 0 1 -1.179400 -0.759170 6.014155 5.491346
269 0 2 0.589700 -0.858616 6.954727 5.390688
270 0 2 0.589700 -1.299189 5.642570 4.800040
271 0 1 -1.179400 4.909126 15.142008 18.230604
272 0 2 0.589700 4.135798 15.516492 17.813906
273 0 2 0.589700 5.530367 15.863522 18.284883
274 0 1 -1.179400 3.257674 16.884052 7.626069
275 0 2 0.589700 3.952054 17.358788 7.175663
276 0 2 0.589700 2.735138 16.498713 6.929057
277 0 1 -1.179400 12.552656 24.183870 17.904730
278 0 2 0.589700 11.750301 23.798662 17.557732
279 0 2 0.589700 13.163808 24.175581 17.173307
280 0 1 -1.179400 2.263993 24.530830 5.857320
281 0 2 0.589700 1.341640 24.334013 5.696558
282 0 2 0.589700 2.678737 23.679874 5.960329
283 0 1 -1.179400 1.416795 12.262675 22.015497
284 0 2 0.589700 1.751770 13.026546 22.473757
285 0 2 0.589700 0.471070 12.288575 22.159763
286 0 1 -1.179400 3.928726 18.946262 3.684012
287 0 2 0.589700 4.209806 18.247450 3.102839
288 0 2 0.589700 4.327091 19.731171 3.321203
289 0 1 -1.179400 11.473886 9.957348 17.170433
290 0 2 0.589700 10.861137 10.156265 16.467861
291 0 2 0.589700 11.568595 9.011291 17.143871
292 0 1 -1.179400 7.618382 16.685266 21.745443
293 0 2 0.589700 6.674938 16.822403 21.662067
294 0 2 0.589700 7.739789 15.756243 21.581400
295 0 1 -1.179400 21.704765 7.826485 13.437947
296 0 2 0.589700 20.866144 8.136139 13.775818
297 0 2 0.589700 21.477125 7.080795 12.893019
298 0 1 -1.179400 2.612071 3.466273 6.469905
299 0 2 0.589700 3.286435 3.506559 7.143188
300 0 2 0.589700 1.906330 2.956654 6.860919
301 0 1 -1.179400 8.429284 18.741411 3.726607
302 0 2 0.589700 8.424071 18.646900 4.672311
303 0 2 0.589700 9.270332 18.377394 3.455372
304 0 1 -1.179400 -1.474209 14.831249 10.800855
305 0 2 0.589700 -1.509846 13.891402 10.659462
306 0 2 0.589700 51.071648 15.208006 9.962263
307 0 1 -1.179400 7.514834 15.451928 14.532753
308 0 2 0.589700 6.589929 15.422688 14.775706
309 0 2 0.589700 7.875764 14.632921 14.856860
310 0 1 -1.179400 21.536467 12.306517 1.673586
311 0 2 0.589700 21.637278 13.220111 1.918150
312 0 2 0.589700 22.331367 12.102670 1.184891
313 0 1 -1.179400 2.454272 7.973885 0.693382
314 0 2 0.589700 1.962278 7.646152 1.439969
315 0 2 0.589700 3.364071 7.990063 0.988246
316 0 1 -1.179400 1.996897 9.682920 7.446192
317 0 2 0.589700 2.152583 10.198951 8.229451
318 0 2 0.589700 1.810426 8.807868 7.769285
319 0 1 -1.179400 22.155474 12.348324 7.749111
320 0 2 0.589700 22.782993 12.142385 7.061572
321 0 2 0.589700 22.042599 11.530681 8.221498
322 0 1 -1.179400 18.712557 1.280413 4.050004
323 0 2 0.589700 18.337845 1.090551 3.196262
324 0 2 0.589700 19.630753 1.022384 3.975245
325 0 1 -1.179400 15.333675 20.106245 1.248657
326 0 2 0.589700 14.609394 19.578712 0.919726
327 0 2 0.589700 15.346044 19.935625 2.183580
328 0 1 -1.179400 9.361855 17.747118 19.791439
329 0 2 0.589700 10.209855 17.501827 20.157806
330 0 2 0.589700 8.740431 17.613102 20.501812
331 0 1 -1.179400 19.152601 14.859948 -0.046089
332 0 2 0.589700 19.490259 15.408163 22.377344
333 0 2 0.589700 18.256128 15.164530 0.089186
334 0 1 -1.179400 23.051247 5.762454 6.726584
335 0 2 0.589700 23.316227 5.820635 5.815157
336 0 2 0.589700 23.688314 6.298272 7.191836
337 0 1 -1.179400 24.949900 10.435984 3.383477
338 0 2 0.589700 25.320791 11.180785 3.845793
339 0 2 0.589700 25.171274 9.685993 3.925048
340 0 1 -1.179400 1.170656 21.775700 8.919044
341 0 2 0.589700 0.783126 21.286856 9.637798
342 0 2 0.589700 1.949444 21.277403 8.679523
343 0 1 -1.179400 16.027697 22.787605 10.176547
344 0 2 0.589700 15.808152 22.808289 9.251693
345 0 2 0.589700 16.722088 23.435003 10.273362
346 0 1 -1.179400 9.398191 9.530076 5.426812
347 0 2 0.589700 10.096996 9.946562 4.928187
348 0 2 0.589700 9.019027 8.895218 4.827572
349 0 1 -1.179400 20.646051 7.135469 7.269727
350 0 2 0.589700 21.422073 6.635856 7.024162
351 0 2 0.589700 20.559383 7.792212 6.587673
352 0 1 -1.179400 15.810380 13.328228 4.623632
353 0 2 0.589700 16.287565 12.507954 4.706726
354 0 2 0.589700 15.767756 13.670102 5.509522
355 0 1 -1.179400 18.653381 1.979155 9.438417
356 0 2 0.589700 19.356981 2.401799 9.925076
357 0 2 0.589700 17.849623 2.352701 9.794816
358 0 1 -1.179400 15.971843 10.905128 7.458870
359 0 2 0.589700 15.874930 10.569628 8.342977
360 0 2 0.589700 15.758957 11.829662 7.530046
361 0 1 -1.179400 30.146757 7.272587 4.151316
362 0 2 0.589700 29.923037 7.941891 4.788986
363 0 2 0.589700 29.473160 7.351288 3.480666
364 0 1 -1.179400 28.587896 7.344438 1.827485
365 0 2 0.589700 28.923532 6.706327 1.206492
366 0 2 0.589700 27.651781 7.399385 1.636961
367 0 1 -1.179400 31.498199 10.307177 3.303317
368 0 2 0.589700 32.033012 9.616576 3.684170
369 0 2 0.589700 31.791777 10.361364 2.400324
370 0 1 -1.179400 28.610098 10.436980 3.421176
371 0 2 0.589700 29.562126 10.346370 3.459707
372 0 2 0.589700 28.431446 10.705863 2.526949
373 0 1 -1.179400 26.796206 8.882244 5.006542
374 0 2 0.589700 26.846027 7.944243 4.857358
375 0 2 0.589700 27.513533 9.243715 4.491270
376 0 1 -1.179400 25.447725 7.515658 1.812329
377 0 2 0.589700 25.105736 7.509306 2.699995
378 0 2 0.589700 24.867275 8.106758 1.340932
379 0 1 -1.179400 30.125977 9.064947 0.482839
380 0 2 0.589700 29.425314 8.578526 0.910628
381 0 2 0.589700 30.924965 8.783699 0.924330
382 0 1 -1.179400 26.954212 10.495410 1.198901
383 0 2 0.589700 26.163322 10.422752 1.729296
384 0 2 0.589700 26.883837 9.784667 0.571221
385 0 1 -1.179400 29.997736 11.898355 0.253462
386 0 2 0.589700 29.279270 12.293384 0.741868
387 0 2 0.589700 29.876451 10.962157 0.369989
388 0 1 -1.179400 26.978096 6.129113 4.712609
389 0 2 0.589700 27.679649 5.564879 4.396164
390 0 2 0.589700 26.849642 5.865521 5.616851
391 0 1 -1.179400 36.215889 7.658353 4.040590
392 0 2 0.589700 36.222458 6.841465 4.527315
393 0 2 0.589700 36.059837 8.327188 4.698305
394 0 1 -1.179400 34.736759 7.625074 1.714722
395 0 2 0.589700 35.220486 7.523225 2.528504
396 0 2 0.589700 34.941120 6.839729 1.218503
397 0 1 -1.179400 37.582153 10.379314 3.490534
398 0 2 0.589700 37.961720 11.168449 3.863906
399 0 2 0.589700 36.647861 10.571570 3.414640
400 0 1 -1.179400 34.774933 10.370495 3.218624
401 0 2 0.589700 34.413750 9.657290 3.735095
402 0 2 0.589700 34.551708 11.155033 3.708060
403 0 1 -1.179400 33.222801 8.625899 4.725042
404 0 2 0.589700 32.952465 8.989582 5.561207
405 0 2 0.589700 33.123764 7.685858 4.830907
406 0 1 -1.179400 31.719954 7.257826 1.835987
407 0 2 0.589700 32.655304 7.458407 1.859386
408 0 2 0.589700 31.429018 7.361568 2.735491
409 0 1 -1.179400 36.690708 9.183852 0.585770
410 0 2 0.589700 36.014809 8.835286 1.161583
411 0 2 0.589700 36.557762 10.125473 0.607795
412 0 1 -1.179400 33.246536 10.545835 1.008676
413 0 2 0.589700 33.837524 10.515825 1.755701
414 0 2 0.589700 33.456730 9.763465 0.510169
415 0 1 -1.179400 36.615360 11.938693 0.430321
416 0 2 0.589700 35.727932 12.279790 0.533605
417 0 2 0.589700 37.181667 12.624703 0.772612
418 0 1 -1.179400 33.045162 5.893264 4.934168
419 0 2 0.589700 32.962547 5.315638 5.684766
420 0 2 0.589700 32.565395 5.451057 4.240558
421 0 1 -1.179400 42.798252 7.342333 3.988972
422 0 2 0.589700 42.612011 7.999236 4.650936
423 0 2 0.589700 42.087952 7.434409 3.358573
424 0 1 -1.179400 41.127628 7.280891 1.978862
425 0 2 0.589700 40.179253 7.363623 2.077315
426 0 2 0.589700 41.344414 7.857037 1.253950
427 0 1 -1.179400 44.114071 10.535297 3.434477
428 0 2 0.589700 44.522804 11.257922 3.900460
429 0 2 0.589700 44.483902 10.580247 2.559016
430 0 1 -1.179400 41.188511 10.667739 3.369980
431 0 2 0.589700 40.847485 9.979138 3.931355
432 0 2 0.589700 42.128120 10.494315 3.316895
433 0 1 -1.179400 39.357422 8.813257 4.962844
434 0 2 0.589700 39.317112 7.875643 4.808480
435 0 2 0.589700 38.642654 9.171390 4.441768
436 0 1 -1.179400 38.277496 7.227190 2.092199
437 0 2 0.589700 37.759048 7.400638 2.872106
438 0 2 0.589700 38.050713 7.933114 1.496403
439 0 1 -1.179400 42.665222 9.266886 0.279362
440 0 2 0.589700 42.387028 8.991735 22.536520
441 0 2 0.589700 42.623596 10.216710 0.252735
442 0 1 -1.179400 39.370808 10.853830 1.327614
443 0 2 0.589700 38.518406 10.731849 1.742427
444 0 2 0.589700 39.998020 10.829136 2.045133
445 0 1 -1.179400 42.550659 11.945460 0.753293
446 0 2 0.589700 42.623051 12.525203 0.003286
447 0 2 0.589700 43.252552 12.223533 1.336695
448 0 1 -1.179400 39.362286 6.003669 4.725609
449 0 2 0.589700 40.115189 5.746015 4.198240
450 0 2 0.589700 38.601677 5.778062 4.194494
451 0 1 -1.179400 49.369446 7.238612 4.443245
452 0 2 0.589700 48.982166 7.925215 4.976793
453 0 2 0.589700 48.736439 7.099969 3.743926
454 0 1 -1.179400 47.419048 7.209586 2.474402
455 0 2 0.589700 46.471752 7.320904 2.553003
456 0 2 0.589700 47.523975 6.469283 1.886884
457 0 1 -1.179400 50.581081 10.462654 3.636094
458 0 2 0.589700 50.957039 9.720735 4.099006
459 0 2 0.589700 51.017719 10.458344 2.790330
460 0 1 -1.179400 47.607285 10.457214 3.274662
461 0 2 0.589700 47.350227 11.037004 3.983517
462 0 2 0.589700 48.560337 10.400559 3.342197
463 0 1 -1.179400 45.776627 8.801014 4.862440
464 0 2 0.589700 45.102661 9.276484 4.383159
465 0 2 0.589700 46.603527 9.130955 4.515387
466 0 1 -1.179400 44.654530 7.504954 1.793563
467 0 2 0.589700 44.266808 8.041157 1.109469
468 0 2 0.589700 44.002956 7.506310 2.489783
469 0 1 -1.179400 48.919346 8.964023 0.648483
470 0 2 0.589700 48.103920 8.702621 1.072160
471 0 2 0.589700 49.607300 8.553001 1.166149
472 0 1 -1.179400 45.651611 10.710217 1.067063
473 0 2 0.589700 45.611435 9.886179 0.594163
474 0 2 0.589700 46.286556 10.555876 1.761346
475 0 1 -1.179400 48.806061 11.622449 0.618493
476 0 2 0.589700 49.017200 10.694786 0.614927
477 0 2 0.589700 48.191185 11.725978 1.339496
478 0 1 -1.179400 45.801979 5.865792 4.764519
479 0 2 0.589700 45.407246 5.517750 5.557435
480 0 2 0.589700 45.547314 6.782568 4.755737
481 0 1 -1.179400 -0.639826 10.436749 18.735205
482 0 2 0.589700 0.311404 10.538660 18.706627
483 0 2 0.589700 -0.845854 9.897757 17.979328
484 0 1 -1.179400 6.497723 14.324203 7.891674
485 0 2 0.589700 6.880517 13.583487 8.350970
486 0 2 0.589700 6.536924 14.080446 6.973819
487 0 1 -1.179400 14.946246 20.535234 16.180405
488 0 2 0.589700 15.317959 20.143984 15.396686
489 0 2 0.589700 14.002681 20.548969 16.021297
490 0 1 -1.179400 3.922188 9.051672 5.647072
491 0 2 0.589700 4.499382 9.800144 5.522898
492 0 2 0.589700 3.345716 9.306335 6.361841
493 0 1 -1.179400 -0.825829 14.957784 4.776051
494 0 2 0.589700 -0.809987 15.548333 5.520902
495 0 2 0.589700 -0.952533 14.095667 5.157208
496 0 1 -1.179400 50.393166 13.709368 1.997336
497 0 2 0.589700 50.005402 14.539153 1.737553
498 0 2 0.589700 50.014740 13.073702 1.398493
499 0 1 -1.179400 0.564580 13.523993 2.214556
500 0 2 0.589700 -0.381753 13.628448 2.311770
501 0 2 0.589700 0.874991 13.314498 3.088901
502 0 1 -1.179400 2.176503 24.158371 18.330118
503 0 2 0.589700 3.011251 24.623613 18.317776
504 0 2 0.589700 1.535991 24.812654 18.597200
505 0 1 -1.179400 1.740657 12.329653 4.463731
506 0 2 0.589700 1.620839 11.466667 4.082339
507 0 2 0.589700 2.425166 12.209454 5.117115
508 0 1 -1.179400 -0.794560 12.160089 5.268168
509 0 2 0.589700 -1.289571 11.641926 4.640792
510 0 2 0.589700 0.101690 12.156962 4.934516
511 0 1 -1.179400 10.294704 13.277861 6.333087
512 0 2 0.589700 10.375409 12.668559 7.058456
513 0 2 0.589700 11.174352 13.637105 6.225708
514 0 1 -1.179400 18.842363 0.533151 13.243649
515 0 2 0.589700 19.398060 0.039931 12.647052
516 0 2 0.589700 17.952234 0.248274 13.040988
517 0 1 -1.179400 9.065014 2.476181 18.286957
518 0 2 0.589700 9.765735 2.849716 18.815977
519 0 2 0.589700 8.790689 1.700192 18.764244
520 0 1 -1.179400 21.925858 14.489645 13.973284
521 0 2 0.589700 21.857635 15.258573 14.528537
522 0 2 0.589700 22.407936 13.857563 14.497891
523 0 1 -1.179400 5.359755 18.132824 15.519682
524 0 2 0.589700 5.599673 18.363066 16.410536
525 0 2 0.589700 4.829383 18.864519 15.217448
526 0 1 -1.179400 16.377104 18.624220 18.336584
527 0 2 0.589700 16.008390 18.828037 17.483482
528 0 2 0.589700 15.614454 18.493309 18.895809
529 0 1 -1.179400 19.449205 8.950413 14.718621
530 0 2 0.589700 18.613258 9.412901 14.691666
531 0 2 0.589700 19.622290 8.822968 15.644659
532 0 1 -1.179400 9.789721 24.453657 5.279505
533 0 2 0.589700 9.379400 24.257685 4.443469
534 0 2 0.589700 10.303947 23.677797 5.483176
535 0 1 -1.179400 5.571605 24.517452 13.233069
536 0 2 0.589700 6.124760 24.451859 14.005941
537 0 2 0.589700 6.068553 24.074701 12.551844
538 0 1 -1.179400 11.166162 1.423799 16.726635
539 0 2 0.589700 11.573059 0.659875 17.123262
540 0 2 0.589700 10.397548 1.596906 17.266003
541 0 1 -1.179400 17.766747 8.263327 18.445127
542 0 2 0.589700 17.307358 8.291404 17.611795
543 0 2 0.589700 18.689787 8.168684 18.212029
544 0 1 -1.179400 13.871296 15.871018 22.798107
545 0 2 0.589700 14.738944 15.646623 22.465256
546 0 2 0.589700 13.988948 15.932799 0.615309
547 0 1 -1.179400 18.224661 24.610146 10.401351
548 0 2 0.589700 18.353191 0.466943 10.018001
549 0 2 0.589700 19.081848 24.191799 10.337347
550 0 1 -1.179400 16.244049 16.091118 8.832045
551 0 2 0.589700 16.914558 16.027149 9.507291
552 0 2 0.589700 15.797557 16.913006 9.011529
553 0 1 -1.179400 12.770337 7.246664 8.493901
554 0 2 0.589700 13.197475 7.817697 7.863182
555 0 2 0.589700 12.209599 6.682770 7.968761
556 0 1 -1.179400 6.872063 16.322254 4.179808
557 0 2 0.589700 7.103446 16.159494 3.272027
558 0 2 0.589700 7.670163 16.677389 4.566272
559 0 1 -1.179400 20.779266 8.541728 2.324279
560 0 2 0.589700 19.881496 8.868439 2.369598
561 0 2 0.589700 21.270788 9.098234 2.920809
562 0 1 -1.179400 14.712044 11.824693 21.186487
563 0 2 0.589700 14.936430 11.070451 20.652081
564 0 2 0.589700 15.546540 12.267150 21.332155
565 0 1 -1.179400 13.334169 13.095325 9.219398
566 0 2 0.589700 14.075873 13.404847 9.734416
567 0 2 0.589700 13.230187 12.184766 9.473763
568 0 1 -1.179400 2.871041 21.838158 5.882560
569 0 2 0.589700 2.446907 21.782681 5.032342
570 0 2 0.589700 3.807868 21.806368 5.690234
571 0 1 -1.179400 23.726366 15.760104 6.429048
572 0 2 0.589700 24.059160 16.636894 6.266455
573 0 2 0.589700 23.274197 15.825971 7.264146
574 0 1 -1.179400 22.180050 22.453173 20.141565
575 0 2 0.589700 23.111931 22.660473 20.206362
576 0 2 0.589700 21.861086 22.494617 21.036709
577 0 1 -1.179400 24.915110 16.905901 3.179796
578 0 2 0.589700 25.110023 16.271427 3.860871
579 0 2 0.589700 23.965221 17.016542 3.218217
580 0 1 -1.179400 13.553258 17.530130 10.988718
581 0 2 0.589700 12.954196 18.271379 11.016987
582 0 2 0.589700 13.021990 16.812992 10.654849
583 0 1 -1.179400 3.819963 12.292450 2.221410
584 0 2 0.589700 3.109549 11.670816 2.080582
585 0 2 0.589700 3.526665 12.821710 2.955421
586 0 1 -1.179400 8.927767 8.254188 10.560733
587 0 2 0.589700 8.013384 8.403171 10.322407
588 0 2 0.589700 9.419668 8.441519 9.767198
589 0 1 -1.179400 23.708199 15.775074 0.188951
590 0 2 0.589700 23.598070 15.237869 22.536303
591 0 2 0.589700 24.079454 15.184642 0.836482
592 0 1 -1.179400 21.177752 22.022736 22.862198
593 0 2 0.589700 20.919827 22.923788 -0.097573
594 0 2 0.589700 22.068846 21.960567 0.079612
595 0 1 -1.179400 8.691958 19.265146 22.908329
596 0 2 0.589700 8.905150 18.342922 22.812401
597 0 2 0.589700 7.913162 19.275768 0.336783
598 0 1 -1.179400 5.682257 24.898342 6.067534
599 0 2 0.589700 6.134576 0.652987 5.711526
600 0 2 0.589700 5.076494 0.253694 6.709801
601 0 1 -1.179400 30.029409 13.410950 3.852210
602 0 2 0.589700 29.989292 14.211517 4.363792
603 0 2 0.589700 29.978052 12.713140 4.495991
604 0 1 -1.179400 28.339586 13.492198 1.763563
605 0 2 0.589700 28.613935 14.237078 1.239124
606 0 2 0.589700 28.959969 13.472224 2.487056
607 0 1 -1.179400 31.490128 16.540398 3.300473
608 0 2 0.589700 31.972235 15.893082 3.806162
609 0 2 0.589700 31.923145 16.546099 2.452885
610 0 1 -1.179400 28.524466 16.400557 3.669076
611 0 2 0.589700 29.447800 16.570515 3.484962
612 0 2 0.589700 28.142126 17.262136 3.802891
613 0 1 -1.179400 26.514530 14.782022 4.611966
614 0 2 0.589700 26.657207 13.842034 4.642149
615 0 2 0.589700 27.343332 15.137339 4.295778
616 0 1 -1.179400 24.572340 13.962692 2.377228
617 0 2 0.589700 23.984648 13.935867 3.126935
618 0 2 0.589700 25.439695 14.111170 2.750806
619 0 1 -1.179400 29.842342 15.518274 0.448349
620 0 2 0.589700 29.998354 16.451178 0.347194
621 0 2 0.589700 30.692944 15.162024 0.699781
622 0 1 -1.179400 26.944889 16.564306 1.126599
623 0 2 0.589700 26.190306 16.886393 1.614781
624 0 2 0.589700 27.613045 16.402365 1.787626
625 0 1 -1.179400 30.093109 18.221996 0.464770
626 0 2 0.589700 30.893059 18.630955 0.789382
627 0 2 0.589700 29.408102 18.517982 1.059065
628 0 1 -1.179400 26.941582 12.177549 4.805564
629 0 2 0.589700 27.035730 11.738421 5.643423
630 0 2 0.589700 27.519175 11.696600 4.219560
631 0 1 -1.179400 36.450352 13.316791 3.853107
632 0 2 0.589700 36.280552 13.998482 4.494069
633 0 2 0.589700 35.779915 13.446204 3.187214
634 0 1 -1.179400 34.684402 13.637562 1.791531
635 0 2 0.589700 34.886044 14.349883 1.194427
636 0 2 0.589700 33.771648 13.781805 2.038751
637 0 1 -1.179400 37.676125 16.872221 3.303032
638 0 2 0.589700 37.989811 16.137781 3.820386
639 0 2 0.589700 38.209396 17.608107 3.589671
640 0 1 -1.179400 34.886688 16.979065 3.446016
641 0 2 0.589700 35.840424 17.013180 3.373088
642 0 2 0.589700 34.701836 16.099295 3.757005
643 0 1 -1.179400 33.354088 14.773386 4.517760
644 0 2 0.589700 33.443970 13.867472 4.793115
645 0 2 0.589700 33.499817 15.279040 5.309619
646 0 1 -1.179400 31.855047 13.505927 1.615846
647 0 2 0.589700 31.319727 12.824038 1.220305