LAMMPS data file via write_data, version 29 Sep 2021, timestep = 400000

1920 atoms
2 atom types

0.022445871999913436 24.70195912800066 xlo xhi
-0.10999704889880668 24.8344020488993 ylo yhi
-0.11851586588354657 22.910887865883847 zlo zhi

Masses

1 1.008
2 15.999

Atoms # full

4 0 1 0 2.8911092809761056 0.9167035799026635 1.9452291627900578 0 0 0
5 0 2 0 3.3725781032969935 1.0817302103338995 2.7748860679998435 0 0 0
6 0 2 0 3.1396229286617356 1.6905610381543428 1.4148680992497078 0 0 0
17 0 2 0 0.9177603698108064 1.123772684361668 2.2849908167848105 0 0 0
11 0 2 0 2.7684002954810225 3.6724464412208007 3.945058589454691 0 0 0
99 0 2 0 0.2695244205809282 3.7441713450644287 3.627645737555803 1 0 0
2 0 2 0 5.346755463305465 1.2818671412044191 3.4706179697371407 0 0 0
19 0 1 0 4.5659631808246965 2.9249587261952823 0.9254526769170714 0 0 0
46 0 1 0 6.296384878383011 1.245791571326947 2.150765308912959 0 0 0
47 0 2 0 7.217241883970167 1.3457799720433716 2.2683271385180883 0 0 0
48 0 2 0 5.963812889885389 1.9883177510325938 1.6383987205137336 0 0 0
1 0 1 0 4.559959164457365 1.3961818269296495 4.106906191734481 0 0 0
21 0 2 0 4.570458103986257 3.9188842261723016 0.8200903540597412 0 0 0
20 0 2 0 4.680608125420977 2.6184292275445014 -0.003597858768142115 0 0 0
54 0 2 0 7.866863413947162 3.7837044613665083 0.8961016826591099 0 0 0
32 0 2 0 11.793769229315544 1.470716006551741 3.5762650802207094 0 0 0
34 0 1 0 9.065975087685535 1.1458152199782012 2.0807321589038095 0 0 0
35 0 2 0 9.511789808599618 1.4120943760204558 2.9183933496512013 0 0 0
36 0 2 0 9.21377617501252 1.9089589584388111 1.4664099673299493 0 0 0
49 0 1 0 10.981159866113444 3.323155009446128 0.40004922953414035 0 0 0
51 0 2 0 11.66042522596458 3.070839711234035 1.0734388612800774 0 0 0
31 0 1 0 11.026638259772106 1.3846085038709726 4.199612911476455 0 0 0
416 0 2 0 10.425173619521535 0.2563735626511437 1.3584776789068471 0 1 0
42 0 2 0 8.939872532518399 3.830029828129107 4.272384689955747 0 0 0
417 0 2 0 11.009109603908179 0.023248180850474087 -0.015191284731218876 0 1 0
78 0 2 0 12.556785557121355 0.8402070555068271 1.6136407267349147 0 0 0
76 0 1 0 12.929626416981035 1.6085834239937618 2.0569785319692597 0 0 0
38 0 2 0 12.496543822687432 3.8987187913809116 4.04609876583204 0 0 0
64 0 1 0 15.490488860745655 1.256151175753297 1.910810037353448 0 0 0
65 0 2 0 15.991039836113771 1.3610008230728048 2.788574388564296 0 0 0
66 0 2 0 16.07511392643057 0.5798426585731655 1.511218848444116 0 0 0
77 0 2 0 13.905489679734362 1.5842419289714091 2.0131421209818 0 0 0
80 0 2 0 16.077968148225793 2.603002294485402 0.582925118595937 0 0 0
1514 0 2 0 13.674012321305897 3.3497384410330238 -0.055101029433686236 0 0 1
90 0 2 0 14.892958924172769 -0.0885158230082124 4.365945679153865 0 0 0
62 0 2 0 17.873623489151626 1.3918235789977738 3.4896942914793434 0 0 0
79 0 1 0 16.817413240308035 3.055859071192201 0.22063398530913775 0 0 0
106 0 1 0 18.708345365076198 1.329412562313469 1.7872296135086858 0 0 0
107 0 2 0 19.64740367354706 1.3753579982233801 1.721808767224324 0 0 0
108 0 2 0 18.348749446516113 2.1776084573070826 1.4374742337299768 0 0 0
61 0 1 0 17.120521187013395 1.4729942394533981 4.1272602205759075 0 0 0
446 0 2 0 17.782377891974424 -0.036936007037532886 0.9097386613315495 0 1 0
68 0 2 0 18.544828721736362 4.042466444505441 3.9247884695881075 0 0 0
105 0 2 0 20.71147655730524 3.0869449472213377 4.314881743629521 0 0 0
16 0 1 0 24.675912025257908 1.3338479085136064 2.13565697907906 -1 0 0
18 0 2 0 24.406847038659176 0.5692072193094239 1.5691014550303555 -1 0 0
92 0 2 0 23.777089997403156 1.430338229986283 3.5659368810349665 0 0 0
94 0 1 0 21.499573709622393 1.0952774204258398 1.983239975334738 0 0 0
95 0 2 0 22.01706826792335 1.1257621410678382 2.838897613628845 0 0 0
96 0 2 0 21.98715132307555 1.7635751562279491 1.4579671870153506 0 0 0
109 0 1 0 23.177034793252833 3.1818381032977006 0.6137475083733496 0 0 0
110 0 2 0 23.993110104354294 3.0761980876634345 1.0308687717809348 0 0 0
91 0 1 0 23.021020706303773 1.383063437297723 4.166666291861959 0 0 0
22 0 1 0 1.4810975829840949 4.51583322822533 1.2976847353767171 0 0 0
24 0 2 0 2.2001251886743325 4.674896662520868 1.950459638376043 0 0 0
10 0 1 0 3.1304979305697445 4.324743529864493 3.280073789358586 0 0 0
23 0 2 0 1.6380128086714065 5.268646703234054 0.7186881532105375 0 0 0
124 0 1 0 2.8936108633903377 7.787473476837052 1.9308379696324507 0 0 0
27 0 2 0 3.88654443873488 6.327872826555898 1.1275225547454302 0 0 0
126 0 2 0 1.9433008629862216 7.781436637961034 1.940350118311955 0 0 0
122 0 2 0 3.8711789897596365 7.7933312315068735 3.6191570007101364 0 0 0
98 0 2 0 0.07904233980743355 4.682204361482038 2.4746767735950463 1 0 0
150 0 2 0 0.7314809462756944 5.72617371804096 4.370935478359072 0 0 0
136 0 1 0 0.23584557974567308 7.701550429346725 2.0831264058950874 0 0 0
149 0 2 0 2.2384476114769822 5.793483415432117 4.179953630680344 0 0 0
12 0 2 0 3.992358133489155 4.5600894839931145 3.6281400410484057 0 0 0
25 0 1 0 4.472459381332662 5.707800564324963 0.7059757945242912 0 0 0
8 0 2 0 6.261721738658572 4.698686540367524 2.8856468711747683 0 0 0
52 0 1 0 7.782155856597535 4.577208398351526 1.4800546349680588 0 0 0
7 0 1 0 5.847119100929909 4.765661233681285 3.7405774459870558 0 0 0
168 0 2 0 5.816216300088389 6.620485903031033 1.72177391630198 0 0 0
9 0 2 0 6.253292620415523 5.560654900632117 4.173117952735991 0 0 0
166 0 1 0 6.208056834273284 7.386724924388514 2.1524187333646525 0 0 0
167 0 2 0 5.7089747514629625 7.439138207474752 2.9599278686159463 0 0 0
121 0 1 0 4.566610528822227 7.717117705756008 4.304808624494358 0 0 0
156 0 2 0 7.919514034363603 7.588953200767059 2.188874389618786 0 0 0
1619 0 2 0 7.964579350015132 6.157402393575653 0.19735752552466734 0 0 1
50 0 2 0 10.671562143695942 4.217007638142321 0.62473283344432 0 0 0
53 0 2 0 8.453340337498176 4.566994320005229 2.1692733349322655 0 0 0
41 0 2 0 10.182140452659494 4.412490057946177 3.6083798214756264 0 0 0
40 0 1 0 9.251614586910827 4.574840963815387 3.7649923385518935 0 0 0
55 0 1 0 10.634096861373619 5.973570242642502 0.5882226459779374 0 0 0
56 0 2 0 9.874153696751518 6.384551692332827 1.065771811157062 0 0 0
57 0 2 0 11.420552381331934 6.204941218559007 1.1125329101819899 0 0 0
153 0 2 0 11.727402658535244 7.665173570915294 3.472890829557984 0 0 0
154 0 1 0 8.893845148834474 7.596748102774086 2.1577692146156577 0 0 0
152 0 2 0 10.159151564697588 7.680524967219224 3.6052896193429635 0 0 0
151 0 1 0 10.98694171764293 7.633352534917906 4.11412784567465 0 0 0
37 0 1 0 12.097929220185042 4.696349772598673 3.6138117514352754 0 0 0
180 0 2 0 8.40232376467979 6.189685465167991 4.133227428942537 0 0 0
39 0 2 0 12.522638515123365 5.516162427363215 3.919447213844446 0 0 0
196 0 1 0 12.544541606700289 7.582433294961178 1.8279900124442212 0 0 0
70 0 1 0 15.495592069693647 4.733267124520699 3.6426642493686323 0 0 0
72 0 2 0 15.005341274361152 4.6306853184909365 2.8212363008229255 0 0 0
83 0 2 0 13.01588220261515 4.786450350808562 2.1456572252587507 0 0 0
82 0 1 0 13.75462557567062 4.528682833084409 1.46596334073633 0 0 0
84 0 2 0 13.784979965789367 5.288778363656678 0.8480461038470984 0 0 0
198 0 2 0 13.51806818399377 7.543688608915719 1.9394985666991689 0 0 0
184 0 1 0 15.228854927768182 7.827995298228261 2.249229130134569 0 0 0
71 0 2 0 14.962541509445957 5.367787003871724 4.262796673008626 0 0 0
186 0 2 0 15.667396993602347 7.521311783467991 3.0755784383677267 0 0 0
86 0 2 0 16.319327669984048 6.159953997137326 0.9452554389209535 0 0 0
69 0 2 0 17.23499772734385 4.846340953469544 3.7282416792081734 0 0 0
87 0 2 0 16.93268073068979 4.79485746519817 0.6406587750712253 0 0 0
112 0 1 0 19.68043922000124 4.5762906290931475 0.8856917109390559 0 0 0
113 0 2 0 19.04836931491039 4.625707817683769 1.5901700519103892 0 0 0
67 0 1 0 18.130482202328814 4.738683151700104 3.345935004904344 0 0 0
85 0 1 0 17.09812139583509 5.780537019117179 0.5104821891186636 0 0 0
228 0 2 0 18.235757071021347 6.806110629148855 1.5066712104861777 0 0 0
226 0 1 0 18.882260439193047 7.4568217228856755 1.728837063523998 0 0 0
183 0 2 0 17.86186985025373 7.5904998945054984 3.4345479806295462 0 0 0
181 0 1 0 17.21550672311614 7.579663105168997 4.146828489407739 0 0 0
240 0 2 0 19.232355576104975 6.082100814466297 4.2184846625585655 0 0 0
114 0 2 0 20.50233214405197 4.667623308275402 1.4203770574492647 0 0 0
138 0 2 0 24.41183361074662 7.053435952351581 1.628738053776098 -1 0 0
102 0 2 0 22.532928560223983 4.408378902317072 3.2937339273626223 0 0 0
216 0 2 0 20.630339665046463 7.460464997328268 1.7311436464448577 0 0 0
111 0 2 0 23.05210476744776 4.107109741377593 0.36493280934021094 0 0 0
137 0 2 0 24.697416668427305 7.656853691540272 3.0215392025143726 -1 0 0
100 0 1 0 21.57477682295523 4.182973529599965 3.324817597704789 0 0 0
97 0 1 0 24.45983869431116 4.514669599681719 3.385274502321151 0 0 0
101 0 2 0 21.124708359260453 4.951331674744499 3.730751959494463 0 0 0
115 0 1 0 23.252909147813718 5.997044085691407 0.5592121834407928 0 0 0
116 0 2 0 22.472102866915154 6.443304505145079 0.9232717736644871 0 0 0
214 0 1 0 21.58946886754842 7.593928860195258 1.7998640755433484 0 0 0
213 0 2 0 22.44250190164823 7.37576926974224 3.357889948199923 0 0 0
211 0 1 0 23.0701347615907 7.416584769920197 4.066802164833193 0 0 0
125 0 2 0 3.2667222633201556 8.528373367179004 1.485765958674928 0 0 0
130 0 1 0 3.05379333514715 10.873236363532838 3.7176730859991896 0 0 0
132 0 2 0 2.5150791064060303 11.552309205641679 4.11867119779511 0 0 0
142 0 1 0 1.1948124628371157 11.041924294239568 1.5216122941653087 0 0 0
143 0 2 0 2.0282766823204392 10.86340938396118 2.054834552217537 0 0 0
144 0 2 0 1.1981524983017702 10.317217994826144 0.8851251834973151 0 0 0
1709 0 2 0 1.499013802721838 12.25662209729271 -0.04704356933653976 0 0 1
135 0 2 0 2.2112662568484485 9.283761101856733 4.3393109095261275 0 0 0
219 0 2 0 0.1279533552877564 10.54805913992177 2.9951388987160974 1 0 0
218 0 2 0 0.22557580149838918 9.901689564192253 4.424468046216456 1 0 0
131 0 2 0 3.9789899835458837 11.01678160902639 3.9210495813130377 0 0 0
139 0 1 0 4.813687801941482 9.20617462760845 0.5554627849794308 0 0 0
127 0 1 0 5.704319057012315 11.308141285299318 3.953059964977485 0 0 0
129 0 2 0 5.9198853496597525 11.255452482833233 3.059987810830442 0 0 0
140 0 2 0 5.434560569979629 8.833355968710014 1.1545284262936741 0 0 0
141 0 2 0 4.811513436893361 10.158511994772141 0.603136281409687 0 0 0
172 0 1 0 7.223960679629948 10.694469913313782 1.4869830495315983 0 0 0
128 0 2 0 6.1078291681527395 10.577897431459851 4.372216656052524 0 0 0
173 0 2 0 7.210188192921207 10.09754279629913 0.7094695280428015 0 0 0
145 0 1 0 4.4784813957900065 11.898017074262638 0.7760833536971365 0 0 0
1740 0 2 0 8.145406733041685 12.105322849554279 0.055770850803409266 0 0 1
174 0 2 0 8.102705760673738 10.558350837813247 1.8787435574658218 0 0 0
147 0 2 0 5.382335326929499 12.163834393618167 0.9560866340389824 0 0 0
155 0 2 0 9.170478448770767 8.269511073637391 1.5521422723282146 0 0 0
197 0 2 0 12.248221566043304 8.322594904924912 1.2917662962366334 0 0 0
160 0 1 0 9.139202020526218 10.720739478893345 3.431965868674654 0 0 0
161 0 2 0 10.093738654275764 10.682539258664491 3.53787051466512 0 0 0
162 0 2 0 8.891236836379852 11.434021163317286 4.034239264041656 0 0 0
169 0 1 0 10.395999701980337 9.33279472399077 0.6925306907824468 0 0 0
171 0 2 0 10.593495617461791 10.297164511914433 0.6351050499127188 0 0 0
157 0 1 0 12.0814883953634 11.135699627971404 3.391545330633023 0 0 0
175 0 1 0 10.694405266784763 12.074282751387054 0.563981333368493 0 0 0
159 0 2 0 12.40343844026734 10.970008373691515 2.5147981772679895 0 0 0
185 0 2 0 15.961789695025217 8.367485824374036 1.8052534663312423 0 0 0
158 0 2 0 12.375305978141043 10.39309490589061 3.894715475767068 0 0 0
190 0 1 0 15.29747546609337 11.121845009029567 3.4372429385303556 0 0 0
192 0 2 0 14.92578949611312 10.937533420952773 2.5036845888537456 0 0 0
202 0 1 0 13.862507754631432 10.800845255347053 1.250921178422364 0 0 0
203 0 2 0 13.827520715531444 11.376289414805308 0.4284048852096751 0 0 0
204 0 2 0 13.888573348755646 9.887938344849092 0.9211787261417494 0 0 0
191 0 2 0 16.22604453610145 10.976537758550608 3.4101616284412564 0 0 0
194 0 2 0 14.4912256473601 9.295577031049417 4.230437596617422 0 0 0
205 0 1 0 16.989767189250912 12.182231745985574 0.6139822161317863 0 0 0
227 0 2 0 18.559570249037968 8.246785048105028 1.2934260272124742 0 0 0
187 0 1 0 18.143937097467955 10.637577802439681 3.372448000178296 0 0 0
189 0 2 0 18.309592636000154 10.814168143740496 2.4382762129672138 0 0 0
199 0 1 0 16.91340801506545 9.382487905508361 0.761669482394883 0 0 0
232 0 1 0 19.966871377103722 10.643776065066543 1.3579316364774043 0 0 0
200 0 2 0 16.573885986475737 10.279934933625558 0.6381525713035698 0 0 0
188 0 2 0 18.645410053182008 9.786035278210152 3.452051707181449 0 0 0
234 0 2 0 20.005690271355228 9.973185347393585 0.672680228990702 0 0 0
1800 0 2 0 20.060672786533576 12.125241145763532 0.12422286307685845 0 0 1
359 0 2 0 19.159936100353722 11.987514535821946 4.3788313505789125 0 0 0
225 0 2 0 20.581686910228115 9.308613739046567 4.140520159880126 0 0 0
201 0 2 0 16.935536519817553 8.953592796054343 -0.10302706678164952 0 0 0
217 0 1 0 24.410915596529264 10.528381344876662 3.875060622363355 0 0 0
215 0 2 0 21.883265905542164 8.432631794990947 1.4826380877101482 0 0 0
233 0 2 0 20.69621702825178 10.476167946291232 1.9955606170648816 0 0 0
220 0 1 0 21.626646823302185 10.641855787186788 3.496148411481531 0 0 0
221 0 2 0 22.565833679607874 10.704875981587579 3.6519705004539764 0 0 0
222 0 2 0 21.168842245140752 11.415884497602526 3.9511705952278486 0 0 0
229 0 1 0 23.080303654951518 9.426329834062061 0.871745344848366 0 0 0
230 0 2 0 23.76443573288952 9.40611399431202 1.5443135184810046 0 0 0
231 0 2 0 22.949621230802265 10.367879640013372 0.8205135738896008 0 0 0
235 0 1 0 23.287718992644244 12.122952010351439 0.5745024710384812 0 0 0
244 0 1 0 2.973231733808051 13.967059626645037 2.090940102347289 0 0 0
245 0 2 0 2.012588638500506 13.830606605719183 2.209469487680587 0 0 0
246 0 2 0 3.389507656284409 13.122817066790935 1.7673303159915 0 0 0
256 0 1 0 0.3341467742949415 13.906320377496645 1.885149868467269 0 0 0
251 0 2 0 2.6660940603490695 16.247413074653515 4.004522485550718 0 0 0
255 0 2 0 0.5653572956219312 15.820778165785393 4.460009729067169 0 0 0
260 0 2 0 3.8306286206413427 15.240478115778558 1.3027385020494693 0 0 0
242 0 2 0 3.7347472849966317 14.012322069567512 4.011003211318323 0 0 0
1694 0 2 0 1.7649154117286179 15.73152124969125 -0.037223148085702845 0 0 1
259 0 1 0 4.536400274946031 15.715951687654844 0.840448583815157 0 0 0
286 0 1 0 6.248014864138744 13.719414749359814 2.188023432086904 0 0 0
287 0 2 0 5.666035538793499 13.750442494842861 2.950866417462067 0 0 0
288 0 2 0 5.977614643051476 14.493126262228042 1.7022247943144186 0 0 0
248 0 2 0 6.311034435602303 16.207438353211217 3.836739649797866 0 0 0
276 0 2 0 7.962196569499044 13.840996259998242 1.764040478708026 0 0 0
241 0 1 0 4.600958626021511 14.083859342159737 4.413634373880486 0 0 0
261 0 2 0 4.45417245105603 15.208853051854595 -0.055631063239834994 0 0 0
1725 0 2 0 7.5590196189772065 15.728678774595105 -0.11009222351890458 0 0 1
176 0 2 0 10.072154636472952 12.56672682139835 1.1453562147441594 0 0 0
272 0 2 0 11.420114374013687 14.44093355599393 3.8196511835739737 0 0 0
274 0 1 0 8.937962211459736 13.877768340126245 1.8123138920395885 0 0 0
275 0 2 0 9.204872319991535 13.82099320900306 2.72425033800207 0 0 0
289 0 1 0 10.643372724518406 15.671955741798214 0.5172574215775112 0 0 0
291 0 2 0 9.840949256239908 15.268700488077867 0.8832698203169804 0 0 0
271 0 1 0 10.663663350560313 14.142315218845196 4.3493470290395075 0 0 0
317 0 2 0 11.95008739409086 14.74722175027355 1.2000450388999464 0 0 0
318 0 2 0 12.126504245427306 13.308655354608652 1.6128161827356562 0 0 0
316 0 1 0 12.594532580208108 14.120385961890225 1.6597164085030176 0 0 0
304 0 1 0 15.279133290587016 13.979632111422276 2.36611164930504 0 0 0
305 0 2 0 14.35035717797754 14.132368416970946 2.111184400687128 0 0 0
306 0 2 0 15.565293653125854 13.10660400141012 1.8753552286357185 0 0 0
311 0 2 0 15.09546255972857 16.247565519772984 4.003479686085941 0 0 0
1754 0 2 0 13.656910053343113 15.720287012115572 -0.044265234291395936 0 0 1
320 0 2 0 16.21535455695278 15.333008099937752 1.0216310735188796 0 0 0
302 0 2 0 16.262687154610155 13.923634852971105 3.7592814729443544 0 0 0
207 0 2 0 17.557444257663192 12.621214837195357 1.27092911025069 0 0 0
319 0 1 0 17.000021036788368 15.542492790711787 0.4863131622125816 0 0 0
346 0 1 0 18.692663136196025 14.04004399346228 2.050734350101644 0 0 0
347 0 2 0 18.06730130453059 14.646149415754973 1.680183477018041 0 0 0
348 0 2 0 18.354391822650186 13.855006114020952 2.9258163700800375 0 0 0
309 0 2 0 18.675046624305505 16.360076382228605 4.076217377379696 0 0 0
301 0 1 0 16.87571122327686 14.243417503272054 4.476920949858914 0 0 0
1784 0 2 0 20.221590749529756 15.614808303720025 0.07642738169497318 0 0 1
335 0 2 0 20.53789381609047 13.981000733714207 1.9532788428328183 0 0 0
321 0 2 0 17.024395126975964 16.499505526249173 0.4518322482418965 0 0 0
257 0 2 0 24.551702233697288 14.022120971824513 2.746759000254392 -1 0 0
258 0 2 0 24.64744887564442 13.00430244423608 1.661319505979683 -1 0 0
237 0 2 0 22.524771545111193 12.429293137203855 1.0652093473711728 0 0 0
332 0 2 0 22.56438704243746 13.559452537217748 3.60457386102751 0 0 0
334 0 1 0 21.43377012675144 13.606711363701644 1.9782307355340518 0 0 0
336 0 2 0 21.962511398334563 14.294732498086134 1.5447274646919018 0 0 0
349 0 1 0 23.24430229652902 15.33595413020847 0.5531724225185952 0 0 0
350 0 2 0 23.96523125374447 14.91749282974053 0.9948405283599142 0 0 0
331 0 1 0 23.335645478747978 13.565003368863959 4.138726459544145 0 0 0
351 0 2 0 23.288701843406308 16.31772468552944 0.6572105809734157 0 0 0
345 0 2 0 20.678094449841662 15.597072362523749 4.483532577991478 0 0 0
263 0 2 0 2.4185331724565438 17.121988812735673 1.8176142303254725 0 0 0
264 0 2 0 0.9946671247083891 16.662619275125223 1.7371670736709626 0 0 0
250 0 1 0 3.1547909388597226 16.882343528670333 3.4405380195665534 0 0 0
262 0 1 0 1.731775765233255 16.888127675842334 1.164519987824534 0 0 0
364 0 1 0 2.6998028281891777 20.199986240505403 1.9417862718048542 0 0 0
366 0 2 0 1.7448779266525922 20.355167216586885 2.0930079668510753 0 0 0
376 0 1 0 0.16677060409742672 20.176275241150933 2.361059135918949 0 0 0
390 0 2 0 2.317594621012966 18.238681973220054 4.464506431664495 0 0 0
363 0 2 0 3.648762689617777 20.421299981668128 3.259554129405498 0 0 0
267 0 2 0 3.6879220018609824 18.89260510693442 0.8513955311742535 0 0 0
1829 0 2 0 1.3738402601979802 18.478523376108335 -0.06247705934266294 0 0 1
252 0 2 0 4.1096752800523 16.691850666197325 3.516331256961483 0 0 0
338 0 2 0 0.15614844027690647 17.80802581863857 3.9889898081780153 1 0 0
249 0 2 0 6.177669331142891 16.915492780422824 2.55627186503133 0 0 0
247 0 1 0 5.859951347781756 16.960194195399545 3.4968426674142066 0 0 0
292 0 1 0 7.795292408159945 16.751014529945415 1.3040964589494004 0 0 0
266 0 2 0 4.579949307653274 17.6585060487173 0.5250301890388359 0 0 0
265 0 1 0 4.5542029031662 18.661159905070818 0.5255057123074466 0 0 0
408 0 2 0 5.661086626455483 19.483914229750937 1.5579907127610675 0 0 0
406 0 1 0 6.173298258459366 20.219693239708192 1.9628325710173633 0 0 0
407 0 2 0 5.855066336013399 20.356539090199078 2.8552222740094866 0 0 0
361 0 1 0 4.272733111491972 20.391897321382203 4.039698793020608 0 0 0
294 0 2 0 7.64207371349974 17.583841894077025 0.8016660530181643 0 0 0
419 0 2 0 6.6171135688556495 18.1333987982361 4.269025002744186 0 0 0
395 0 2 0 8.008733135089608 20.10295072005747 1.804720766858137 0 0 0
281 0 2 0 8.915174277206557 16.574542242967567 4.034921755216641 0 0 0
290 0 2 0 10.527502250469338 16.662501536717457 0.5430735990774791 0 0 0
293 0 2 0 8.37190439606481 16.88054756752544 2.044139780212661 0 0 0
280 0 1 0 9.490785465844095 17.19793078815109 3.5358175215968832 0 0 0
278 0 2 0 11.311681480135299 17.047276827649583 3.7433593705178314 0 0 0
295 0 1 0 11.046964640714691 18.499812282640157 0.5483408037263354 0 0 0
296 0 2 0 10.21665121086451 18.853663360336057 1.0203577063665215 0 0 0
394 0 1 0 9.01288655770343 19.97168777562692 1.839343802539666 0 0 0
396 0 2 0 9.218989554294847 20.224488692155383 2.7385090881134313 0 0 0
282 0 2 0 9.123127620969813 18.050659878838594 3.78525557886979 0 0 0
393 0 2 0 11.70248732202171 19.92333540238277 3.5124302112263694 0 0 0
391 0 1 0 10.935357053847007 19.74533702334363 4.143295302058206 0 0 0
437 0 2 0 12.268568980258733 19.37255754978053 1.588767608572763 0 0 0
277 0 1 0 12.263418346788024 16.927152213200557 3.666287341926406 0 0 0
279 0 2 0 12.6513899244875 17.75889912807753 4.107963933081492 0 0 0
436 0 1 0 12.717968725134915 20.03427388120258 2.1843308960943446 0 0 0
323 0 2 0 12.97224600505046 17.07399800520762 1.9827411077622377 0 0 0
324 0 2 0 14.453180370712017 16.853468074968305 1.76184308201169 0 0 0
322 0 1 0 13.641979668880806 17.1640996192965 1.2584052651128315 0 0 0
310 0 1 0 15.529301024311117 16.905210129005013 3.41933386133504 0 0 0
312 0 2 0 15.12277736401396 17.70898947860475 3.771058507081576 0 0 0
424 0 1 0 15.586340266573846 19.822757316691813 2.157225738186462 0 0 0
425 0 2 0 14.607145666747632 19.776682372773898 2.0899271358545524 0 0 0
423 0 2 0 16.382297624438305 20.102156614802787 3.8131885766819593 0 0 0
426 0 2 0 15.790057674224194 20.62533328472483 1.6990694038871577 0 0 0
326 0 2 0 16.488904572115366 18.65360130477454 1.3001581338021484 0 0 0
352 0 1 0 20.072088245064844 17.055395808752387 1.417868528731753 0 0 0
353 0 2 0 19.19135902726029 17.080938654310643 1.9221944193417948 0 0 0
325 0 1 0 17.189851318299084 18.4419126865793 0.6496680588932956 0 0 0
307 0 1 0 18.261568720821955 17.17665187581251 3.6764701465900758 0 0 0
308 0 2 0 17.367584879993295 16.914492770304193 3.3948075311813843 0 0 0
466 0 1 0 18.971907105351768 20.056352675383557 2.255672835869772 0 0 0
468 0 2 0 18.74285221404992 19.44313552613341 1.586593817359767 0 0 0
354 0 2 0 19.92185615678631 17.804048376298844 0.784664245307917 0 0 0
467 0 2 0 18.214265483672108 20.00108514881719 2.904898030346313 0 0 0
421 0 1 0 17.14142937727972 20.140569145705683 4.4011967139250014 0 0 0
455 0 2 0 20.807678470539386 19.79482614225676 2.2740029818926413 0 0 0
378 0 2 0 24.457457085614895 20.219748800464217 3.242457798060186 -1 0 0
337 0 1 0 24.499436346225586 17.137415884566288 3.3170907333908035 0 0 0
340 0 1 0 21.839825221317305 17.12641084237046 3.7572138372624835 0 0 0
342 0 2 0 21.383500311522223 17.01444861717139 2.8797810482391415 0 0 0
339 0 2 0 23.556632509192053 17.151268608419898 3.506892659625613 0 0 0
355 0 1 0 23.287935333126626 18.05615956615958 0.8203127790046211 0 0 0
356 0 2 0 23.937718480876757 18.61175199932469 1.3556235337342888 0 0 0
453 0 2 0 22.433239457641076 20.15501583238985 4.202574122842057 0 0 0
454 0 1 0 21.755140807789747 20.007219924435297 2.254898966677986 0 0 0
456 0 2 0 22.101665228341815 19.10951331085853 2.050329268140085 0 0 0
341 0 2 0 21.211585630101606 17.654422424407414 4.264194205511653 0 0 0
357 0 2 0 23.03545820918195 18.63186903727852 0.08598542614235805 0 0 0
387 0 2 0 3.9510969091837365 24.782764308800346 1.0787591123731073 0 0 0
365 0 2 0 3.083900139473603 20.76486767135281 1.2747804531307991 0 0 0
370 0 1 0 3.495649967046301 23.320774835775914 3.532810731151835 0 0 0
371 0 2 0 2.9382083122510814 23.252925618135343 2.7933895715414665 0 0 0
382 0 1 0 1.3221421525047004 23.238656021156928 1.3726886697850493 0 0 0
383 0 2 0 1.1294309157056912 22.517113574719026 0.7148483459292426 0 0 0
384 0 2 0 1.3484274815597825 23.970564418456426 0.7379870922345138 0 0 0
372 0 2 0 2.939962253125319 23.90810293370744 4.0911088427070705 0 0 0
29 0 2 0 1.02576317564151 24.592670270419916 4.441004347271536 0 -1 0
459 0 2 0 0.23824391200746753 23.74621104180772 2.7700130990234113 1 0 0
458 0 2 0 0.24296265116610913 22.661796867643638 3.8343351443852423 1 0 0
386 0 2 0 5.564224514571146 24.81727205694576 1.166029972360485 0 0 0
385 0 1 0 4.811103422013491 24.506219541246303 0.6066056298590546 0 0 0
367 0 1 0 6.33137427631356 23.447791898442517 3.4110690437764783 0 0 0
368 0 2 0 5.329913783707201 23.548596051052087 3.5317976507735316 0 0 0
379 0 1 0 4.435824334607762 21.72960346751752 0.4268576019763348 0 0 0
380 0 2 0 5.1092356029245 21.200110843588277 0.8237220141688153 0 0 0
381 0 2 0 4.525675000532046 22.637978067204394 0.7522010433914383 0 0 0
414 0 2 0 7.1030009963989 23.34358958264258 1.7225902680792216 0 0 0
369 0 2 0 6.569877267507876 22.74348400508977 4.009876028721676 0 0 0
412 0 1 0 7.8619127352813605 23.239659751537282 1.0964558417129253 0 0 0
413 0 2 0 7.926348784399925 24.08520042988667 0.6068736514854519 0 0 0
60 0 2 0 7.261859865310846 24.638292079856086 4.210063434434955 0 -1 0
405 0 2 0 8.383435599783057 21.874324905564478 4.458539236157943 0 0 0
415 0 1 0 11.090043354292648 24.629847280796433 0.9166776572966948 0 0 0
400 0 1 0 9.627735435041402 23.163307121358322 3.41999013816319 0 0 0
401 0 2 0 10.597162020088945 23.34617087799903 3.42313834539344 0 0 0
402 0 2 0 9.166425447223464 23.353945742470735 2.5858844144895263 0 0 0
409 0 1 0 10.95287823768485 21.823975925712823 0.46212852051236775 0 0 0
410 0 2 0 10.231164026609457 21.33226696630485 0.9488842178628494 0 0 0
411 0 2 0 10.733960324026437 22.737089550441937 0.6425056505403133 0 0 0
59 0 2 0 8.768652788669803 24.794556135875574 4.293775817758379 0 -1 0
438 0 2 0 12.448362587390768 20.86913872101472 1.790749934635395 0 0 0
397 0 1 0 12.362224264487624 23.548748841542114 3.5355303960265827 0 0 0
399 0 2 0 12.751668445400488 23.518989098639814 2.672764527017619 0 0 0
398 0 2 0 12.929412669583058 24.069288716851688 4.122679061504655 0 0 0
430 0 1 0 15.717125142545758 23.215729557618552 3.418324108278809 0 0 0
431 0 2 0 15.245326609157921 22.454213960600406 3.7895615359468993 0 0 0
442 0 1 0 13.95959485903045 23.238572347228455 1.3632381787543888 0 0 0
443 0 2 0 14.823730485142109 23.432364437240274 1.8117777959955568 0 0 0
444 0 2 0 13.939255365562643 23.81642465103041 0.5720960240403592 0 0 0
435 0 2 0 13.199026463519836 22.115741260561713 4.136169093152614 0 0 0
1875 0 2 0 13.898598861338195 21.796796322403488 0.015293599406516534 0 0 1
445 0 1 0 17.08364477938404 24.589595423479487 0.31413540344309837 0 0 0
432 0 2 0 16.646565294880794 23.010117078404157 3.381503462131468 0 0 0
439 0 1 0 17.314776411650982 21.843832114969125 0.7871324135212855 0 0 0
427 0 1 0 18.43210401536978 23.16761716970943 3.169687807048514 0 0 0
428 0 2 0 18.993986061036487 22.520416758250946 3.609832889767558 0 0 0
429 0 2 0 18.65150852734582 24.02269983388735 3.609567691743419 0 0 0
440 0 2 0 17.87123987689221 21.435609415843288 1.495446985312435 0 0 0
447 0 2 0 17.1778041544765 23.619893356376693 0.44481285290577044 0 0 0
474 0 2 0 19.587212425869286 23.300212561244514 1.8171467147109983 0 0 0
472 0 1 0 20.285766000634357 23.35357967841575 1.1653444888679876 0 0 0
473 0 2 0 20.172587241066527 24.246264584141933 0.7829593866055191 0 0 0
441 0 2 0 17.364427535332382 21.26934124588648 0.04795608579870858 0 0 0
377 0 2 0 24.40351388689933 20.926853297583996 1.9178932429206057 -1 0 0
476 0 2 0 22.247546241449545 24.63010731663909 0.7601035038051903 0 0 0
475 0 1 0 23.160498817841468 24.31907435751259 0.5293131658320764 0 0 0
457 0 1 0 24.496473944927665 23.47551545997748 3.6458382292692897 0 0 0
460 0 1 0 21.603573395296486 23.560755619637668 3.5895030345369046 0 0 0
461 0 2 0 21.186714842779132 23.66699836271063 2.747851444298695 0 0 0
462 0 2 0 22.552521268616804 23.595902565337077 3.4249440490368723 0 0 0
469 0 1 0 23.482797301342206 21.71464808506598 0.6572836581597248 0 0 0
471 0 2 0 22.62114759948447 21.494387248219795 1.0701965578713613 0 0 0
477 0 2 0 23.16057163043107 23.39920658231204 0.42218837458366276 0 0 0
13 0 1 0 1.6151655249800039 2.7574866505066464 5.0169168205284 0 0 0
14 0 2 0 1.5902429432008096 1.7772827419894948 5.138392970670258 0 0 0
15 0 2 0 1.3665344985227652 3.1167570329911416 5.872356561017764 0 0 0
484 0 1 0 2.873733636985707 1.476181393637121 8.009557546445377 0 0 0
485 0 2 0 1.92220726718119 1.5257655874413267 7.7731794593177055 0 0 0
486 0 2 0 3.272338753806279 2.3306286380833217 7.680430005449133 0 0 0
496 0 1 0 0.23237417012724665 1.3377162675006768 7.642445347721193 0 0 0
28 0 1 0 1.803999693230038 -0.10801856212853325 4.992969412567991 0 0 0
866 0 2 0 4.07395071222438 0.11735142877953736 7.042966611149513 0 1 0
45 0 2 0 6.818860314556322 3.229285516132189 4.734808417295125 0 0 0
3 0 2 0 4.572789802216205 0.6312282346908186 4.710831865721938 0 0 0
43 0 1 0 7.632687572490486 2.9243847622242902 5.158676956244004 0 0 0
500 0 2 0 4.611923529422769 2.693248461263834 5.341308720068195 0 0 0
44 0 2 0 7.792305980712164 1.9955580288959762 4.984454570678077 0 0 0
499 0 1 0 4.4393782293011945 3.137783025755203 6.200647349916166 0 0 0
501 0 2 0 5.150052770581786 2.720683673704764 6.709318900548664 0 0 0
526 0 1 0 6.3026204511043185 1.8532595105333562 7.754744319882796 0 0 0
527 0 2 0 7.244980440993265 1.7866792274785281 8.055977771181261 0 0 0
528 0 2 0 5.907581409478715 1.654278548546403 8.617200651231066 0 0 0
58 0 1 0 7.968180606702176 0.18465885667680804 4.650937537122404 0 0 0
867 0 2 0 5.522390665021334 0.3130957625613441 6.970355969059897 0 1 0
33 0 2 0 11.09408846563259 2.0854107519588463 4.881917446596645 0 0 0
514 0 1 0 9.131544707645832 1.7238055216103374 7.7503205654630705 0 0 0
515 0 2 0 9.511388830448208 1.8477386112720278 8.64876953370245 0 0 0
516 0 2 0 9.532471720931436 0.9713901872879807 7.3612658295717255 0 0 0
529 0 1 0 10.834918420898733 3.317091701202054 6.215937324959067 0 0 0
531 0 2 0 10.049865336103192 2.9389384855670313 6.711333527692476 0 0 0
558 0 2 0 12.308387064451876 2.103176744873512 7.369912789294302 0 0 0