LAMMPS (29 Sep 2021 - Update 2)
  using 1 OpenMP thread(s) per MPI task
echo both

include		in.partitions
variable        pid world 0
include		in.temp
variable        temperature equal 255
variable        tempDamp equal 0.100 # this is 0.1 ps
include		in.pressure
variable        pressure equal 7092.75
variable        pressureDamp equal 1.0 #this is 1ps
include		in.seed
variable        seed world 745823

units           metal
atom_style	full
include		in.box
read_data       iceVI.data
Reading data file ...
  orthogonal box = (0.0000000 0.0000000 0.0000000) to (24.724405 24.724405 22.792372)
  1 by 1 by 1 MPI processor grid
  reading atoms ...
  1920 atoms
Finding 1-2 1-3 1-4 neighbors ...
  special bond factors lj:    0        0        0       
  special bond factors coul:  0        0        0       
     0 = max # of 1-2 neighbors
     0 = max # of 1-3 neighbors
     0 = max # of 1-4 neighbors
     1 = max # of special neighbors
  special bonds CPU = 0.003 seconds
  read_data CPU = 0.097 seconds
include 	in.setup
variable	out_freq equal 500
variable	out_freq2 equal 500

timestep        0.0005

neigh_modify    delay 7 every 1

include         in.deepmd
# This is deepMD model

# create groups ###
#group ox type 2
#group hy type 1

mass 2 15.999
mass 1 1.008

pair_style      deepmd ../graph.pb
pair_coeff      * *

bond_style      none
angle_style     none
dihedral_style  none
improper_style  none
neigh_modify exclude none


neighbor        2.0 bin
neigh_modify    every 10 delay 0 check no

thermo          ${out_freq}
thermo          500
thermo_style 	custom step temp pe etotal epair emol press lx ly lz xy xz yz vol pxx pyy pzz pxy pxz pyz

restart 	${out_freq} restart.lmp.${pid} restart2.lmp.${pid}
restart 	500 restart.lmp.${pid} restart2.lmp.${pid}
restart 	500 restart.lmp.0 restart2.lmp.${pid}
restart 	500 restart.lmp.0 restart2.lmp.0


include         in.dump
dump            myDump all atom ${out_freq2} dump.water.${pid}
dump            myDump all atom 500 dump.water.${pid}
dump            myDump all atom 500 dump.water.0
dump            myDump2 all dcd ${out_freq2} dump.dcd
dump            myDump2 all dcd 500 dump.dcd
dump_modify     myDump append yes
dump_modify     myDump2 append yes


timer           timeout 03:55:00 every 1000
New timer settings: style=normal  mode=nosync  timeout=03:55:00

fix             2 all nph aniso ${pressure} ${pressure} ${pressureDamp}
fix             2 all nph aniso 7092.75 ${pressure} ${pressureDamp}
fix             2 all nph aniso 7092.75 7092.75 ${pressureDamp}
fix             2 all nph aniso 7092.75 7092.75 1
fix             3 all temp/csvr ${temperature} ${temperature} ${tempDamp} ${seed}
fix             3 all temp/csvr 255 ${temperature} ${tempDamp} ${seed}
fix             3 all temp/csvr 255 255 ${tempDamp} ${seed}
fix             3 all temp/csvr 255 255 0.1 ${seed}
fix             3 all temp/csvr 255 255 0.1 745823
velocity 	all create ${temperature} ${seed} dist gaussian
velocity 	all create 255 ${seed} dist gaussian
velocity 	all create 255 745823 dist gaussian

run             400000

CITE-CITE-CITE-CITE-CITE-CITE-CITE-CITE-CITE-CITE-CITE-CITE-CITE

Your simulation uses code contributions which should be cited:

- USER-DEEPMD package:

@article{Wang_ComputPhysCommun_2018_v228_p178,
  author = {Wang, Han and Zhang, Linfeng and Han, Jiequn and E, Weinan},
  doi = {10.1016/j.cpc.2018.03.016},
  url = {https://doi.org/10.1016/j.cpc.2018.03.016},
  year = 2018,
  month = {jul},
  publisher = {Elsevier {BV}},
  volume = 228,
  journal = {Comput. Phys. Commun.},
  title = {{DeePMD-kit: A deep learning package for many-body potential energy representation and molecular dynamics}},
  pages = {178--184}
}

CITE-CITE-CITE-CITE-CITE-CITE-CITE-CITE-CITE-CITE-CITE-CITE-CITE

Neighbor list info ...
  update every 10 steps, delay 0 steps, check no
  max neighbors/atom: 2000, page size: 100000
  master list distance cutoff = 8
  ghost atom cutoff = 8
  binsize = 4, bins = 7 7 6
  1 neighbor lists, perpetual/occasional/extra = 1 0 0
  (1) pair deepmd, perpetual
      attributes: full, newton on
      pair build: full/bin
      stencil: full/bin/3d
      bin: standard
Per MPI rank memory allocation (min/avg/max) = 9.089 | 9.089 | 9.089 Mbytes
Step Temp PotEng TotEng E_pair E_mol Press Lx Ly Lz Xy Xz Yz Volume Pxx Pyy Pzz Pxy Pxz Pyz 
       0          255   -333.91511   -270.66231   -333.91511            0    45254.126    24.724405    24.724405    22.792372            0            0            0     13932.89    45936.464    47276.264    42549.649   -806.67598   -395.06229   -353.57305 
     500    233.12572   -313.46786   -255.64098   -313.46786            0    1123.3684    24.949568    24.987079    22.993048            0            0            0    14334.253    3205.5388    2418.1556   -2253.5893   -1425.6294   -1769.0388    928.61069 
    1000     259.0444   -313.34573   -249.08971   -313.34573            0    6036.2838    24.872777    24.883407    22.909314            0            0            0     14179.02    5136.9408    3824.2256    9147.6851    69.164387   -1049.4782   -1102.9269 
    1500       255.14   -312.59109   -249.30356   -312.59109            0    11671.425    24.937454    24.833807    22.888819            0            0            0     14174.86    10301.252    12432.832     12280.19   -119.63153   -1717.8031    962.15375 
    2000    251.86905   -309.50454   -247.02836   -309.50454            0    4192.0544    24.926796    24.940663    22.974284            0            0            0    14282.901    3142.9476    5775.4248    3657.7909    705.73747   -2385.6523   -1689.2792 
    2500    262.19005   -310.70709   -245.67079   -310.70709            0    7678.7674    24.811389    24.869701    22.936869            0            0            0    14153.236    8237.4217    6718.9471    8079.9333   -500.04554   -1096.6956    884.44792 
    3000    257.52241   -310.69038   -246.81189   -310.69038            0    7760.6945    24.910064    24.914927    22.988141            0            0            0    14267.186    8954.7795    9044.1146    5283.1893   -553.80879    3867.0971   -798.82395 
    3500    245.30327   -309.60976   -248.76223   -309.60976            0     5353.908    24.914849    24.795531    22.892448            0            0            0    14142.426    6225.2637    6705.8529    3130.6073   -383.99662    1259.6246    828.58196 
    4000    258.00734   -313.68455   -249.68577   -313.68455            0    6806.9063     24.96131    24.888139     22.96136            0            0            0    14264.528    8844.6124    4179.5326    7396.5737    1344.8786   -1460.5858   -287.44204 
    4500    261.06028   -313.82095   -249.06489   -313.82095            0    9696.0894     24.84925    24.865247    22.902295            0            0            0    14150.932    8559.6501    9256.7318    11271.886    1144.1606    1554.9928    1616.7364 
    5000    255.45128   -311.31962   -247.95487   -311.31962            0    5473.8306    24.870391    24.857005    22.993572            0            0            0    14214.705    5912.9321    5486.1906    5022.3692      2755.77    960.48646   -2019.2308 
    5500    255.96535   -312.78678   -249.29452   -312.78678            0    8278.5345     24.94336    24.799405    22.987266            0            0            0    14219.474    7373.7917    10076.127    7385.6843    663.06823    -367.6388   -289.12515 
    6000    257.83687   -311.88662   -247.93013   -311.88662            0    8057.0001    24.879107     24.82982    22.851059            0            0            0    14116.099      6170.56    9129.5249    8870.9155   -219.32015    727.40135    2201.6549 
    6500    251.29172   -312.42144   -250.08848   -312.42144            0    4413.3338    24.934043    25.115583    22.922494            0            0            0    14354.823    6848.9558    2450.4896    3940.5561    381.89182    1582.8464    1638.0733 
    7000    263.48681   -311.44176    -246.0838   -311.44176            0    9027.3494    24.787268    24.870654    22.839352            0            0            0    14079.902    8909.5291    9642.6383    8529.8806   -1247.0639    998.29535    296.21895 
    7500    254.33808   -310.89359   -247.80497   -310.89359            0    6359.6225    25.012365    24.865602    23.027922            0            0            0    14322.159    5629.1411    6416.3503     7033.376    110.85424   -1325.5181    2010.9448 
    8000    251.90911   -311.04086   -248.55475   -311.04086            0    8336.3646    24.818246    24.823533    22.953059            0            0            0    14140.841    8869.5308    9171.5307    6968.0322    512.48774   -2107.5535   -48.442293 
    8500    246.78042   -310.81222   -249.59828   -310.81222            0    7645.0298    24.858584    24.944476    22.924389            0            0            0    14215.055    5955.6561    7873.4917    9105.9416   -583.05298     1518.459    89.405069 
    9000    259.43121   -310.24283   -245.89086   -310.24283            0    6099.7717    24.929788    24.903143    22.890638            0            0            0    14211.196    6699.6933    4571.7473    7027.8746    667.35852    1018.8377    624.06786 
    9500     258.6277   -310.97161   -246.81895   -310.97161            0     7114.525    24.871219    24.882866    22.976018            0            0            0    14219.104    6614.9591    5911.7861    8816.8297   -1904.2994   -1631.6597    520.43252 
   10000    257.25136    -309.6713   -245.86004    -309.6713            0    7477.1726    24.929308    24.838746    23.014275            0            0            0    14250.732    8290.8947    9018.3469    5122.2762    1282.6664   -1262.1973   -526.69293 
   10500    268.40706   -309.65595   -243.07752   -309.65595            0    5839.0986    24.930485     24.89761    22.948854            0            0            0    14244.572    5705.5471    6273.8191    5537.9296   -114.39155    -2263.305   -2536.8568 
   11000    257.23046   -310.18459   -246.37852   -310.18459            0    8394.2177    24.886574    25.029244      22.8871            0            0            0    14256.195    10184.941    8011.3482    6986.3639   -717.88531   -1104.1789    1721.3191 
   11500    257.90187    -312.1174   -248.14478    -312.1174            0    10244.447    24.930563    24.849786    22.866856            0            0            0    14166.456    9093.4654    10604.368    11035.508    600.50993    925.15646    1583.8429 
   12000    255.18544   -309.84228   -246.54348   -309.84228            0    5063.6802    24.951906    24.766445    23.129537            0            0            0     14293.36    4762.8403    6709.6173    3718.5829   -265.90856   -1957.0313    1107.2492 
   12500    254.15545    -308.2367   -245.19338    -308.2367            0    6401.1039    24.756272     24.85888    23.109566            0            0            0    14221.931    8471.0726    5431.4814    5300.7578   -1964.4243   -1767.5774    889.07041 
   13000    254.15309   -308.37295   -245.33022   -308.37295            0     8645.402    24.846095    25.005089    22.859069            0            0            0    14201.855    9053.6139    6210.8891    10671.703    373.28334    1566.0372   -1690.0149 
   13500    260.39767   -312.81303   -248.22133   -312.81303            0    5890.8205    25.099428    24.908719    22.757428            0            0            0    14227.821    5465.8346    5448.1853    6758.4415     949.1139     784.5096    1466.4742 
   14000    252.37003   -312.61769   -250.01725   -312.61769            0    7745.0505    24.943505    24.771893    22.945486            0            0            0    14177.966    5821.1491    9782.1329    7631.8694    1134.8984   -543.11093   -1121.5074 
   14500    249.88108   -312.82957   -250.84652   -312.82957            0    7770.1495    24.745598    24.870491    23.130083            0            0            0    14235.066    12276.274    5965.5528    5068.6216    2376.9038    334.50997    860.90434 
   15000     257.8309    -311.0295   -247.07449    -311.0295            0    7996.0151     24.77271    24.941599      22.9787            0            0            0    14197.872    5027.7714    10599.496    8360.7784    294.10573    2538.6151   -1020.9678 
   15500    256.26556   -311.35987   -247.79314   -311.35987            0    5640.7037     24.98018    24.934286    22.824437            0            0            0    14216.496    5615.0004    5890.4735    5416.6373   -1219.6746   -303.70409    658.09522 
   16000    259.93706   -311.08762   -246.61018   -311.08762            0    7703.3537    24.991987    24.826302    22.853658            0            0            0    14179.749    8402.4559    6255.0129    8452.5923   -686.15272   -1879.4996    630.99476 
   16500    258.64487   -311.44703   -247.29012   -311.44703            0    6590.3919    24.858531    24.872868     23.04172            0            0            0    14246.764    7270.5473    7642.9791    4857.6492   -1058.7868    -1429.387    337.45759 
   17000    256.71254   -311.36089   -247.68329   -311.36089            0    7185.4535    24.779908    24.868235    23.058968            0            0            0    14209.688    8841.3182    5047.1093    7667.9331    115.64201     -2229.36   -985.68911 
   17500     252.7522   -310.96412   -248.26888   -310.96412            0    6534.0785    24.929241    24.874963    22.974693            0            0            0    14246.928    2548.8969    10018.349    7034.9898   -437.08966   -475.11997    -1714.008 
   18000    256.16329   -313.29951   -249.75815   -313.29951            0    6268.4333    24.986715    24.842857    22.829128            0            0            0    14170.984    6082.8742    6557.0974    6165.3284     1758.463    749.05544   -895.92867 
   18500    246.54183   -310.51799   -249.36324   -310.51799            0    5070.2457    24.866339    24.959116    22.877183            0            0            0    14198.537    3561.2517    5750.5557    5898.9298    1425.1527   -1800.1019    -1713.163 
   19000    254.32301   -311.44175   -248.35687   -311.44175            0    8310.9255    24.747272    24.948657    23.047574            0            0            0     14229.83    8421.0403    9561.0216    6950.7145   -678.59274    307.61653   -731.56694 
   19500    258.69293    -312.2104   -248.04156    -312.2104            0    9055.3887    24.801482    24.784483    23.037249            0            0            0     14160.81    9188.1151    9077.9559    8900.0951    -1337.269   -221.34965    71.104987 
   20000    247.50043    -311.1697   -249.77717    -311.1697            0    6343.0635    25.050446    24.857603    22.952307            0            0            0    14292.265    4543.2443    6068.4714    8417.4749    1274.1284   -76.027974    602.81498 
   20500    255.67883   -312.09267   -248.67148   -312.09267            0    10142.417    24.904604    24.888163    22.742577            0            0            0    14096.528    8697.7048    9796.8215    11932.725   -703.07373   -347.99094   -1379.9095 
   21000    254.98455   -312.81668    -249.5677   -312.81668            0    6381.1306    24.882964    25.017206    22.954067            0            0            0    14288.958    6670.9058    4889.9977    7582.4884    633.06567    903.95641   -20.052554 
   21500    246.38097     -312.094   -250.97914     -312.094            0     8874.463    24.776249    24.784993    23.078657            0            0            0    14172.122    11071.655    8872.7011    6679.0332   -1247.6077    377.13258   -2767.2486 
   22000     254.8046   -311.19983   -247.99549   -311.19983            0    4680.5678    24.858336    24.768089    23.080552            0            0            0    14210.545    3998.1081    5784.2901    4259.3051    535.44511   -1624.5339    1513.6191 
   22500    257.42495   -310.92869   -247.07438   -310.92869            0    8028.3168     24.90805    24.905748    22.917199            0            0            0    14216.767     10534.76    4604.1847    8946.0061   -431.51644   -583.18477    637.98267 
   23000    248.71468   -312.45863    -250.7649   -312.45863            0    6054.6395    24.890241     24.92889     22.85095            0            0            0    14178.696     7501.861     5520.397    5141.6604    1676.7418    308.92043    411.98443 
   23500    257.03154   -311.80057   -248.04384   -311.80057            0    7182.8351     24.87734    24.874799    22.985925            0            0            0    14224.123    8741.4649    3753.6504    9053.3901   -639.21187    1010.9143   -449.33993 
   24000    265.53866   -311.25831   -245.39139   -311.25831            0    9955.8742    24.813673     24.79879    23.028356            0            0            0    14170.478    10558.651    9764.7596    9544.2122   -714.19727   -1989.4446   -843.55157 
   24500    258.08744   -312.28658   -248.26794   -312.28658            0    2339.9003     24.90644    24.933022    23.043724            0            0            0    14309.988    1928.8633    3103.5404    1987.2973   -1775.7057   -472.08697    2089.7974 
   25000    272.60745   -311.71199   -244.09165   -311.71199            0    10961.284    24.786916    24.863638    22.911377            0            0            0    14120.119     12783.25    9191.0618     10909.54     185.9505    129.34842    1844.0629 
   25500    255.69634   -309.65314   -246.22761   -309.65314            0    7052.9568    24.941418    24.939726    23.038819            0            0            0    14330.886    9003.2621    7135.8613     5019.747   -953.21001    741.03705    628.56959 
   26000    262.54171   -308.64458   -243.52105   -308.64458            0    8205.6023    24.880878    24.751199    22.975582            0            0            0    14149.088    9278.0919    9297.5275    6041.1875   -993.09014    351.09196   -2381.0067 
   26500    251.00015   -310.94981   -248.68917   -310.94981            0    4680.1643    24.912667    24.904902    22.993339            0            0            0     14266.16    5346.5607    3325.1302    5368.8019   -1155.6713     1196.159    235.77556 
   27000    260.27982   -311.44194   -246.87947   -311.44194            0    8533.9907    24.841115    24.947275     22.88127            0            0            0    14179.938    7675.5337    8325.6717    9600.7668    544.31631   -1016.4277    477.32831 
   27500    250.91345   -310.79165   -248.55251   -310.79165            0    5887.1288    24.959983    24.890246    22.856958            0            0            0    14200.117     7211.326    2927.4565    7522.6038    719.18993    897.21785    1232.5005 
   28000     255.7782   -312.59327   -249.14743   -312.59327            0    8031.5332    24.960939    24.841447    23.009379            0            0            0     14267.33    7621.9438    11650.359    4822.2966   -1784.5427     1345.809   -30.356799 
   28500    251.08102   -309.36112   -247.08042   -309.36112            0     7795.096    24.746205    24.838277     23.06576            0            0            0    14177.441    9604.3559    6267.8676    7513.0645    65.933722   -834.79644    996.67503 
   29000    249.17195   -310.72846    -248.9213   -310.72846            0    6543.0809    24.886632    25.018796    22.988652            0            0            0    14313.507    6483.2017    6675.1264    6470.9146   -116.70288   -1360.3571    234.35499 
   29500     258.8399   -309.42704   -245.22175   -309.42704            0    11056.707    25.002564    24.823483    22.699095            0            0            0     14088.21    10363.859     10138.48    12667.782    1883.1082    787.96369   -1846.8749 
   30000    263.46407   -308.98992    -243.6376   -308.98992            0    7301.6346    25.139355    24.861375    22.948034            0            0            0    14342.497    4360.4564    9838.2842    7706.1633     543.6264    614.61294    217.93502 
   30500    261.61881   -310.27456   -245.37996   -310.27456            0    7522.4706     24.76935    24.809793    23.099056            0            0            0    14194.888    7425.1466    7235.3744    7906.8909    1410.0138    2279.0481   -47.125827 
   31000    260.94651   -310.25598   -245.52814   -310.25598            0    5269.0755    24.816294    24.883925    23.026022            0            0            0    14219.185    4928.3025    5835.7247    5043.1991   -1566.1821    1495.0684    649.90623 
   31500    254.65084   -309.25123   -246.08504   -309.25123            0    5352.3736    24.976436    24.936532    22.898335            0            0            0    14261.671    6973.7485    6705.6048    2377.7674    177.31403    -2325.987    800.96573 
   32000    259.83574   -312.10538   -247.65306   -312.10538            0    7794.6363    24.899941    24.877178    22.820547            0            0            0    14135.966    5313.4156    9376.5917    8693.9015   -120.21482   -1603.5798    -48.16294 
   32500    265.31987   -312.25835    -246.4457   -312.25835            0    3802.3718    24.942757    24.925628    22.985161            0            0            0    14290.194    2991.4817    3884.1243    4531.5093   -612.86757   -1422.8483       2461.8 
   33000    260.79635   -310.62294   -245.93235   -310.62294            0    6910.7586    24.806781    24.867617    22.992498            0            0            0     14183.74     8041.504    6922.8948    5767.8769   -864.41366    -345.5652   -1272.2506 
   33500    251.33705   -312.18373   -249.83952   -312.18373            0    7606.3142    24.860978    24.872974    22.969189            0            0            0    14203.376     6939.962    9146.4644    6732.5162    1039.5457   -867.56339   -1179.2957 
   34000    248.81085   -311.97956   -250.26198   -311.97956            0    4113.7672    24.983499    24.843959    22.860563            0            0            0      14189.3    5008.2272    1656.2521    5676.8222    273.19266   -33.826745   -653.99104 
   34500    246.44359   -312.33178    -251.2014   -312.33178            0    5716.8779    24.900693    24.899244    22.867777            0            0            0    14178.215    3491.4742    8142.0543     5517.105    1124.8172   -2606.8137    673.70853 
   35000    253.45785   -314.05234   -251.18207   -314.05234            0    8536.5878    24.714384    24.949457    22.996016            0            0            0    14179.584    11085.835    7782.6554    6741.2728    815.35503    -1497.064   -3082.0822 
   35500     252.8887   -311.64449   -248.91539   -311.64449            0    6965.3271    24.823482    24.834771     23.06041            0            0            0    14216.408    6824.6579    7665.9029    6405.4206   -1318.1732    172.56071   -342.46235 
   36000    252.28169   -311.59611   -249.01758   -311.59611            0    6475.3989    25.084611    24.764282    22.902724            0            0            0    14227.226    9620.8369    4484.5671    5320.7926   -1056.4152   -1532.7757    1650.7941 
   36500    252.93938   -311.95266   -249.21099   -311.95266            0     6866.844    24.968069    24.884286    22.808692            0            0            0    14171.327    6618.3204    7986.1654    5996.0463   -616.19823    700.94637    365.64667 
   37000    254.25545   -312.50042    -249.4323   -312.50042            0    8324.5526    24.777781    25.034474    22.941133            0            0            0    14230.355    9291.8969    8929.9795    6751.7813   -254.06358    -753.8221    1274.8059 
   37500     260.1503   -313.69062   -249.16028   -313.69062            0    6714.8758    24.723454    24.848026    23.080008            0            0            0    14178.719    6353.3879    4966.2436    8824.9959   -1312.2955    347.65878    -854.4728 
   38000    259.94506   -311.10728   -246.62785   -311.10728            0    8135.1449    24.936451    24.744563    23.120162            0            0            0    14266.102     9128.805    10783.872    4492.7572     706.5575   -712.30941    1291.0979 
   38500    260.77614   -311.56407    -246.8785   -311.56407            0    6521.7467     24.98737    24.864084    22.864973            0            0            0    14205.735    5931.1837    7137.3118    6496.7446   -1113.2544   -1266.4223   -735.66674 
   39000    252.28727   -311.98613   -249.40622   -311.98613            0    6662.3871    24.896144    25.013792    22.817667            0            0            0    14209.633    5977.2987    5132.6114    8877.2514    634.65008     1006.216   -1065.3093 
   39500    258.01207   -309.60824   -245.60829   -309.60824            0    6505.7208    24.837146     24.88983     22.98251            0            0            0    14207.612    3914.5222    8645.2824    6957.3579    526.69742     773.7518   -1479.8285 
   40000    256.64189   -313.09943   -249.43935   -313.09943            0    5605.3157    24.880791    24.761111    23.077864            0            0            0    14217.719    6236.9444    7680.8595    2898.1432   -311.66521   -330.31416    478.25828 
   40500    253.89639    -312.7817   -249.80265    -312.7817            0    5867.8896    24.869539    24.860769    22.952437            0            0            0    14190.938    4123.4055    6933.5711    6546.6921   -786.74469   -1182.5916    1807.7854 
   41000    256.44237   -313.66281   -250.05222   -313.66281            0    6282.7492     24.87638    25.018251    22.843422            0            0            0    14216.913    6415.9102    4315.0066    8117.3307    165.74645   -1209.9716    1460.3873 
   41500    255.05478    -310.9999   -247.73351    -310.9999            0    9172.1896    24.885041    24.893776    22.845572            0            0            0    14152.436    12769.656    5732.6913    9014.2219   -380.79403    444.50966    1145.6148 
   42000    249.49663    -309.7126   -247.82491    -309.7126            0    4902.9298    24.918098    24.844419    23.051313            0            0            0    14270.507    3603.3492    5046.9553    6058.4847   -531.62835   -525.70086     654.9256 
   42500    251.66338   -309.87679   -247.45163   -309.87679            0    7521.9095    24.784272    24.850354     23.02133            0            0            0    14178.789    9828.8253    8439.5614    4297.3417   -754.50183   -530.43455    453.19476 
   43000    251.39623   -309.12385   -246.76496   -309.12385            0    5609.0138    24.825457    24.996952    22.906585            0            0            0    14214.928    7119.1733    3490.2161     6217.652    268.79997   -2558.4011   -287.92703 
   43500    260.23533   -310.89091   -246.33948   -310.89091            0      9438.02    24.869846    25.004567    22.883353            0            0            0    14230.236    9371.8014    9727.7743    9214.4842   -481.87947   -500.64257   -127.31578 
   44000    260.53305   -313.82042   -249.19515   -313.82042            0      7192.57    24.953903    24.788247    22.941408            0            0            0    14190.718    6257.8522    8520.5223    6799.3354   -1134.7991    690.89613   -913.69034 
   44500    260.32939   -312.77391   -248.19914   -312.77391            0     4452.085    24.898377    24.826498    23.005886            0            0            0    14220.847    4979.6421    5128.4895    3248.1234    622.53688    2212.7797    942.11006 
   45000    257.77694   -313.86282   -249.92119   -313.86282            0    8812.6176    24.731189    25.005371    22.943578            0            0            0    14188.597    10932.438    6683.2884    8822.1266    485.68614    3319.7056    327.90132 
   45500    254.51338   -313.42493   -250.29283   -313.42493            0    5531.8387    24.853352    24.979039    22.853719            0            0            0    14187.883    5123.4618    4777.7404    6694.3139   -399.20728    1513.2775    529.20216 
   46000    258.62272   -312.54797   -248.39654   -312.54797            0     7206.221    25.040247    24.735932    22.918267            0            0            0    14195.434    4837.4779    7690.5183    9090.6668    2106.5113    2691.2523    136.64923 
   46500    256.88348   -311.37369   -247.65369   -311.37369            0    8788.3763    24.869545    24.803869    23.051777            0            0            0     14219.74    7847.2657    10873.562    7644.3006   -856.78756    1636.5501   -303.39659 
   47000    254.46761   -310.95681   -247.83607   -310.95681            0     4633.277    24.694971    25.064285    23.003107            0            0            0    14238.045    3123.3488    6561.2286    4215.2536   -564.62211   -636.12314    1764.3709 
   47500    258.76814   -310.20489    -246.0174   -310.20489            0    6217.6535    24.855497    24.954177    22.863122            0            0            0    14180.817    6966.0016    7138.9779    4547.9811    210.15801   -271.07535   -59.083677 
   48000    258.83664     -312.254   -248.04951     -312.254            0    7081.2857    25.010459    24.875817    22.864755            0            0            0    14225.435    6988.3402    6280.5609    7974.9561    558.20825   -372.06348    1701.4221 
   48500    255.28988   -311.12881    -247.8041   -311.12881            0     6801.028    24.863705    24.781984    23.001023            0            0            0    14172.585    5375.0607    8976.9337    6051.0894    877.38214   -912.63336   -1533.2783 
   49000    255.97439   -309.58011   -246.08561   -309.58011            0    7143.6724    24.803896    24.892396    23.090149            0            0            0    14256.514    6484.1499    6224.7887    8722.0787   -618.76006   -1421.5585   -833.85354 
   49500    264.66461   -308.32911     -242.679   -308.32911            0    7837.9558    24.834746    24.942209    22.990199            0            0            0    14240.898    8393.1105    6881.7175    8239.0393    -1677.352    -232.6806    -445.6902 
   50000    257.50504   -309.26866   -245.39448   -309.26866            0    8005.7307    24.968483    24.900108    22.891136            0            0            0    14231.829    7976.0159    8467.1538    7574.0225    165.83808    538.63356   -402.21982 
   50500    256.26082   -310.63872   -247.07317   -310.63872            0     7516.464    24.973852    24.856554    22.856972            0            0            0    14188.783    4869.2466    7740.5317    9939.6136   -1590.4906   -334.91574    152.49848 
   51000    262.93694   -310.71299   -245.49142   -310.71299            0    6809.4155    24.860561    24.874815    22.997015            0            0            0    14221.397    6883.2046    6287.8155    7257.2265    496.93229   -876.58099   -363.61905 
   51500    254.53863   -310.38021   -247.24185   -310.38021            0    7024.3275    24.721878    24.905598    23.091166            0            0            0    14217.535    9404.2889    4938.3176    6730.3759    228.27925    2045.7734    432.52168 
   52000    252.75592   -312.17684   -249.48068   -312.17684            0    9252.0384    24.903175    24.824417    22.905557            0            0            0    14160.371    11223.025     8707.209    7825.8812   -39.992359    235.00785    -2845.022 
   52500    255.43152   -309.51888   -246.15904   -309.51888            0    7283.0939    25.159692    24.933217    22.776203            0            0            0    14287.787    5219.4303    6682.3121    9947.5393   -529.82378    1276.8239    1339.3114 
   53000    253.36024   -311.33742   -248.49136   -311.33742            0    6172.0582    24.854734    24.970563     22.76392            0            0            0    14128.124    6110.3499    7906.8499    4498.9748   -1284.8001   -1949.6062   -573.40508 
   53500    253.34386   -310.55914   -247.71714   -310.55914            0    8056.1003    24.713721    24.960986    23.134662            0            0            0    14271.283    6293.4351    8522.3645    9352.5013    602.01725    1752.5933   -504.47561 
   54000    260.40838   -310.30997   -245.71562   -310.30997            0    5418.2115    24.867618    24.768306    23.094157            0            0            0    14224.356     7588.378    5347.6457    3318.6108   -64.574252   -2108.9656   -59.100025 
   54500    252.08182   -312.58274   -250.05379   -312.58274            0    7509.8628    24.960642    24.818297     22.86287            0            0            0    14163.105    6542.2219    7246.3273    8741.0393    742.99288   -1124.8318   -332.68924 
   55000    257.16993   -311.45576    -247.6647   -311.45576            0    8462.2632    24.945932    24.975085    22.835553            0            0            0    14227.161    6363.0064    9387.4682    9636.3151    35.766909    234.98517    71.792913 
   55500    251.64646    -311.6605   -249.23954    -311.6605            0    6000.4161    24.810968    24.947944    22.915711            0            0            0    14184.427    9300.0397    4614.2676    4086.9409    909.18332   -246.11867   -2197.4753 
   56000     258.7795   -310.09288   -245.90257   -310.09288            0    5634.2826    24.853355    24.898151    23.036379            0            0            0    14254.971    5146.1827    5465.9952      6290.67   -2255.1981   -516.31607   -900.29328 
   56500    255.80788   -311.28207   -247.82887   -311.28207            0     6585.894    24.954427    24.795546    22.967433            0            0            0    14211.298    6849.7034    7544.3194    5363.6592     225.5979   -2631.9481   -917.22274 
   57000    250.41091   -311.04649   -248.93201   -311.04649            0    8354.0091    24.895786    24.942777    22.837183            0            0            0    14181.206    10228.468    6177.9743    8655.5851   -80.780065   -2194.0205    3019.9808 
   57500    260.14375   -312.73269   -248.20397   -312.73269            0    6022.7611    24.869855    25.046952    22.869632            0            0            0    14245.815    8119.8483    2949.9242    6998.5108   -1860.6282   -1069.7294    8.7295941 
   58000    254.66919   -311.80409   -248.63334   -311.80409            0    7395.5375    24.777935     24.85149    22.984375            0            0            0    14153.057    8170.6621     7023.489    6992.4615   -1362.8723    561.41975    1464.1517 
   58500    259.20587   -311.05534   -246.75926   -311.05534            0    7170.1514    24.912132    24.740204    23.147964            0            0            0    14266.813    7171.1828    8866.7161    5472.5554   -460.24133   -2717.4781   -1380.6703 
   59000    262.69335   -312.92774    -247.7666   -312.92774            0    9258.2847    24.913759    24.830521    22.899094            0            0            0    14165.875    6345.3233    12399.453    9030.0781    79.405078    589.32412   -1452.4511 
   59500    257.47642   -311.18993   -247.32285   -311.18993            0    6404.5424    24.990142    25.009076    22.798959            0            0            0    14248.902    4396.3517    6289.1194     8528.156    636.20878   -1493.6528   -212.64553 
   60000    255.29383   -312.31899    -248.9933   -312.31899            0    6380.6686    24.900659    24.895473    22.863747            0            0            0     14173.55    6843.2896    5576.6756    6722.0405    867.16973    28.728975    2184.6409 
   60500    254.05886   -312.46333   -249.44398   -312.46333            0     7027.237    24.884374    24.832562    23.065466            0            0            0    14253.138    8218.8594    5612.8324    7250.0192   -238.04754    775.92851   -97.991143 
   61000    246.44132   -309.91813   -248.78831   -309.91813            0    6370.4693    24.835117    24.849471    23.028689            0            0            0    14211.914    5784.6906    6350.2662    6976.4512   -680.19242   -1324.5565    -1500.554 
   61500    259.16433   -310.75873   -246.47297   -310.75873            0    6960.4945    24.905559    24.902063    22.886249            0            0            0    14194.047    6816.1814    6469.3568    7595.9453   -2186.3007    -1166.426    99.077358 
   62000    258.67217   -310.84875   -246.68506   -310.84875            0    9721.0005    24.968647    24.880148    22.861716            0            0            0    14202.238    6520.7809    9343.0316    13299.189   -412.48237   -2134.7854   -345.40426 
   62500    257.37165   -312.55326   -248.71216   -312.55326            0     6351.624    24.883894    24.836621    22.969296            0            0            0    14195.756    6054.1161    8174.2947    4826.4612   -361.61162     1973.688   -1830.1405 
   63000    264.00986   -309.69344   -244.20574   -309.69344            0    7396.1566    24.882043    24.863553    23.070028            0            0            0    14272.411    8284.8202    9905.3373    3998.3122    14.761566    -1019.248   -300.74652 
   63500    255.98987   -312.12505   -248.62671   -312.12505            0    5921.5307     24.85995    24.831722    22.932783            0            0            0    14156.759    5325.6208    6158.3095    6280.6619    1726.6472   -596.29691   -1394.9992 
   64000    257.41578   -309.86096   -246.00892   -309.86096            0    6700.6566    25.012458    24.949253    22.869946            0            0            0     14271.81    4454.8851    9861.1318    5785.9529    -41.14268   -1938.7479   -862.37744 
   64500    249.04335   -310.40649   -248.63124   -310.40649            0    6036.4114    24.878573    24.896986    22.894737            0            0            0    14181.034     4402.517    6020.0762     7686.641    1698.2867   -1725.7052    1788.3554 
   65000    252.21849   -314.07901   -251.51615   -314.07901            0    7410.9966    24.750104    24.861687    23.093266            0            0            0    14209.964    8575.8423    7747.9321    5909.2155    959.94105    1676.0873    1253.4082 
   65500    252.32682   -312.08881   -249.49908   -312.08881            0    6262.7237    24.832984    24.763281    23.145711            0            0            0    14233.366    7063.6127    8685.3566    3039.2019    454.43713   -825.59868   -44.870794 
   66000    262.90147   -309.91431   -244.70154   -309.91431            0    6588.6534    24.952386    24.873304    22.842208            0            0            0    14176.977    6091.0139    7240.0299    6434.9164    114.20469    329.19396    1135.1318 
   66500    254.09482   -308.78446   -245.75618   -308.78446            0    7242.9735    25.023696     25.04947    22.747109            0            0            0    14258.578    5723.7132    7920.9431    8084.2641    2527.0857   -766.78981   -496.04279 
   67000    254.77135    -312.2728   -249.07671    -312.2728            0    8223.8606    24.878744    24.822958    22.922554            0            0            0    14156.144    6695.5646    8899.7903    9076.2269    633.86907    332.68882    1000.6917 
   67500     251.3564     -311.355   -249.00599     -311.355            0    6152.0144     24.87653    24.768064    23.154917            0            0            0    14266.751    4735.8056    8460.4708    5259.7668   -1585.8447    827.06437    1581.1758 
   68000    250.70459   -311.96155   -249.77423   -311.96155            0    8947.4901    24.794664    24.796931    23.006282            0            0            0    14144.988    10946.419    7845.3495    8050.7017     183.4026    92.106414   -1983.0571 
   68500     255.7633   -311.38754    -247.9454   -311.38754            0    5837.1738    24.961086    24.931333    22.881517            0            0            0    14239.468    4923.3801    6008.8738    6579.2673    930.74643   -595.31403    996.22458 
   69000    250.04681   -312.34129   -250.31712   -312.34129            0    7075.3862    24.887829    24.940749    22.863525            0            0            0    14191.873    7083.6999    6948.1262    7194.3326    592.41293    944.66671   -1722.2398 
   69500    252.76224   -312.70719   -250.00947   -312.70719            0    6326.1567     24.81793     24.89959    22.957649            0            0            0    14186.824    7314.1423    5464.2762    6200.0516    2111.4313   -1583.7268   -1886.4958 
   70000     256.3382   -312.56069   -248.97594   -312.56069            0     6843.512    24.883408    24.784498    23.015298            0            0            0    14194.058    6459.7361    9921.0499    4149.7499    130.53345   -422.54235   -1413.9208 
   70500    246.48468   -310.35222   -249.21164   -310.35222            0    8630.7649    24.880992    24.834831    22.978147            0            0            0    14198.547    9382.4208    6328.7646    10181.109    138.38828    1611.6676    2315.8019 
   71000    249.78608   -311.82436   -249.86487   -311.82436            0     5978.991    24.878854    24.895513    22.952447            0            0            0    14216.099    7519.3247    3787.4663    6630.1819   -1480.6474   -1018.0125   -2279.9058 
   71500    251.56682   -310.73853   -248.33733   -310.73853            0    6073.1866    24.864148    24.889234    22.886838            0            0            0     14163.51    5838.2316    4186.0591     8195.269    1082.1643    101.13127    2057.6061 
   72000    261.78042   -309.54482   -244.61013   -309.54482            0    8160.1776    24.977522    24.913844    22.970916            0            0            0    14294.481     4392.295    9787.0005    10301.237    149.03049   -106.16925   -1914.6049 
   72500    253.47232   -310.98379   -248.10992   -310.98379            0    5974.5165     24.87871    24.812165    22.986157            0            0            0    14189.231    7803.4878    6815.3202    3304.7415   -932.75329    837.08482   -607.56303 
   73000    253.72486    -312.2652   -249.32869    -312.2652            0     6723.258    24.855348    24.849052    23.052692            0            0            0    14238.076     7610.522    6651.7159    5907.5362    1160.7407    532.09032    2079.4273 
   73500    257.11545   -310.24008   -246.46253   -310.24008            0    7424.1767    24.880326    24.848668    22.993091            0            0            0    14215.316    5296.6888    11159.521    5816.3206   -752.46273    1976.9951    127.95342 
   74000    252.68628   -310.64948   -247.97059   -310.64948            0    10010.563    24.933485    24.851876     22.86909            0            0            0    14170.692    10020.978    11172.696    8838.0134   -958.49387    2675.1454    -411.2741 
   74500    262.05903   -312.61211   -247.60831   -312.61211            0    6311.3382    25.013768    24.917479    22.879368            0            0            0    14260.253    3795.8366    7733.4389    7404.7392    50.077452    156.71431    226.35947 
   75000    255.80188      -309.84   -246.38828      -309.84            0    10496.299    24.801548    24.842158    22.963101            0            0            0    14148.117    9536.5719    12437.192    9515.1331   -2372.7787    1145.9506    283.17949 
   75500    252.69117   -310.74632   -248.06622   -310.74632            0    7707.7456    24.818111    24.936268     23.11789            0            0            0    14306.994    8771.1057     8026.005     6326.126    539.02873    452.47425   -157.82058 
   76000    253.20894   -310.85844   -248.04991   -310.85844            0    7130.1215    24.880145    24.784428    22.928772            0            0            0    14138.801    6121.7229    9377.4888    5891.1527    182.43726   -2460.0669    734.54479 
   76500    241.68924    -313.6023   -253.65123    -313.6023            0    5897.7293    25.024917    24.890621     22.85818            0            0            0    14238.034    5621.6911    8145.2122    3926.2847   -775.36614   -596.50953   -761.64479 
   77000    245.96841    -313.3739   -252.36138    -313.3739            0    6791.9811    24.817878    24.981512    22.797822            0            0            0    14134.378    4284.0577    8371.6507    7720.2347   -1211.2188   -1822.7325    451.99371 
   77500    248.64842   -311.26979    -249.5925   -311.26979            0    8528.2577    24.791971    24.968639    23.038885            0            0            0    14261.571    9122.9025    9085.6524    7376.2182      114.104    1999.6978   -1970.8131 
   78000    261.27344    -309.2484   -244.43946    -309.2484            0    6668.2612    24.899536    24.772818     23.03459            0            0            0    14208.464     5413.602    7215.1227    7376.0589   -464.16994    -93.40976   -740.27362 
   78500    254.12713   -311.99683   -248.96054   -311.99683            0    3988.0835    25.000138    24.853093    22.883059            0            0            0    14217.949    4645.5162    2889.9959    4428.7383    1914.7672    -1252.926   -165.42414 
   79000    257.88501   -313.33775   -249.36931   -313.33775            0    6246.0396    24.886504    25.021484    22.805889            0            0            0    14201.165    3797.0843    5709.7686    9231.2659    -1329.178    176.46918   -2063.5518 
   79500    253.48081   -310.87819   -248.00222   -310.87819            0    7717.9316     24.83779    24.947683    22.917228            0            0            0    14200.553     6569.735    9277.6521    7306.4077    1733.0324   -2849.0781   -1531.0124 
   80000     253.0684   -310.52408   -247.75041   -310.52408            0     7166.097    24.929894    24.766518    23.047434            0            0            0      14230.1    6459.9064    9171.8193    5866.5653   -455.35736    616.06298   -1102.3515 
   80500    254.70077   -311.57162   -248.39304   -311.57162            0     9710.791    24.928609    24.763147    23.047567            0            0            0    14227.512    7937.5291     13568.78    7626.0636   -803.19314    -595.0413   -1236.9359 
   81000    257.93589   -312.03062   -248.04956   -312.03062            0    5926.2315    24.779454    24.973461    22.920094            0            0            0    14183.612    6270.4386    4859.1783    6649.0774    401.40937   -1119.2682   -1703.6514 
   81500    250.44465   -312.15873   -250.03588   -312.15873            0    2887.9427    24.892296    25.022186      22.8621            0            0            0     14239.88    3783.0661    1791.7704    3088.9917   -306.79584    408.27695     947.6513 
   82000    257.09467   -311.93342   -248.16103   -311.93342            0    9930.7524    24.947297    24.731807    22.878205            0            0            0    14115.663    6896.1642    12711.465    10184.628    853.39578    79.224463   -1606.4123 
   82500    261.79169    -310.2087   -245.27122    -310.2087            0    7233.3722    24.924431    24.831086    23.126468            0            0            0    14312.987    7067.2136     6637.685    7995.2179   -2224.7872   -580.94824    2180.9178 
   83000    259.40356   -311.07521    -246.7301   -311.07521            0    7161.0212    24.681358    24.959228    23.045471            0            0            0    14196.647    5005.5816     9402.226    7075.2559    2081.8415    406.93454   -2122.7106 
   83500    252.88115   -310.44873   -247.72151   -310.44873            0    6028.3743    24.868869    24.952567    22.925347            0            0            0    14226.144    5638.0345    6826.2786    5620.8097   -542.81621     2293.304    275.99507 
   84000    260.59766   -309.47928   -244.83797   -309.47928            0    7195.5043     25.04087     24.86284    22.859276            0            0            0    14231.892    4433.3204    8544.0646    8609.1278    102.73791    1785.0928    647.16923 
   84500    254.61571   -311.30614   -248.14865   -311.30614            0    6472.1138    24.904222     24.91539    22.931624            0            0            0    14229.036    6217.7235    6829.2221    6369.3957    179.30448   -1661.9808    257.51942 
   85000    253.39115    -311.6367   -248.78297    -311.6367            0    7861.3214    24.728898    24.951454    23.032937            0            0            0    14211.828    10676.399    6765.0668    6142.4979   -715.46915   -364.30841   -437.99816 
   85500    259.96851   -310.69436   -246.20911   -310.69436            0    7529.8365     24.81665    24.825591     23.04073            0            0            0    14195.117    9218.5313    6441.5652    6929.4131    257.00895    839.37302    549.11303 
   86000    256.90423   -311.16557   -247.44042   -311.16557            0    6032.8515    25.015959    24.825632     22.96656            0            0            0    14263.083    3669.3993    7547.4033    6881.7519     612.1054   -537.30176    -355.5569 
   86500    252.90244    -312.0966    -249.3641    -312.0966            0    8187.7413    24.872884    24.903913    22.804718            0            0            0    14125.975    7097.6462    7442.7332    10022.844    213.45473    1694.0853    3186.1447 
   87000    259.65557   -313.73718   -249.32956   -313.73718            0    5960.3671    24.834883    24.999164    22.916194            0            0            0    14227.549    6990.5963    3538.4104    7352.0946    1591.4724    1354.9259     256.8569 
   87500     253.3677   -310.97057   -248.12266   -310.97057            0     7400.207    24.889155    24.777081    23.007728            0            0            0     14188.42    7243.2985    8309.1504    6648.1721   -474.92445    2327.7323    2633.2816 
   88000    263.39225   -311.61497   -246.28046   -311.61497            0    7000.7554    24.961525    24.823679    23.005722            0            0            0    14255.194    7626.3781    6131.7282    7244.1598    1548.1135   -1860.2683    -515.8149 
   88500    251.48164   -310.63622   -248.25615   -310.63622            0    4558.8149    24.861059    24.951603    22.918008            0            0            0    14216.574    5547.4047    5594.2502    2534.7899   -409.59356    778.54696    555.52458 
   89000    248.89499   -312.88412   -251.14566   -312.88412            0    7428.1256    24.866305    24.890881    22.888217            0            0            0     14166.53    6556.8769    9403.2823    6324.2177   -870.35203   -1853.8353   -495.18073 
   89500    248.13624   -313.39718   -251.84693   -313.39718            0    9367.9703    24.937619    24.856264    22.972546            0            0            0    14239.671    11035.798    9483.0903    7585.0231   -394.87394    1091.8979   -1022.5353 
   90000     251.5239   -314.08482   -251.69426   -314.08482            0    5817.9623    24.860574    24.789582    22.911541            0            0            0    14119.999    6698.0373    5685.5987     5070.251    -765.9509    1349.1931   -256.08098 
   90500    252.62281   -310.65029   -247.98715   -310.65029            0    8445.3417     24.97412    25.026561    22.892942            0            0            0    14308.463    5718.9424    10356.866    9260.2168   -96.073535    534.00942    2191.0886 
   91000    252.79807   -310.90553   -248.19892   -310.90553            0    8777.3775     24.87338    24.929166    22.826785            0            0            0    14154.264    9532.7265    7545.0465    9254.3596    866.51676   -821.71901    903.93133 
   91500    254.65428   -313.34465    -250.1776   -313.34465            0    7109.2233     24.87487    24.801284    23.053398            0            0            0    14222.303     6633.404    7313.6147    7380.6511    12.343914   -452.50952   -1599.7083 
   92000    252.17427   -310.59627   -248.04438   -310.59627            0    7063.2299    24.813137    24.799815    23.141274            0            0            0    14240.243    6065.1724      9039.88    6084.6372    -98.55439    1073.4529    35.713947 
   92500    254.27095   -311.30299   -248.23103   -311.30299            0    5851.6968    24.801034    24.938796    22.951019            0            0            0    14195.387    6738.0691    4110.3349    6706.6865    244.20555   -1885.5228   -2094.2932 
   93000    246.62945    -308.6949   -247.51842    -308.6949            0    7003.0855    24.992126    24.966653    22.795835            0            0            0    14223.911    5571.8587    6973.1691    8464.2287   -358.78144    1075.5882    1313.0289 
   93500    252.99873   -312.68496   -249.92857   -312.68496            0    7562.8574     24.95146     24.86272    22.865388            0            0            0    14184.799    7515.9719    6991.0844     8181.516   -197.71996   -1745.9287    118.60795 
   94000    253.34494   -312.24603   -249.40376   -312.24603            0    8973.8421    24.772252    24.795582    23.087274            0            0            0    14181.183    10733.815    8886.5732    7301.1381    -859.8716   -2146.6079    1288.2191 
   94500    254.48635   -312.94063   -249.81523   -312.94063            0    5938.9049    24.789251    24.895676    23.107422            0            0            0    14260.634    7215.1448    5811.9902    4789.5798    1177.8303    218.65844     1700.841 
   95000    252.00471   -312.74979   -250.23997   -312.74979            0    6954.4903     24.93633    24.834679    22.847723            0            0            0    14149.269    5357.8268    5831.2195    9674.4246    2044.8551   -567.42563    1701.1364 
   95500    254.88843   -311.70956   -248.48443   -311.70956            0    5878.8544    25.090137     24.85895    22.855985            0            0            0    14255.609    3910.4187    5403.7692    8322.3755    88.643831   -428.30433   -2945.8773 
   96000    255.92561   -312.38735   -248.90494   -312.38735            0     5228.454    24.866297    24.857489    22.944883            0            0            0    14182.547    7080.1327    4422.9856    4182.2435   -228.86801   -3392.9147   -838.69979 
   96500    250.89871   -311.20148     -248.966   -311.20148            0    7892.9415    24.843953    24.865639    23.045631            0            0            0    14236.687    5663.6587    8536.2366    9478.9292   -790.84957   -606.01385    246.20353 
   97000    256.79337   -312.00673   -248.30908   -312.00673            0    7431.6519    24.830412    24.883691    22.957978            0            0            0    14185.099    11152.459    5311.6843    5830.8127    1648.9709    -377.2332    546.80819 
   97500    250.70643   -310.76926   -248.58148   -310.76926            0    7470.2038    24.929438    24.898767    22.851036            0            0            0    14183.919    7560.9858    4770.2234    10079.402   -578.11877    430.02637   -1685.1029 
   98000    251.10726   -311.49218   -249.20496   -311.49218            0    7601.2613    24.918565    24.881828    22.948617            0            0            0    14228.589    5191.8094    8264.3088    9347.6657    696.24556   -700.12584   -264.65055 
   98500    249.34735   -312.43634   -250.58567   -312.43634            0    6507.1177    24.822276    24.815217    22.985914            0            0            0    14158.638    8387.8716    6008.1639    5125.3175   -597.86539    1510.9278   -499.79568 
   99000    251.73961   -310.82895   -248.38489   -310.82895            0    7019.8781     24.83152     24.92486     23.02129            0            0            0    14248.387    7379.0215    6300.4068    7380.2062    1956.0454    1173.2614   -819.57662 
   99500    265.58734   -310.87226   -244.99326   -310.87226            0    6281.6002    24.863884    24.861796    22.889288            0            0            0    14149.261    6620.3319    7346.7169    4877.7518   -1375.9867   -734.66505   -418.58785 
  100000    254.40298   -311.25056   -248.14585   -311.25056            0    5685.3835    25.064155     24.92617    22.917056            0            0            0    14317.508    5078.0369    3853.5783    8124.5354     2195.956    2603.7458    1695.1137 
  100500    251.72363    -310.2005    -247.7604    -310.2005            0    8773.4709    24.816246    24.820261    22.890685            0            0            0    14099.418    8118.3492    9084.1145    9117.9489    2322.2704   -954.64657   -586.10831 
  101000    252.78234   -311.86511   -249.16239   -311.86511            0    6557.9228     24.85313    24.943912    23.098786            0            0            0     14319.73    4366.8605    8837.1081    6469.7997   -76.886997    1132.2125   -304.44545 
  101500      256.666   -311.12643   -247.46037   -311.12643            0    10388.906    24.857306    24.836219     22.92815            0            0            0    14154.957    13009.992    9846.2131    8310.5126    1040.0023   -1080.4615   -41.828887 
  102000    260.28284    -312.0394   -247.47619    -312.0394            0       4839.7    25.007424    24.891933    22.815303            0            0            0    14202.141    6292.2351    3992.0121    4234.8527    826.40269   -174.43679   -1034.8182 
  102500    253.50679   -312.48085   -249.59844   -312.48085            0    5282.2633    24.954476    24.952153    22.875567            0            0            0    14243.881    6819.0044    2795.9634    6231.8223    1002.9411    930.08364    718.30777 
  103000     251.4475    -312.0699    -249.6983    -312.0699            0    9861.2024    24.764691    24.864302    22.926026            0            0            0    14116.855    9015.2488    10714.532    9853.8259   -231.68216   -2310.8305   -111.87146 
  103500    253.20009   -312.28138   -249.47504   -312.28138            0    6178.5239    24.893367    24.908097    23.016409            0            0            0    14271.242    5850.0706    3877.5973    8807.9038    -314.4163    1458.5945   -1195.1079 
  104000    256.81786   -311.52519   -247.82146   -311.52519            0    6795.2545    24.914828    24.824998    22.925119            0            0            0    14179.428    4389.2277    7197.5965    8798.9392    2402.5412   -1249.5328    -201.8175 
  104500    248.25918   -311.17791   -249.59716   -311.17791            0    7522.5443    24.934088     24.88624    22.952366            0            0            0    14242.303    7656.2457     10040.15    4871.2366    565.65305    1317.2743   -1122.2128 
  105000    255.56806   -309.70804   -246.31433   -309.70804            0    9447.1135    24.851422    24.942926    22.884193            0            0            0     14185.16    7289.0692    10304.685    10747.587    1370.1859    1502.2421     1724.776 
  105500    266.93109   -311.33368   -245.12136   -311.33368            0    6875.6753    24.879077    24.944745    22.927872            0            0            0    14229.089    7337.4497    5897.5554    7392.0207    122.76868    1462.1934    1545.7101 
  106000    257.63983   -311.46791   -247.56029   -311.46791            0    7195.2861    24.915986    24.868444    22.958994            0            0            0    14225.893      6883.47    8070.6208    6631.7674   -607.95498   -1675.1763   -2327.0229 
  106500     260.3364   -311.00141   -246.42491   -311.00141            0    8325.7476    24.832743    24.878052    22.966609            0            0            0    14188.548    9568.6913    6432.2196    8976.3321   -1009.8174   -669.73002    278.62408 
  107000    260.33671    -313.1572   -248.58062    -313.1572            0    5870.2449    24.840348     24.98931     22.98094            0            0            0    14265.261    5878.8936    5144.1544    6587.6866    409.88942   -3078.9046    399.76447 
  107500    261.84862   -310.77055   -245.81894   -310.77055            0    8637.2407    24.820881      24.8729    22.865482            0            0            0    14116.401    8936.2559       8037.8    8937.6663    476.00573     1934.288   -354.50928 
  108000    252.42566   -309.74644    -247.1322   -309.74644            0     4934.815    25.045173    24.856224    22.989585            0            0            0     14311.67    4318.1552    3851.4397    6634.8501    -297.3771   -932.53873   -1531.6735 
  108500    256.99337   -310.83112   -247.08385   -310.83112            0    7689.3128    24.841173    24.803922    22.952057            0            0            0    14142.106    12258.163    6375.6228     4434.153    466.10399   -1809.8464   -287.10997 
  109000    253.37898    -311.9078   -249.05709    -311.9078            0    5212.0044    24.814168    24.993006    22.962224            0            0            0    14240.727    7971.6137    2936.5108    4727.8888   -92.095644   -1901.8921    392.29442 
  109500    249.57818   -309.56719   -247.65927   -309.56719            0    7867.5942     24.84689    24.939935    22.939858            0            0            0    14215.367     7802.389    7402.4183    8397.9752    431.46801   -1305.6146    1135.1182 
  110000    255.11333   -310.96559   -247.68467   -310.96559            0    7877.5647    24.909277    24.745482    22.990686            0            0            0    14171.276    8426.2464    9648.5678      5557.88   -1445.9934    220.18171   -1388.6196 
  110500    251.06548   -312.63408   -250.35723   -312.63408            0     5884.965    24.910348    24.823618    23.008666            0            0            0    14227.753    6512.3056    5451.5092    5691.0801    325.58515    461.29719    294.12407 
  111000    255.44572   -311.73225   -248.36888   -311.73225            0    8208.3675    24.799774    24.958913    22.862551            0            0            0    14151.357     8536.047    6503.7842    9585.2712    321.16374    469.23877    1694.4179 
  111500    257.62638   -312.30002   -248.39574   -312.30002            0    7885.2373    24.931019    25.006713    22.899631            0            0            0    14276.611    9685.7207     6705.633    7264.3582   -813.16614    956.56115   -1685.5909 
  112000    252.15255   -311.87505   -249.32855   -311.87505            0    6650.1898    24.895438    24.741093    22.909389            0            0            0    14110.817    5463.4333     8982.623    5504.5131   -586.29146   -2156.2203    2297.0687 
  112500    249.17931   -311.88828   -250.07929   -311.88828            0    7661.7052    24.971158    24.823076     23.00695            0            0            0    14261.111    9895.3208    6053.3511    7036.4437   -394.71189   -1726.8179   -1464.4472 
  113000    251.43954   -310.69403    -248.3244   -310.69403            0    9548.0359     24.77353    24.908033    22.915801            0            0            0    14140.422     9831.659    10314.702    8497.7466   -841.69341    1158.0559    2561.7808 
  113500    256.11604   -311.15343   -247.62379   -311.15343            0    4596.4805    24.897014     24.99968    22.956729            0            0            0    14288.667    4565.0384    5971.3357    3253.0674   -186.65255    1105.2622   -905.32656 
  114000    249.93298   -310.62068   -248.62475   -310.62068            0    8263.3449    24.895879    24.784571    22.898971            0            0            0    14129.437    7804.3746    8802.4894    8183.1707    307.47519    2750.4481    794.74907 
  114500    257.72219   -310.88495    -246.9569   -310.88495            0    6138.9033    24.995652    24.877608    23.017713            0            0            0    14313.152    4503.8315    7349.7369    6563.1415   -555.47885    910.09159   -298.44153 
  115000    262.93304   -310.84448   -245.62388   -310.84448            0    5737.3656      24.8442    24.968028    22.916804            0            0            0    14215.538    8268.7126      3865.77    5077.6142    2242.6618   -914.11348   -892.60898 
  115500     253.6724   -311.09448   -248.17099   -311.09448            0    8337.1209    24.861173    24.934711    22.860056            0            0            0     14171.09     8131.305    8349.1976    8530.8602   -899.99625   -1112.1918   -296.76411 
  116000     254.4513   -314.57781   -251.46111   -314.57781            0    6860.6203    24.948092    24.892436    22.951515            0            0            0    14253.322    6970.5413    7468.9313    6142.3884    556.67752   -1416.6862    1293.2104 
  116500    259.43396   -311.71062   -247.35797   -311.71062            0    7003.5223    24.849338     24.82633    22.935267            0            0            0    14149.176    6891.0069    8143.0814    5976.4786   -760.89016   -570.59807     734.3777 
  117000    254.21683   -313.66406   -250.60552   -313.66406            0    6831.3354    24.878811    24.914674    22.990416            0            0            0    14250.551    6886.0424    5249.5277    8358.4361   -760.72911    1221.4123    67.671883 
  117500    249.52052   -312.41049   -250.51687   -312.41049            0    9553.4911     24.87971    24.853716    22.887462            0            0            0    14152.537     9151.523    9883.3655    9625.5847     153.4894   -1325.4785     283.4503 
  118000    247.60377   -312.30741   -250.88924   -312.30741            0    8443.4545    24.953034     24.86669    22.913612            0            0            0    14217.882     4827.198    11370.761    9132.4042   -30.725942    2410.6495   -1134.2802 
  118500    255.64009   -311.51063   -248.09905   -311.51063            0    6494.6475    24.864025    24.880536    22.975871            0            0            0     14213.57    7641.6358    7697.4523    4144.8544   -971.52298    3075.6982    1270.5355 
  119000    250.89004   -310.49262   -248.25929   -310.49262            0     9346.966    24.852305    24.844479     22.97156            0            0            0    14183.619     8974.374    10424.523    8642.0009    -46.77274   -1680.7633    3208.0894 
  119500    251.33188   -310.29236   -247.94943   -310.29236            0    7566.0777    25.046511    24.869363    22.896423            0            0            0    14261.971    6404.0212    8017.0175    8277.1944    1019.9156    1210.3547     1824.979 
  120000    256.19828   -310.14398   -246.59394   -310.14398            0    5880.6324    24.901225     24.89667    22.846546            0            0            0     14163.89     7792.057    4839.0335    5010.8066    348.15511    1439.5461    443.06919 
  120500    256.15654   -311.92289    -248.3832   -311.92289            0    6678.9352    24.760712    24.959872    23.027494            0            0            0    14231.549     7161.242     7599.905    5275.6586    -710.1576   -2033.8425   -1854.0498 
  121000    251.57111   -311.03325   -248.63098   -311.03325            0    6540.8929    24.793594    24.841745    23.112158            0            0            0    14235.152    5491.5205    9644.8593    4486.2989    1434.1684   -1217.2798    -979.7603 
  121500    245.12027   -310.12936   -249.32722   -310.12936            0    9557.3834    24.986486    24.779264    22.886999            0            0            0     14170.41    12390.536     7810.641    8470.9729   -774.07783    520.91175    -408.7884 
  122000    247.88188   -309.50581   -248.01866   -309.50581            0    8121.6306     25.03969     24.93516    22.746677            0            0            0    14202.313    7623.6847    12130.945    4610.2617   -1027.8218    312.34507    1541.0974 
  122500    255.58177   -309.88201   -246.48489   -309.88201            0    8148.1206    24.793134    25.004228     22.88845            0            0            0     14189.31    11126.797    3906.1081    9411.4571   -877.95727   -126.00285   -2323.1359 
  123000    253.97505    -312.4253   -249.42674    -312.4253            0    6071.7466    24.746367    24.894227    23.109977            0            0            0    14236.709    6509.2409    5259.8819     6446.117    551.14228   -24.712948    2215.1055 
  123500    256.17516   -311.96931   -248.42501   -311.96931            0    8493.0095    24.886923    24.741043     23.02364            0            0            0     14176.31    6885.2571    10202.662    8391.1092    1070.5789    424.85983    686.07415 
  124000    251.55533   -310.30212   -247.90377   -310.30212            0    8680.9715    24.996044    24.886118    22.871538            0            0            0    14227.343    9190.0286    7250.7383    9602.1477    390.34067   -2037.1591   -553.66482 
  124500    257.38504   -309.99408   -246.14966   -309.99408            0    5261.0502    24.913928    24.950379    22.784991            0            0            0    14163.423    4889.4875    5748.4067    5145.2564   -451.64164    1167.5578    507.77521 
  125000    265.13831   -310.37548   -244.60787   -310.37548            0    4965.2254    24.880564     24.91564    22.987459            0            0            0    14250.275    6256.4316    5377.8481    3261.3965    1448.0839    985.01159    -1295.989 
  125500    256.47109   -310.34151    -246.7238   -310.34151            0    9893.2887    24.820832    24.821951     23.06043            0            0            0    14207.565     8931.675    10871.183     9877.008    1055.1031    3295.8239    735.97124 
  126000    255.41776   -309.65763   -246.30119   -309.65763            0    9546.0898    24.867608    24.835863    22.982783            0            0            0    14194.362    9657.8686    9541.0137    9439.3873   -323.77447   -282.70752   -1150.5645 
  126500    248.03878   -310.69486   -249.16878   -310.69486            0    7941.4488    24.942211    24.958831     22.81015            0            0            0    14199.967    10459.882    5727.4306    7637.0341   -70.158006    320.16567   -745.98145 
  127000    256.72072   -311.90369   -248.22406   -311.90369            0      9738.22    24.857177    24.970106    22.848255            0            0            0      14181.6    10185.257    8731.5426     10297.86   -267.83919    518.79786   -544.25769 
  127500     253.8981   -311.47115   -248.49167   -311.47115            0    4437.9009    24.873976    24.876972    23.045956            0            0            0    14260.589     2869.101    5986.4005    4458.2012    76.736016   -703.84532    313.96756 
  128000    256.59358   -311.86708   -248.21899   -311.86708            0    8149.6435    24.823968    24.713641    22.989405            0            0            0    14103.784    10228.487     8782.425    5438.0188    -1170.073   -284.66482    356.23913 
  128500    263.56629   -313.87868     -248.501   -313.87868            0    6792.2354    25.034931    25.001038    22.900854            0            0            0    14333.627    6505.6949    4926.8177    8944.1935   -1239.9448    1164.1838    2445.6595 
  129000    254.97351    -309.7898   -246.54356    -309.7898            0     5742.336    24.828194     24.98943    22.621353            0            0            0    14035.247    6677.1108    5574.2659    4975.6313   -1419.1187   -405.82032   -1558.2386 
  129500    251.52675   -309.73848   -247.34721   -309.73848            0    8060.0389    24.920137    24.949033    22.979224            0            0            0    14286.949    9359.4786    4834.0356    9986.6024    -1960.551   -315.74167    2318.2901 
  130000    257.35665   -312.33634   -248.49896   -312.33634            0    5946.3895    24.861396    24.710801    23.074238            0            0            0    14175.543    5249.5104    8726.6052    3863.0529    23.480449   -1134.8623    1084.2091 
  130500    247.15362    -308.9295   -247.62299    -308.9295            0    9182.6169    24.883959    24.819489    22.979308            0            0            0    14192.185    6464.8961    11269.604    9813.3504    920.68073   -1335.6394   -324.77195 
  131000    250.97924   -313.19742   -250.94197   -313.19742            0    7104.7804    24.881728    24.954806     22.88674            0            0            0    14210.804    7639.7138    7787.9723     5886.655    46.484748   -1106.4176    447.51018 
  131500    243.90619   -311.70284   -251.20185   -311.70284            0    6018.3239    24.846711    24.852447    22.880441            0            0            0    14128.708    4011.2036    6407.4281    7636.3401   -1339.8584   -966.88915    1832.6484 
  132000    253.45185   -312.78435   -249.91556   -312.78435            0    5710.5113    24.951029    24.817635    23.002316            0            0            0    14243.621    7373.6058    7788.4675    1969.4607    1801.6194   -791.05664    2186.1903 
  132500    259.19384   -310.59891   -246.30582   -310.59891            0    5231.5715    24.857047    24.828417    22.952696            0            0            0    14165.512    4890.1387    7134.4158      3670.16    1239.8978    35.387935   -1975.5964 
  133000    259.78253   -310.73054   -246.29143   -310.73054            0    6993.0992    24.862608    25.039789    22.940231            0            0            0    14281.543      6638.83    4070.7978     10269.67   -908.53797   -186.11523     796.1846 
  133500    258.57615    -312.7805   -248.64063    -312.7805            0    8617.3959    24.876687    24.864605    22.895333            0            0            0    14161.885    10082.092    7344.5675    8425.5281    11.315635   -1526.9259    4348.0859 
  134000    253.53077   -313.09081   -250.20244   -313.09081            0    6842.1776    24.937445    24.757895     22.98938            0            0            0    14193.612    3903.3806    11211.576    5411.5763   -1201.6111    839.41807    326.13847 
  134500    265.49752   -312.86152   -247.00481   -312.86152            0    5703.5161     24.86374    24.815598    22.963714            0            0            0    14168.809    7969.8836    5188.4739     3952.191   -353.31959    6.1329226    1374.9793 
  135000    247.51946   -312.98786   -251.59061   -312.98786            0     6890.443     24.80194    24.985592    22.881235            0            0            0    14179.299    8046.6657     7395.959    5228.7044    57.860527    1170.7436     1144.455 
  135500    251.15138   -311.00819   -248.71004   -311.00819            0    6786.5083    24.885178    24.985168    22.829936            0            0            0    14194.749    6132.4508    4320.3371     9906.737   -237.34124    330.07054   -1233.4949 
  136000    251.25032   -310.80812   -248.48543   -310.80812            0    7349.2269    24.977118    24.745553    22.909235            0            0            0     14159.57     7028.309    7868.1919    7151.1797   -683.21698    247.29831   -507.60767 
  136500    251.78072   -310.77292   -248.31866   -310.77292            0     6310.993    24.875766    24.792731    23.046957            0            0            0    14213.938    5935.4734    6726.3338    6271.1718    312.03973    103.74307    1393.5002 
  137000     252.7428   -310.03805   -247.34514   -310.03805            0     8206.132    24.688902    25.005913    22.959713            0            0            0    14174.605    8818.6098    5813.8501     9985.936   -253.80055   -854.25603   -214.82193 
  137500      258.682   -309.95544   -245.78931   -309.95544            0    5069.6153    24.894645    24.963543    22.854833            0            0            0    14203.332    6001.8524    3187.6625     6019.331    229.11017   -577.35922    2004.4853 
  138000    259.41057   -311.17918   -246.83233   -311.17918            0    6992.5096    25.047605    24.796453    22.851993            0            0            0    14193.185    4826.5902    9452.8925    6698.0462     2411.292    2996.2243   -1028.3857 
  138500    254.71092   -311.62415   -248.44305   -311.62415            0    9004.8877    24.892446    24.806985    22.970367            0            0            0    14184.352    8300.5695    10577.404    8136.6897    1493.0985   -3209.2472    3126.4734 
  139000    245.80172    -313.5232   -252.55203    -313.5232            0    4871.7661    24.692173    24.931287    23.024577            0            0            0    14174.106    6168.8826    5048.5673    3397.8484    1790.5948    1373.9975   -2522.7908 
  139500    261.11184   -313.52136   -248.75251   -313.52136            0    6885.3404    24.856778    24.886749    22.918694            0            0            0    14177.605    7748.5086     8109.504    4798.0087    588.72532   -853.46358    124.52808 
  140000    262.89533   -311.87598   -246.66473   -311.87598            0    4331.9292    25.090817    24.859887     22.85559            0            0            0    14256.285    2710.8943    6599.2382     3685.655    759.91826    646.39211   -6.6500089 
  140500    253.46097   -308.36564   -245.49459   -308.36564            0    8899.9773    24.851523    24.828907    22.884829            0            0            0    14120.767    8502.6616    8068.1822    10129.088    1108.1215    -143.9003    1704.5127 
  141000    247.20696   -310.14578   -248.82604   -310.14578            0    5837.0908    24.828369    24.926385    23.063072            0            0            0    14273.308    6694.6004    5959.3031    4857.3691    1835.4031    92.215385   -2268.9181 
  141500    254.20231   -311.64136   -248.58642   -311.64136            0     11087.33    24.790184    24.799398    22.946447            0            0            0    14107.054    12075.523    9374.6144    11811.852   -1698.9135    -287.2035    829.51425 
  142000    265.37029   -314.31136    -248.4862   -314.31136            0     6320.091    24.982591    24.860992    22.949089            0            0            0    14253.496    5541.6518    7431.6828    5986.9383    36.406397   -2882.1217   -903.39876 
  142500    248.87626   -307.76729   -246.03348   -307.76729            0    8329.1639    24.879962    24.914044    22.883898            0            0            0    14184.824    8402.8187    7577.6417    9007.0313    776.80453    2302.4605   -255.70717 
  143000    253.56231    -310.8189   -247.92271    -310.8189            0    6316.0731    24.821605    24.933846    22.980226            0            0            0    14222.418     8836.086    3328.6621    6783.4712    899.05048    192.17697   -590.94869 
  143500    248.64581   -308.43545    -246.7588   -308.43545            0    5837.2807    24.892673    24.814692    23.028885            0            0            0    14225.035    5679.6037    7535.9659    4296.2724   -34.470635    487.95073    2311.0924 
  144000    257.62586   -311.45089   -247.54674   -311.45089            0    8671.6628    24.879132    24.889817      22.9134            0            0            0    14188.826    8232.5177    10566.869    7215.6014   -1639.3833   -818.06247   -1198.5614 
  144500    256.38286   -310.69304   -247.09721   -310.69304            0    7864.2011    24.895221    24.985824    22.874919            0            0            0    14228.831    9132.7624    6563.3735    7896.4674   -1085.3799    1210.7252   -458.96915 
  145000    258.04974   -311.68465   -247.67536   -311.68465            0    8036.7877    24.899957    24.849805    22.972021            0            0            0    14214.146    8416.8132    6941.5462    8752.0036   -1102.3937    1245.7548   -349.67365 
  145500    253.72511   -311.11378   -248.17721   -311.11378            0     7868.148    24.881816    24.736345    23.047066            0            0            0    14185.128    5708.1909     8943.039     8953.214   -818.13424   -57.133092   -283.94077 
  146000    253.76589   -311.86876   -248.92208   -311.86876            0    6907.0338    24.844039    24.912179    23.011489            0            0            0    14242.251    7331.0922    5050.7556    8339.2534   -838.77174    1147.8718    792.47049 
  146500    252.80508   -311.78821   -249.07986   -311.78821            0    8386.7322    24.802596    24.982048    22.794941            0            0            0    14124.193     8293.984    7672.3045    9193.9082    505.57639   -350.21655   -1342.9432 
[...]
  365000    257.89563   -310.89321   -246.92214   -310.89321            0    8183.6575    24.902158     24.96591    22.768277            0            0            0    14155.152    5173.6991    7518.9264    11858.347    757.30732    489.42495    300.38099 
  365500    257.57056   -311.15192   -247.26149   -311.15192            0    6097.9686    25.032962    24.813432    22.925618            0            0            0    14240.333    3478.6182    8168.6046    6646.6829   -443.94973   -622.80608   -26.570718 
  366000     261.1487   -310.83108   -246.05309   -310.83108            0    10183.831    24.785325    24.757339    23.066881            0            0            0    14154.269    9322.8355    12577.707    8650.9519   -263.73397   -1144.3259    1061.2628 
  366500    256.21228   -311.42901   -247.87549   -311.42901            0    3410.7207    24.745587    24.992593    23.098327            0            0            0    14285.308     5841.555    2070.5723    2320.0348   -1722.9183    188.92844    1666.2424 
  367000    251.12797   -311.27191   -248.97956   -311.27191            0    5049.0747    24.886066    24.918373     22.78962            0            0            0    14132.305    3238.2497    6090.8706    5818.1037    3911.7339     -447.372     497.3943 
  367500    255.97152   -311.67802   -248.18423   -311.67802            0    7853.4562    25.048021    24.860689    22.819794            0            0            0    14210.138    8966.5594    6514.1705    8079.6387    628.39349    779.82742    1222.5658 
  368000    261.43238   -311.85317   -247.00481   -311.85317            0    6713.2359    24.868362    24.839935     22.97198            0            0            0    14190.447    5829.9359    8685.1899    5624.5821    -1092.147    1754.0802   -800.03515 
  368500    253.37638     -311.918   -249.06794     -311.918            0    8327.2042    24.806264    24.898509    22.982573            0            0            0    14194.933    10168.112    5524.4247    9289.0761    1013.5583    971.50099   -207.46623 
  369000     260.1914   -312.09883   -247.55829   -312.09883            0    6881.6078    24.909459    24.893324    22.884765            0            0            0    14190.367    7442.0815    8095.9378     5106.804    519.52679    371.09361   -1907.1399 
  369500    256.51886   -310.40789   -246.77833   -310.40789            0    7513.0499    24.986138     24.87641    22.876574            0            0            0    14219.287    8012.0136    8337.2868    6189.8493    449.25171   -148.66561   -1053.3797 
  370000    265.19261   -312.87242   -247.09134   -312.87242            0    9590.0091      24.8334    24.885829    22.969499            0            0            0    14195.144    8700.5164    12449.924     7619.587    566.97521    977.41649   -53.638597 
  370500    243.81081   -310.92039   -250.44307   -310.92039            0    4474.9832    24.781789    24.862162    23.018422            0            0            0    14182.314    4559.4649     3147.762    5717.7228   -641.74849   -960.17917   -575.79026 
  371000    243.90291    -311.5064   -251.00623    -311.5064            0    8223.5034    24.963626    24.828096    22.902678            0            0            0    14195.064    7762.5156    9914.1009    6993.8936   -623.88653    75.082998   -957.73219 
  371500    264.97158    -314.7981   -249.07184    -314.7981            0    7080.2387    25.049213    24.852758    22.755185            0            0            0    14166.059    6401.5973    6365.9356     8473.183   -342.62035   -1229.5489   -368.67403 
  372000     258.2124   -311.50189   -247.45225   -311.50189            0    6999.4254    24.846592    24.942037    22.917627            0            0            0    14202.618    5865.2944    7358.0484    7774.9333     664.3239    988.13428    1873.3616 
  372500    248.58944   -311.41848   -249.75581   -311.41848            0    8207.9314    24.665585    24.821554    23.177864            0            0            0    14190.373    8309.9732     9065.527     7248.294    -261.3117    747.80985   -708.88907 
  373000    242.37161   -313.76915   -253.64882   -313.76915            0    5667.0207    24.873151    24.701469     23.02352            0            0            0    14145.729    6029.0297    4636.4909    6335.5414    402.60115   -502.49311    662.64922 
  373500    257.03801   -311.81682   -248.05849   -311.81682            0    7100.5662    25.023402    24.881471    22.793488            0            0            0     14191.66     7464.823     8833.958    5002.9177   -1699.4646   -372.09502    1141.1129 
  374000    252.66207   -310.76325   -248.09037   -310.76325            0    5977.9789     24.89194    25.013564     22.77396            0            0            0     14179.89    4430.8208    5385.3955    8117.7203    1441.0719    2352.6195   -1227.3089 
  374500    261.45805   -310.35106   -245.49633   -310.35106            0     6970.742     24.83858    24.912403    22.988181            0            0            0    14224.827     6935.893    5968.3464    8007.9867   -615.15609   -1059.3459   -1217.0662 
  375000     262.0332   -311.81481   -246.81741   -311.81481            0    7986.5653    24.861182     24.74959      23.0475            0            0            0     14181.22    6796.3835    11147.807    6015.5049   -716.16004    1329.2312   -2081.9945 
  375500    258.95279   -312.34638   -248.11308   -312.34638            0    5553.0558    24.908649    24.850587    22.936991            0            0            0    14197.872    5699.8198    5053.6839    5905.6636    607.09678   -140.72679     1708.301 
  376000    258.41251   -310.60896   -246.50968   -310.60896            0    6415.5467    24.850373    24.976467    22.814905            0            0            0     14160.63    7655.5289    4999.1729    6591.9384    -904.7854     1526.155    854.23775 
  376500    257.04701   -311.91281   -248.15224   -311.91281            0    7140.1513    24.881521    24.945733    22.898957            0            0            0    14213.103    6542.8018    7724.5766    7153.0754   -638.31159   -924.69361   -78.632979 
  377000     249.4506   -312.51383   -250.63755   -312.51383            0    8337.7855     24.84401    24.755038     22.99537            0            0            0    14142.484    10880.115      8325.61    5807.6314     2338.556    -1576.699    2212.8436 
  377500    248.12344   -312.58233   -251.03526   -312.58233            0    6382.4295    24.875948    24.775252    23.049673            0            0            0    14205.695    5706.7479    2908.0692    10532.471   -359.12582   -56.214347    36.144307 
  378000    256.87392   -312.02662   -248.30899   -312.02662            0    9585.7763    24.794866     24.94916    22.891573            0            0            0    14160.981    10482.793    8167.7645    10106.771   -237.82744   -2999.5688     838.8946 
  378500    258.04605   -312.87398    -248.8656   -312.87398            0     6411.124    24.838767    24.984637    22.831906            0            0            0    14169.197    5841.4602    5699.5463    7692.3656    1314.9989   -554.39475    2476.7987 
  379000    256.67029   -312.53611   -248.86899   -312.53611            0    5920.3181    24.922158    24.807472    22.963515            0            0            0    14197.325    3787.2859    6236.6082    7737.0603    242.18021    837.34763    -1174.332 
  379500    249.50046   -312.43706   -250.54842   -312.43706            0    5774.9512    24.838293    24.721916    23.064668            0            0            0    14162.864    7212.3472    6427.6897    3684.8167    1884.8231    517.29814   -392.23896 
  380000    248.92882   -314.18741   -252.44056   -314.18741            0    5962.2888     24.82696    24.893419    22.975853            0            0            0    14199.719    4153.6442    6599.9122      7133.31    421.55734    -8.000221    1474.5196 
  380500    250.05878   -310.23066   -248.20352   -310.23066            0    7281.7704     24.90367    25.000927      22.7252            0            0            0    14149.047    7479.8208    7601.7548    6763.7357   -855.26947   -2997.5949     2828.665 
  381000    251.91588   -310.68349    -248.1957   -310.68349            0    7259.3401    25.029131    24.884764     22.79814            0            0            0    14199.685    7098.5021    7364.2908    7315.2274   -291.77622    1874.4869    161.05998 
  381500    264.68658   -310.61145   -244.95589   -310.61145            0    6352.2337    24.923537    24.722596    23.060462            0            0            0     14209.27    6919.6763    8036.8679    4100.1569     2128.857    683.25916    261.77355 
  382000    254.65725   -310.87445   -247.70666   -310.87445            0    8049.2147    24.755714    24.810067    23.091819            0            0            0    14182.785    9982.2952    6851.6275    7313.7212    1033.4139    688.85222    556.05619 
  382500    254.19656   -308.42713   -245.37362   -308.42713            0    8268.2207    24.872469    24.950405    22.887045            0            0            0    14203.201    7245.1605    7876.5434     9682.958   -291.30382    -1047.153    970.46377 
  383000    258.87257   -309.05938   -244.84598   -309.05938            0    6584.9014    25.032943    24.905766    22.760691            0            0            0    14190.486    4234.9628    5265.0881    10254.653    -2213.326   -1226.9367   -134.80576 
  383500    259.18499   -309.52133   -245.23043   -309.52133            0    9971.6766    24.915005    24.859826    22.917383            0            0            0     14194.63    12489.162    7806.3907     9619.477    2726.0779   -623.90623    255.52095 
  384000    246.96415   -311.76115   -250.50164   -311.76115            0    8532.6936    24.777128    24.889831    23.053969            0            0            0    14217.348     11394.29    6989.6108    7214.1802    888.40272    -1378.276   -925.60587 
  384500    251.15313   -312.11245   -249.81386   -312.11245            0    7161.4944    24.775161    24.815353    22.974281            0            0            0    14124.689    8055.1701    6125.7548    7303.5582   -4.4892458     890.7829    2007.8459 
  385000    248.20591   -312.49379   -250.92626   -312.49379            0    5669.4163    24.960475     24.90572    22.925986            0            0            0    14252.136    4799.5063    6364.1063    5844.6364    1918.7601   -4213.8796   -1307.6893 
  385500    251.50413   -311.64228   -249.25663   -311.64228            0    8307.8744    24.882079    24.881838    22.796883            0            0            0    14113.821    8078.9389    7752.3344    9092.3499     283.0014   -302.19736   -694.52744 
  386000    260.43598   -311.70666   -247.10546   -311.70666            0    5268.9332    24.922492    24.921878    22.971837            0            0            0     14268.16    4760.9215    6394.1607    4651.7176    296.68971   -610.27275    1152.7666 
  386500    254.98474   -310.65159   -247.40257   -310.65159            0    8174.8323     24.86734     24.81037    23.002225            0            0            0    14191.634    8306.7659    8165.2493    8052.4817   -1882.5136     436.1923   -2519.3394 
  387000    255.87006   -311.82842   -248.35979   -311.82842            0     7167.143    24.884713    24.811685     22.99676            0            0            0    14198.927    7950.7754    7395.3667    6155.2869    1456.8653    -965.9136    1840.4564 
  387500    252.89044   -312.12115   -249.39162   -312.12115            0    7126.9949    24.888803    24.876691    22.917218            0            0            0     14189.22    4523.2244    9861.0721    6996.6881   -936.21256    1853.9741   -1212.0195 
  388000    255.04006    -314.1057   -250.84296    -314.1057            0      6610.53    24.920909    24.911613     22.84233            0            0            0    14180.976    5954.7055    4966.4096     8910.475      1145.03    709.42077    939.51283 
  388500    252.75351   -314.50191   -251.80635   -314.50191            0    9403.4867    24.919856    24.900192    22.826588            0            0            0    14164.108    8365.7934    9978.6836     9865.983   -29.557267    2321.9424   -1372.2056 
  389000     250.2658   -313.11697   -251.03848   -313.11697            0    7169.0389    24.911402    24.808417    22.958682            0            0            0    14188.752    7974.6526    7298.2127    6234.2514   -1721.9228   -229.16673    1244.8245 
  389500    248.72318   -313.77458   -252.07874   -313.77458            0    8319.8072    24.914562    24.762734    23.013025            0            0            0    14197.947    8421.8594    8716.9445    7820.6177    1254.4688   -975.32258    252.73753 
  390000     239.0555   -312.41008   -253.11231   -312.41008            0    7008.7687    24.823006    24.849656    22.890219            0            0            0    14119.675    7128.1341    8652.5589    5245.6132    19.465756    932.45579     3638.566 
  390500    254.45478    -311.3661   -248.24854    -311.3661            0    4292.1608    24.906023    25.031468    22.870354            0            0            0    14258.163    4529.7184    5449.5449    2897.2189    872.12673   -428.14888   -1862.0569 
  391000    255.61245   -310.40709   -247.00236   -310.40709            0    7100.9937    24.847814    24.886679    22.859856            0            0            0    14136.067    6480.3074    9462.2382    5360.4354   -762.50573   -29.425356     1509.491 
  391500    252.73644   -310.54075   -247.84942   -310.54075            0     6469.731    24.963632    24.785676     23.06911            0            0            0    14273.793    5055.4387    8419.1274    5934.6271    1000.9449    749.56801   -267.73071 
  392000    251.11589   -311.83555    -249.5462   -311.83555            0    7457.9323    24.808526    24.815116    23.032375            0            0            0    14179.339    6656.2525    9421.3276    6296.2169    496.17115    1689.5536   -1212.3389 
  392500    252.01688   -310.67022   -248.15737   -310.67022            0      7471.34    24.760077    24.934272    22.877422            0            0            0    14123.937    7927.1779    6156.8234    8330.0185   -2599.5034     1323.979   -1063.3744 
  393000    248.74505   -309.66877    -247.9675   -309.66877            0    6125.1633    24.986421    24.975637    22.925967            0            0            0     14306.99    5882.3585    8204.1335    4288.9979    69.293214    2016.1464   -78.334998 
  393500    256.55852   -311.57348   -247.93408   -311.57348            0    8646.5131    24.907665     24.74162     22.89366            0            0            0    14108.355    8367.2063    9253.2305    8319.1026   -377.63671    272.96766    2733.9763 
  394000    251.40771   -312.42417   -250.06243   -312.42417            0    7860.3149     24.88179    24.923519    23.029849            0            0            0    14281.771    5464.9789    10908.331    7207.6346   -1413.3985    125.62774    265.24789 
  394500     262.8568   -312.66034   -247.45865   -312.66034            0    7599.5097    24.751304    24.944513     22.89308            0            0            0    14134.399    7445.9885    5513.8511    9838.6895   -1518.2518    1252.5129    2296.6669 
  395000    244.93202   -310.02423   -249.26879   -310.02423            0    6078.2432    24.961747    24.864068    22.935765            0            0            0    14235.096    7379.2255    5001.0819    5854.4223   -212.10743    643.20876    -1140.217 
  395500    253.33332   -312.55867   -249.71929   -312.55867            0    6782.6771    25.006274    24.746397    22.919184            0            0            0     14182.74    4791.0469    7805.5206    7751.4639   -2612.5051    2272.5932   -314.04879 
  396000     252.4221   -313.03419   -250.42083   -313.03419            0    6813.2697    24.835703    24.882614    22.931183            0            0            0    14170.948    6591.5355    8938.5922    4909.6813    337.12247   -182.14712   -128.34155 
  396500    258.23628    -310.2553   -246.19973    -310.2553            0    4660.3456    24.774918    24.964434    22.965713            0            0            0    14204.105    6553.1766    3305.8314    4122.0288   -296.66559   -1547.1231    1606.4515 
  397000    246.75692   -311.33546   -250.12735   -311.33546            0    8112.8262     24.89358    24.788361    22.947071            0            0            0    14159.973    10255.099    7715.4497    6367.9296   -2177.4357   -2772.6432   -1596.0741 
  397500    253.52501   -310.50635   -247.61941   -310.50635            0    6396.8749    24.925395    24.854276     22.99502            0            0            0    14245.476    9128.6332    3952.3352    6109.6564   -760.81244    127.81077    1961.4042 
  398000    254.09991   -311.75611   -248.72657   -311.75611            0    6740.5513    24.771729    24.946904    22.902174            0            0            0    14153.038    4649.3793    8509.2656    7063.0091   -1321.8319   -196.29863   -758.34377 
  398500    246.82113   -310.39635   -249.17231   -310.39635            0    8738.5926    24.892176    24.959747    22.893356            0            0            0    14223.698    8793.8671    7236.8037    10185.107    160.01698   -714.96331   0.87687601 
  399000    251.15977   -313.16567   -250.86544   -313.16567            0    7907.2294    24.951775    24.737122    22.907608            0            0            0     14139.38    8574.2247    8275.9124    6871.5511    1209.2557    1260.4762   -59.620606 
  399500    247.90536   -312.57503   -251.08205   -312.57503            0    9690.4494    24.905506    24.741166    23.070262            0            0            0    14215.694    7383.5054    10804.835    10883.008    1340.5564    118.48074    1006.4778 
  400000    250.63598   -312.85805   -250.68774   -312.85805            0    8991.6416    24.679513    24.944399    23.029404            0            0            0    14177.261    12780.285    7505.6129    6689.0267    1160.8144     549.7325     730.0754 
Loop time of 4392.94 on 1 procs for 400000 steps with 1920 atoms

Performance: 3.934 ns/day, 6.101 hours/ns, 91.055 timesteps/s
64.1% CPU use with 1 MPI tasks x 1 OpenMP threads

MPI task timing breakdown:
Section |  min time  |  avg time  |  max time  |%varavg| %total
---------------------------------------------------------------
Pair    | 3764.7     | 3764.7     | 3764.7     |   0.0 | 85.70
Bond    | 0.060908   | 0.060908   | 0.060908   |   0.0 |  0.00
Neigh   | 578.64     | 578.64     | 578.64     |   0.0 | 13.17
Comm    | 15.745     | 15.745     | 15.745     |   0.0 |  0.36
Output  | 2.8217     | 2.8217     | 2.8217     |   0.0 |  0.06
Modify  | 28.686     | 28.686     | 28.686     |   0.0 |  0.65
Other   |            | 2.294      |            |       |  0.05

Nlocal:        1920.00 ave        1920 max        1920 min
Histogram: 1 0 0 0 0 0 0 0 0 0
Nghost:        7224.00 ave        7224 max        7224 min
Histogram: 1 0 0 0 0 0 0 0 0 0
Neighs:         0.00000 ave           0 max           0 min
Histogram: 1 0 0 0 0 0 0 0 0 0
FullNghs:      546458.0 ave      546458 max      546458 min
Histogram: 1 0 0 0 0 0 0 0 0 0

Total # of neighbors = 546458
Ave neighs/atom = 284.61354
Ave special neighs/atom = 0.0000000
Neighbor list builds = 40000
Dangerous builds not checked

unfix		3
unfix		2

write_data	data.final.${pid}
write_data	data.final.0
System init for write_data ...

write_restart   restart.lmp.${pid}
write_restart   restart.lmp.0
System init for write_restart ...
Total wall time: 1:13:16
