LAMMPS data file via write_data, version 29 Sep 2021, timestep = 2000000

864 atoms
2 atom types

0.3098537576250955 17.89771924237344 xlo xhi
0.3649667816366513 21.081148218365506 ylo yhi
0.3780208515133676 21.835175148486524 zlo zhi

Masses

1 1.008
2 15.999

Atoms # full

230 0 2 0.5897 2.1836922731333277 3.285107601036488 1.6703913172380735 1 0 0
231 0 2 0.5897 1.666714354600225 1.871494881482746 1.8000557653886078 1 0 0
229 0 1 -1.1794 2.082531374472924 2.4567243496554534 1.2081279724024445 1 0 0
122 0 2 0.5897 3.7564102577465355 2.0481358940514096 1.0726018791291567 0 0 0
763 0 1 -1.1794 0.6720505725871264 0.6246462639770922 2.672868289444099 1 1 1
121 0 1 -1.1794 4.706576193310515 1.93051288814133 0.7873537246972138 0 0 0
764 0 2 0.5897 0.6452632777706325 0.6294466336938491 3.6448194675610757 1 1 1
24 0 2 0.5897 5.330026772592211 2.5468622833078474 2.3762472540666417 0 1 0
22 0 1 -1.1794 5.569239419913328 3.0124435079706133 3.2381300044874073 0 1 0
23 0 2 0.5897 4.9312646491960415 2.7023117810286896 3.880395629977255 0 1 0
17 0 2 0.5897 6.846244804449147 4.335131165741817 3.411669442015876 0 0 0
171 0 2 0.5897 7.347760601121666 1.9730313643003445 3.8352245281968145 0 0 0
169 0 1 -1.1794 8.224118007550235 1.5263125827900201 3.8389210191202148 0 0 0
675 0 2 0.5897 6.975792993001717 3.4160276187844927 0.5759857798973673 0 0 1
123 0 2 0.5897 4.872884506602309 0.9715533217155865 0.7555786639523047 0 0 0
674 0 2 0.5897 8.301429439100565 3.095683141034164 1.2290182775186267 0 0 1
170 0 2 0.5897 8.004895961781155 0.5935391025108518 4.118994476474313 0 0 0
673 0 1 -1.1794 7.826536364405519 2.955448284394065 0.4236240954114408 0 0 1
152 0 2 0.5897 12.019520066091923 2.6937774667117322 2.868600891696021 0 0 0
151 0 1 -1.1794 12.00418550058763 3.6766062003113564 2.8877259264532666 0 0 0
153 0 2 0.5897 12.762805857503157 3.9241443981913986 3.412097093008254 0 1 0
518 0 2 0.5897 10.209728762308526 0.8297451913019847 1.7770749446504035 0 0 1
517 0 1 -1.1794 11.152797975507552 1.0778375584110487 1.9621923965389805 0 0 1
599 0 2 0.5897 10.487523933267942 4.387814784751036 2.422558612485236 0 0 0
519 0 2 0.5897 11.671634718868665 0.6344935655282471 1.2470775097979656 0 0 1
692 0 2 0.5897 17.697858769662194 3.352713280140664 4.144476036261747 -1 1 0
105 0 2 0.5897 15.882027952241504 4.226598297199983 1.0766385155287215 0 0 1
104 0 2 0.5897 16.706864614570712 2.9580087046052737 1.5002492685448818 0 0 1
103 0 1 -1.1794 16.476625152580915 3.530233992241364 0.7077134702175512 0 0 1
354 0 2 0.5897 15.15105133555445 2.5382450726114922 3.679092475016543 -1 0 1
353 0 2 0.5897 14.694536616727802 1.2075607628560239 3.2034898852397107 -1 0 1
352 0 1 -1.1794 14.399780530874905 1.945487771587378 3.7061023340901453 -1 0 1
691 0 1 -1.1794 16.83044504680753 3.604598844358325 3.753915861708253 -1 1 0
527 0 2 0.5897 3.6627971270434596 5.463709860503597 3.781016246902198 0 0 0
457 0 1 -1.1794 3.244255503971388 4.939491605605112 1.824740177134928 0 1 0
36 0 2 0.5897 1.0252373353601754 8.237600970599573 2.7238907583523 1 0 0
458 0 2 0.5897 2.857560869655215 5.550945714706259 1.216355823387483 0 1 0
813 0 2 0.5897 3.242397897066744 7.645839205748088 2.346211196117189 0 0 0
811 0 1 -1.1794 4.018146459818247 8.186016818319622 2.1521907123154564 0 0 0
34 0 1 -1.1794 1.5932376339455727 7.469153907709421 3.0305254538692896 1 0 0
35 0 2 0.5897 1.2776238110727194 6.691874843681716 2.5203770864505195 1 0 0
812 0 2 0.5897 3.947032287554919 8.330232593127864 1.200308180609345 0 0 0
459 0 2 0.5897 4.084795945944784 4.720044731276956 1.4308861655127825 0 1 0
232 0 1 -1.1794 0.3371424889291022 5.934635949877219 0.9342144636087371 1 0 1
18 0 2 0.5897 8.330834924567522 4.826369286333959 3.259592232441581 0 0 0
16 0 1 -1.1794 7.442691950004398 5.078794659009129 3.690199105237349 0 0 0
305 0 2 0.5897 5.585011867767799 7.442146720987863 2.776688697655506 0 0 1
304 0 1 -1.1794 6.3527531528116254 7.485263052803572 3.3631909593832794 0 0 1
306 0 2 0.5897 6.839484606156785 6.641473782514971 3.2718020293786783 0 0 1
341 0 2 0.5897 7.457254368583771 8.020563523319725 0.9919486228958412 0 0 1
668 0 2 0.5897 9.017816804275988 6.730621918120487 4.321826397163902 -1 1 1
598 0 1 -1.1794 9.613771550242047 4.754516225987201 2.2716971800650483 0 0 0
600 0 2 0.5897 9.709014703144183 5.4265419336207605 1.556184977679485 0 0 0
292 0 1 -1.1794 10.541157263426099 7.004957875949463 0.8581453843468321 0 0 0
293 0 2 0.5897 11.354869024378814 7.348591923212922 1.311260182353604 0 0 0
772 0 1 -1.1794 12.572307248190883 8.219728875884094 2.0010450065928773 0 0 0
101 0 2 0.5897 12.771618249881596 4.877374188586513 0.8108601458132572 0 0 0
85 0 1 -1.1794 13.784919604608286 5.156455273954852 4.399399755132655 0 1 0
774 0 2 0.5897 13.536279666813062 8.173515693063557 1.875955970289822 0 0 0
752 0 2 0.5897 17.566692511590404 6.784325548310018 4.179779409707143 -1 1 1
693 0 2 0.5897 16.862014172290518 4.553971076312769 3.567779420388042 -1 1 0
360 0 2 0.5897 15.307831331957082 6.258644776072849 2.203935928563448 0 0 0
359 0 2 0.5897 14.30630744093626 5.29134111529072 2.78438050878451 0 0 0
358 0 1 -1.1794 14.887092096003121 5.396875975077889 2.026513913658521 0 0 0
256 0 1 -1.1794 15.180753011153566 8.117238021027738 1.5138471597922682 -1 1 1
257 0 2 0.5897 15.203496371863709 7.962490463054465 0.5727525994610955 -1 1 1
753 0 2 0.5897 16.14726661186983 7.380672813424412 4.464626451951863 0 1 1
751 0 1 -1.1794 16.732988069665012 6.587060033354243 4.571644477660868 0 1 1
496 0 1 -1.1794 14.651396152022398 8.589450624105758 4.512289936716843 0 1 0
233 0 2 0.5897 17.41668858168601 5.137623485410665 0.7431685601740294 0 0 1
58 0 1 -1.1794 0.43677920752984933 11.932089717704239 3.16476967193899 0 0 0
9 0 2 0.5897 0.5602046641540477 9.448717592017562 1.2350472936003365 0 0 1
380 0 2 0.5897 4.659394659951953 9.871014463084203 2.747118363688595 0 0 0
60 0 2 0.5897 1.1774949046939707 11.700441542245173 3.693122357568858 0 0 0
59 0 2 0.5897 0.8376244154768633 12.420589490204623 2.426522867064581 0 0 0
143 0 2 0.5897 3.14780979237952 12.593683028143989 0.9161294378012965 1 0 0
335 0 2 0.5897 3.514980786096395 11.129663800373653 4.0910079504969605 0 1 0
334 0 1 -1.1794 2.79239948533096 11.536825887410204 4.561528006865064 0 1 0
381 0 2 0.5897 4.946091708679572 11.110151928138043 2.0091976315188598 0 0 0
379 0 1 -1.1794 4.852623581052063 10.787218842011976 2.89289503450992 0 0 0
243 0 2 0.5897 7.190826936856296 8.964061642909579 2.705528016946863 0 0 0
242 0 2 0.5897 7.587555508501482 10.55102583625716 2.692674729109236 0 0 0
241 0 1 -1.1794 7.887516392845619 9.672687390578053 2.415000353715096 0 0 0
460 0 1 -1.1794 6.870316066931962 12.149838152447206 4.531254084091299 1 0 0
461 0 2 0.5897 6.124961023138414 11.644473884523755 4.242515817468249 1 0 0
462 0 2 0.5897 7.143822473094372 12.714989733631288 3.7835688508655774 1 0 0
814 0 1 -1.1794 7.472624189187859 12.225771634610572 0.8737081969561119 0 0 1
456 0 2 0.5897 8.918544827873504 9.730413616073522 0.7496768041071045 0 1 0
762 0 2 0.5897 10.364046794260632 9.59608325282134 3.1090551416944 0 1 0
761 0 2 0.5897 11.205346219379765 10.887375374641355 3.2421498366613135 0 1 0
760 0 1 -1.1794 11.04967254848495 10.009670143876829 3.6440512314394495 0 1 0
773 0 2 0.5897 12.33665966203924 8.744670743421205 2.770617622202651 0 0 0
412 0 1 -1.1794 11.425058581568152 12.564017446827478 2.790525048654859 0 0 1
413 0 2 0.5897 11.560007775874732 12.759521489502406 1.8190030203009064 0 0 1
653 0 2 0.5897 12.373439640900319 9.77181125446374 0.4178411923516164 -1 0 0
8 0 2 0.5897 17.8858366629512 10.168114495400712 2.5791954003820954 0 0 1
7 0 1 -1.1794 17.59780319440565 9.39676082940746 2.078789710320257 0 0 1
258 0 2 0.5897 15.917997278161147 8.708040093762088 1.7217778839720317 -1 1 1
493 0 1 -1.1794 15.2990698365318 11.074225890438267 3.4996825369615214 0 1 1
495 0 2 0.5897 16.224608704504625 11.246107104298714 3.807621189780294 0 1 0
494 0 2 0.5897 14.823236513027432 11.868737576832524 3.7780593711495376 0 1 1
534 0 2 0.5897 15.381056195854908 11.489543901871015 1.685309543365093 -1 0 1
532 0 1 -1.1794 15.133617420391898 11.772517630471937 0.8021364113102132 -1 0 1
533 0 2 0.5897 14.300252036194689 11.32610403950977 0.7283287429004695 -1 0 1
497 0 2 0.5897 14.82716614003297 9.398135516656604 4.017496627304036 0 1 0
142 0 1 -1.1794 2.480762152922437 13.125530387178927 1.422494195284149 1 0 0
702 0 2 0.5897 3.5238676850021067 13.986275068528014 2.796459876577662 0 0 0
700 0 1 -1.1794 3.9850002465189753 14.768715456983891 3.201171151288713 0 0 0
701 0 2 0.5897 3.978584659520676 14.607608987585708 4.143136475727947 0 0 0
144 0 2 0.5897 2.1492700871170785 13.788314429445819 0.8031974839690348 1 0 0
318 0 2 0.5897 3.1820690800264924 16.078422649262926 2.716199251487797 0 0 0
510 0 2 0.5897 2.941307716150042 16.896726914705944 0.6123693896448436 1 -1 1
317 0 2 0.5897 1.7288361680757656 16.46353981841044 2.790891751790572 0 0 0
316 0 1 -1.1794 2.5961828194771424 16.850328077360295 2.567946826791556 0 0 0
828 0 2 0.5897 5.240972235378253 14.78808638338888 2.1668513410475345 0 0 1
826 0 1 -1.1794 5.99207437889944 14.502598656175326 1.5743163590739202 0 0 1
827 0 2 0.5897 5.57929465170451 14.360817708422138 0.7487441957280749 0 0 1
326 0 2 0.5897 7.436643323172201 14.950717951037731 4.0738106581322295 0 0 0
815 0 2 0.5897 6.837178783355114 12.907645902520905 1.27179823836236 0 0 1
329 0 2 0.5897 6.4577136386060685 16.403239314153467 1.395444861896709 0 0 0
222 0 2 0.5897 10.087638888140678 13.750978158410184 3.4987610114610437 -1 0 1
220 0 1 -1.1794 9.336251692061929 14.313428962908167 3.7814722392332523 -1 0 1
414 0 2 0.5897 12.232077945415355 12.80993559553674 3.308562560158469 0 0 1
20 0 2 0.5897 9.656318351199555 16.006028707696675 2.8533605837913614 0 0 0
42 0 2 0.5897 11.966771912015965 16.333832048075564 2.7349041837010635 -1 0 1
40 0 1 -1.1794 12.910922834446225 16.41068305981146 2.8042621224313957 0 0 1
19 0 1 -1.1794 10.094550356333574 16.820609706817798 2.530091649715152 0 0 0
41 0 2 0.5897 13.30554780243115 15.846662484224744 2.1267457710543813 0 0 1
175 0 1 -1.1794 13.680841127747975 12.97627371713327 4.4432727675607335 0 0 1
720 0 2 0.5897 17.416159871396243 16.09699385191083 3.2684651692995033 -1 0 0
198 0 2 0.5897 14.59871641953325 13.624986240519904 1.1553381730331038 -1 0 0
196 0 1 -1.1794 14.622786424540122 14.609247930960667 1.1005362085067398 -1 0 0
718 0 1 -1.1794 17.143189271201432 15.668628628701946 2.436347813930724 -1 0 0
197 0 2 0.5897 15.357594552480823 14.838827386914431 1.7251658800578145 0 0 0
585 0 2 0.5897 14.08409007336578 16.11425889864095 4.21036774419616 0 0 0
719 0 2 0.5897 17.269680316087403 16.31281799892208 1.7684568827746021 -1 0 0
543 0 2 0.5897 17.33656763365667 13.534705420552237 4.1866121799435465 0 0 0
176 0 2 0.5897 14.110168864614543 13.870353727191697 4.5964641510012685 -1 0 1
542 0 2 0.5897 16.211662085467662 14.571226750290563 4.5596379810517815 0 0 0
765 0 2 0.5897 1.248117366847949 20.56298384044387 2.474701241146849 1 0 1
660 0 2 0.5897 2.895217702560831 18.336701402689414 3.8584493464387677 0 0 1
523 0 1 -1.1794 1.6386284505865765 19.517770164593507 0.7071623566644172 1 0 1
525 0 2 0.5897 2.5042447540610056 19.27977198866803 0.43994615104860313 1 0 1
93 0 2 0.5897 0.4409964238452212 17.839285213553175 0.4718730782350457 0 0 1
830 0 2 0.5897 4.189221042093136 19.533368242598662 2.2947836888763087 0 -1 1
829 0 1 -1.1794 4.568662380768523 19.551508004077853 1.3853496967546788 0 -1 1
658 0 1 -1.1794 3.4830494016402445 19.025568585498327 4.209922224141449 0 0 1
330 0 2 0.5897 6.226369200215684 17.379388852337165 2.510827418793403 0 0 0
328 0 1 -1.1794 6.514539036451442 17.371533458386395 1.5916726907683956 0 0 0
185 0 2 0.5897 8.645482733326904 19.43787075261193 2.6372051501115896 0 -1 0
184 0 1 -1.1794 8.48324002600197 19.579003797810138 1.712122773019905 0 -1 0
186 0 2 0.5897 7.776389807055324 18.98032709189932 1.4798362116662889 0 -1 0
831 0 2 0.5897 5.0626483548361625 18.73122655345422 1.2732666497550946 0 -1 1
550 0 1 -1.1794 5.800990497969571 17.81683077622823 4.201409088594982 0 0 0
649 0 1 -1.1794 8.123777703220881 19.34465438313275 4.495633056069071 0 0 0
552 0 2 0.5897 4.86605275682348 18.27107822305726 4.263551914776924 0 0 0
650 0 2 0.5897 7.287324189622231 18.777717543967306 4.493340056662646 0 0 0
551 0 2 0.5897 5.896320406002411 16.987503971956492 4.536618293760957 0 0 0
21 0 2 0.5897 9.559777557742965 16.994399652934483 1.724260301964535 0 0 0
377 0 2 0.5897 10.42158428245131 17.689045902372825 3.929533858554003 0 0 0
2 0 2 0.5897 11.403009410002214 20.73621393087877 3.3319709168150293 -1 0 0
3 0 2 0.5897 12.620321297864265 19.90205642637231 3.823901719156202 -1 0 0
1 0 1 -1.1794 11.741669396585568 20.24652085831149 4.092007805137089 -1 0 0
794 0 2 0.5897 13.425735550443523 18.04962214545497 2.819085581166926 0 -1 1
410 0 2 0.5897 15.56673505084666 20.85512282400351 1.1383365658548428 0 0 0
411 0 2 0.5897 16.437320853098914 20.953428421814436 2.315484403834271 0 0 0
409 0 1 -1.1794 15.552071655606007 20.628174438513632 2.1072921432475473 0 0 0
793 0 1 -1.1794 13.894283151124394 18.83622222623623 3.1720571491644804 0 -1 1
795 0 2 0.5897 14.393935861763506 19.302848066122678 2.4747350376772035 0 -1 1
218 0 2 0.5897 15.509119790988194 18.686040973346792 4.490017109367257 0 0 0
638 0 2 0.5897 3.106492552557367 1.5846529714989444 4.737168301368131 1 1 1
637 0 1 -1.1794 3.8450511320412843 1.0691076558736086 5.064612484493592 1 1 1
407 0 2 0.5897 2.198424791289084 3.851086300286934 4.860495646328803 1 0 0
406 0 1 -1.1794 1.6998984843017455 3.017491925736894 4.957995407526402 1 0 0
408 0 2 0.5897 1.9423964265323845 2.8316941441892594 5.882680800169039 1 0 0
238 0 1 -1.1794 1.8288049121018912 2.3984535259654836 7.541814085328997 1 1 0
239 0 2 0.5897 1.8559993432557311 1.4765350547814213 7.78059154106716 1 1 0
240 0 2 0.5897 2.150521844550161 2.8934046382348626 8.308192773937503 1 1 0
5 0 2 0.5897 6.664334404139021 2.1864153755505846 7.683925780496779 0 1 0
6 0 2 0.5897 8.14435648510021 2.415518609736815 7.296569747914446 0 1 0
4 0 1 -1.1794 7.367573098933069 2.8333845206229786 7.728381555256176 0 1 0
432 0 2 0.5897 4.7321130400038 1.1116616209847618 6.71040235565442 1 1 0
806 0 2 0.5897 6.3913425421070675 4.166375090087673 6.661876837274894 0 1 0
431 0 2 0.5897 4.748930427670941 1.0992096962316547 8.292257003996891 1 1 0
430 0 1 -1.1794 5.311257058816285 1.036425597370311 7.502977503824307 0 1 0
209 0 2 0.5897 9.173417237850547 2.1352131559695113 5.044662651839476 0 1 0
208 0 1 -1.1794 9.581073185730261 2.346904331128911 5.948634512889097 0 1 0
210 0 2 0.5897 10.110177471108678 3.1705323455204617 5.93576110489762 0 1 0
612 0 2 0.5897 10.419363219247659 1.2000196462387382 6.6278189749010155 1 1 0
448 0 1 -1.1794 13.286883949479524 4.059266672234436 7.32118103688389 -1 1 0
77 0 2 0.5897 13.344076819162309 2.1918359629992805 6.499715809206886 0 0 0
449 0 2 0.5897 12.501812616596986 4.328438983077461 6.732081954867687 -1 1 0
610 0 1 -1.1794 11.038887397442188 0.45975818356649195 6.91593487184099 1 1 0
611 0 2 0.5897 11.585971729018459 0.3785952717368598 6.115516294294839 1 1 0
357 0 2 0.5897 11.794388799542274 0.5804747013489242 8.695379027405728 -1 1 0
513 0 2 0.5897 13.59921545675565 4.178898599325819 8.95149243305658 0 0 0
716 0 2 0.5897 17.237138936126705 1.5752504719246043 6.454467769763421 -1 0 0
76 0 1 -1.1794 13.776447669434848 1.3611464467366319 6.276216979238826 0 0 0
78 0 2 0.5897 14.026032223976616 1.473304997705727 5.329965180601315 0 0 0
717 0 2 0.5897 15.696229113300063 1.7458382562615917 6.414034158786392 -1 0 0
715 0 1 -1.1794 16.48714362496519 2.0311372073992597 6.867407704698497 -1 0 0
842 0 2 0.5897 16.23033397772314 3.9306346047784326 6.488141312292693 0 0 0
722 0 2 0.5897 16.850016634092437 2.387022402354994 8.746231245313362 -1 1 0
526 0 1 -1.1794 3.466013313751406 5.421463121359164 4.712857926175721 0 0 0
564 0 2 0.5897 2.581934380178343 8.505455541513664 5.524846215551928 0 0 0
563 0 2 0.5897 3.2181796517464596 7.086404436150223 5.516884315348894 1 0 0
562 0 1 -1.1794 3.374041074097157 8.016267869333008 5.8025903672218835 0 0 0
438 0 2 0.5897 3.343460081591275 8.390794487080775 7.503548858070263 0 0 0
522 0 2 0.5897 4.0033967891559135 4.84374930313115 8.363582047566382 -1 0 1
528 0 2 0.5897 4.211990047223162 5.207945443114504 5.2038434188085825 0 0 0
437 0 2 0.5897 2.4553242192378053 8.532225458242422 8.720533901929869 0 0 0
805 0 1 -1.1794 6.047442996260543 4.970048631785022 6.261020460546327 0 1 0
807 0 2 0.5897 6.545588475412226 5.079516652324276 5.48455239895229 0 1 0
656 0 2 0.5897 6.770723051206742 5.829662553991941 7.8562949714314385 0 0 0
655 0 1 -1.1794 7.207828649997382 6.219282396453598 8.672718075305243 0 0 0
164 0 2 0.5897 7.966814109066627 7.491646843119596 7.690505455639591 -1 0 0
163 0 1 -1.1794 8.282496379804126 8.182465842162731 7.050073000738488 -1 0 0
657 0 2 0.5897 6.680911093470616 6.965481437504498 8.950718767718783 0 0 0
216 0 2 0.5897 11.271592919717705 7.486414708307912 4.886764841071781 0 0 0
667 0 1 -1.1794 9.668668306153803 6.862983365622143 5.021984316758561 -1 1 1
87 0 2 0.5897 13.235987643465055 5.914318855033741 4.743608502136234 0 1 0
154 0 1 -1.1794 10.72577700279342 4.62619091760688 6.580032352305645 0 0 0
669 0 2 0.5897 9.139268592318794 7.362591332621514 5.656555068190148 -1 1 1
155 0 2 0.5897 10.280142534960097 4.666281266468372 7.431492721029093 0 0 0
214 0 1 -1.1794 12.222932779007868 7.342674651176284 5.169359061650606 0 0 0
156 0 2 0.5897 10.30183759031716 5.433957666812329 6.059090382668429 0 0 0
140 0 2 0.5897 12.144113644899296 7.423032563204661 6.918839534263712 0 0 0
139 0 1 -1.1794 11.77073060481053 7.380627404485666 7.822297415262069 0 0 0
141 0 2 0.5897 11.384215914818226 6.530997956252099 7.975925932815856 0 0 0
215 0 2 0.5897 12.791402817949677 7.984287422496846 4.771647367035754 0 0 0
560 0 2 0.5897 13.293490498247284 7.424990700884478 8.772170618421825 -1 0 0
86 0 2 0.5897 14.50907448259177 5.119234527648526 4.93478144963813 0 1 0
450 0 2 0.5897 14.0011582043623 4.7606053312921395 7.1198475209537 -1 0 0
841 0 1 -1.1794 15.83718895309153 4.840685657706891 6.475333005278134 0 0 0
843 0 2 0.5897 16.315421931674894 5.338952109183488 5.764456334393024 0 0 0
395 0 2 0.5897 16.398674920153603 5.503596465353702 8.149724662015029 -1 1 -1
394 0 1 -1.1794 16.356217861414702 6.173348116132053 8.832066130203042 -1 1 0
98 0 2 0.5897 17.42580451164756 7.953651543340224 8.6077517278171 0 0 0
396 0 2 0.5897 15.47487140728266 6.53842133171714 8.725526664751829 -1 1 0
67 0 1 -1.1794 0.4909445594486632 9.175659481388353 5.763766933482748 0 0 0
336 0 2 0.5897 2.620936880590748 11.133925175359538 5.41061568291391 0 1 0
697 0 1 -1.1794 2.1303749202267532 11.759242374127393 7.057193167549511 0 0 0
699 0 2 0.5897 1.1932045723089613 11.665977002281524 6.735770092140865 0 0 0
698 0 2 0.5897 2.2056163499044183 10.997764272154214 7.636484948788441 0 0 0
97 0 1 -1.1794 0.3812377487209475 8.73577934852676 8.596803980087905 1 0 0
436 0 1 -1.1794 3.3454718621343345 8.724117448727865 8.400607711717818 0 0 0
321 0 2 0.5897 4.773397650778899 8.952312933327292 5.8294042685658125 0 0 1
165 0 2 0.5897 7.519275943613492 8.713277049124612 6.892303951522271 -1 0 0
320 0 2 0.5897 5.941093832492979 8.767845686309228 5.060685219797922 0 0 1
319 0 1 -1.1794 5.6227772127864935 9.35325679176803 5.738597847390356 0 0 1
480 0 2 0.5897 5.859039765188437 10.395313562618409 7.139645567019291 0 0 0
478 0 1 -1.1794 6.0526728218567705 10.7420885036779 8.050323132262937 0 0 0
479 0 2 0.5897 6.202067296421539 11.65632206552864 7.882154798893083 0 0 0
249 0 2 0.5897 8.932408739727267 12.411815282090114 6.595964486309396 1 0 1
375 0 2 0.5897 7.452226121859481 10.086996897580796 8.884271036622403 0 0 0
366 0 2 0.5897 10.259483871768568 10.775650779869672 5.383505647189095 0 0 0
365 0 2 0.5897 9.668952809763658 10.016566663663895 6.573649200607867 0 0 0
364 0 1 -1.1794 9.987802162925858 10.89814092347631 6.3244798073859165 0 0 0
485 0 2 0.5897 11.557268021196883 11.574005952521699 7.018088338971319 0 0 0
484 0 1 -1.1794 12.510286148386601 11.861454182828005 7.026751106722133 0 0 0
486 0 2 0.5897 12.619380780605109 12.559368503987313 7.674491868744647 0 0 0
177 0 2 0.5897 13.27893481681992 12.69217656831806 5.283752630119452 0 0 1
821 0 2 0.5897 10.851082584542352 8.85640816638239 8.711774842873588 0 0 1
69 0 2 0.5897 17.86147535373522 8.98208870479183 6.718779438192068 0 0 0
68 0 2 0.5897 17.395808730972917 8.802163491669651 5.225135469461766 -1 0 0
338 0 2 0.5897 15.989074790982395 11.289476051324707 6.831973567267976 0 0 1
498 0 2 0.5897 14.657650661032678 8.872936720000979 5.432927240340291 0 1 0
387 0 2 0.5897 13.692474208895419 10.46905583111904 7.000887306232121 0 0 1
386 0 2 0.5897 14.485323288335692 9.437604666649401 7.893511204545884 0 0 1
385 0 1 -1.1794 14.409038275412518 9.835305855661167 7.0077413627833565 0 0 1
337 0 1 -1.1794 16.733606433337133 11.902527562421161 6.8764900318167 0 0 1
339 0 2 0.5897 16.63501782826905 12.572207666428005 6.219377368654712 0 0 1
361 0 1 -1.1794 0.5246699290580638 16.933969810989502 4.693372058355965 1 0 0
189 0 2 0.5897 3.8887806471393933 13.30244969553648 5.777124387206272 0 0 0
187 0 1 -1.1794 4.353607107995349 14.115231547470877 5.99996095635529 0 0 0
188 0 2 0.5897 3.8490606103601674 14.578609108497607 6.642262062835213 0 -1 0
580 0 1 -1.1794 4.0851645911949905 15.858130981368866 8.0959602437245 1 -1 0
434 0 2 0.5897 2.1030178761130855 13.204051099646684 8.108070346119923 0 0 0
582 0 2 0.5897 3.5834733165970154 15.201825098984962 8.527950218250632 1 -1 0
111 0 2 0.5897 0.8671788558489365 15.299358556171095 7.802906151347208 1 0 0
433 0 1 -1.1794 2.1508186921327406 14.020191182865918 8.630227910801715 0 0 0
109 0 1 -1.1794 0.5940447313037922 16.21344892060069 7.552814603627412 1 0 0
362 0 2 0.5897 0.3183555742172781 16.214651648556682 5.333548745495966 1 0 0
325 0 1 -1.1794 6.816000594529016 15.358551901863976 4.703704960677423 0 0 0
581 0 2 0.5897 4.72039099222022 16.264514451265 8.716005540670887 1 -1 0
327 0 2 0.5897 6.1316946972787125 14.7085456271751 4.976319323114342 0 0 0
248 0 2 0.5897 8.030579011310074 13.474771712802148 6.823953212833647 1 0 1
255 0 2 0.5897 5.526236496824361 13.789657804210337 7.218177094923382 0 0 0
254 0 2 0.5897 6.063331593887024 13.545543088857613 8.6158611011108 0 0 0
253 0 1 -1.1794 6.379171179566819 13.650565661053793 7.685474529618479 0 0 0
147 0 2 0.5897 7.954816556088271 16.237918650354175 7.597965428053 0 0 0
146 0 2 0.5897 7.734797420697461 16.20268110562435 6.0700758919043105 0 0 0
247 0 1 -1.1794 8.94241082521373 13.35409464098268 6.540983932278555 1 0 1
145 0 1 -1.1794 8.33923233703207 16.536020336579746 6.744434166305625 0 0 0
221 0 2 0.5897 9.234060472139351 14.12178239849142 4.71301328784733 -1 0 1
287 0 2 0.5897 9.577796718578691 13.692257635921477 8.158057716025652 0 0 0
205 0 1 -1.1794 12.553460958187342 14.179196632950077 8.514875073383516 0 -1 0
206 0 2 0.5897 12.434607250962511 14.744506131649537 7.701610893552232 0 -1 0
333 0 2 0.5897 10.18958941995518 16.18588082528101 7.149891179407291 0 -1 0
331 0 1 -1.1794 11.141408610034583 16.3713395969721 6.969408008510038 0 -1 0
332 0 2 0.5897 11.007148157841442 16.566216560859942 5.9845892222603725 0 -1 0
583 0 1 -1.1794 14.748284880369148 15.606609583082312 4.756836674053923 0 0 0
541 0 1 -1.1794 16.842056597377827 13.924361182285562 4.876928656144137 0 0 0
507 0 2 0.5897 16.541099335667255 12.931146612697612 8.312751437657386 -1 0 0
584 0 2 0.5897 14.726050044913007 15.8111604853906 5.6982295585078715 0 0 0
110 0 2 0.5897 17.233264104957687 16.232767916532396 7.815114917383167 0 0 0
643 0 1 -1.1794 15.208765534594662 15.828428674137191 7.704345582988648 1 -1 0
645 0 2 0.5897 15.398305735997061 14.962127376988885 8.036445992932373 1 -1 0
644 0 2 0.5897 14.466426008155928 16.194224838092723 8.239173726005117 1 -1 0
505 0 1 -1.1794 16.024986957445723 13.591664143966584 8.870823329860862 -1 0 0
639 0 2 0.5897 3.62425613767322 20.900169672670266 4.7115462273041 1 0 1
606 0 2 0.5897 1.1145798904168185 20.69544675812952 6.150949502096939 0 0 1
604 0 1 -1.1794 0.5422439772379501 20.9833613807359 5.397268860127795 0 0 1
659 0 2 0.5897 3.2613368465176475 18.966995052046407 5.14965413063666 0 0 1
43 0 1 -1.1794 1.8740022590972583 20.388762133286136 7.873324446847867 0 0 0
160 0 1 -1.1794 2.803678034158286 18.036284033447217 6.6156836268884796 0 0 0
44 0 2 0.5897 2.2935126823190077 19.551256259970096 7.779999247584027 0 0 0
161 0 2 0.5897 3.500587908804056 17.43857343145183 7.03105515827565 0 0 0
162 0 2 0.5897 1.9956783229507813 17.480692432413917 6.667104474336742 0 0 0
45 0 2 0.5897 1.52460245335881 20.305600450777206 8.792033759531707 1 0 0
369 0 2 0.5897 6.13075092649236 20.16449929667685 8.083039611590749 0 -1 0
368 0 2 0.5897 7.391705934267745 19.369062624876733 7.949449762952921 0 -1 0
367 0 1 -1.1794 6.673710431370804 19.532755409267075 8.588069481121705 0 -1 0
651 0 2 0.5897 8.852517607627133 18.742640873456523 4.789665705614134 0 0 0
378 0 2 0.5897 10.941491300092919 18.711449559215623 4.862308689749955 0 0 0
376 0 1 -1.1794 10.31613026901712 17.96571356091335 4.863417561800536 0 0 0
642 0 2 0.5897 9.52175780197882 18.19413389189414 7.138070663470811 0 -1 0
640 0 1 -1.1794 9.58644695463102 19.00807180846175 7.6636795239472795 0 -1 0
641 0 2 0.5897 9.996269046992348 19.751435797220566 7.153174702568019 0 -1 0
705 0 2 0.5897 12.369449654078531 17.223425879395307 7.8144017094211735 0 -1 0
703 0 1 -1.1794 13.202275316211573 17.65456206600159 8.08188823682702 0 -1 0
363 0 2 0.5897 17.40874932569716 17.569229206638 4.736283830740916 0 0 0
605 0 2 0.5897 17.322878253894714 20.48602006585675 5.479377242063092 -1 0 1
384 0 2 0.5897 14.365846868363553 20.209991000926863 7.099497183741539 0 0 0
383 0 2 0.5897 14.44546683471864 18.736992102674392 7.585437270555812 0 0 0
382 0 1 -1.1794 14.976028900161552 19.561308418178335 7.574003664034917 0 0 0
217 0 1 -1.1794 16.2275330223898 19.005454677587224 5.103839612974933 0 0 0
219 0 2 0.5897 15.796332038470371 19.060707844618094 5.996184039652467 0 0 0
520 0 1 -1.1794 3.8069649016239278 4.20178069102146 9.054459243366997 -1 0 1
203 0 2 0.5897 3.88045501501437 3.6265102664114814 12.684519203381585 0 0 0
566 0 2 0.5897 2.4352870909503133 3.065673279193143 10.894354441020512 0 0 0
565 0 1 -1.1794 2.051249340699783 2.2572712198280076 10.53521526458938 0 0 0
567 0 2 0.5897 2.8771434143449426 1.6389472593480632 10.438169646791726 0 0 0
590 0 2 0.5897 1.502123365081157 2.6883145099309202 12.836450133215935 1 0 0
132 0 2 0.5897 4.510062312681007 1.014367181638895 10.800492499994515 1 0 0
202 0 1 -1.1794 3.4460104988944615 4.31653153142631 12.207474355213488 0 0 0
723 0 2 0.5897 0.49782242587191516 2.354718746461018 9.732950635321929 0 1 0
521 0 2 0.5897 4.423488757284821 4.455075098839942 9.804608597659264 -1 0 1
130 0 1 -1.1794 4.080199415310563 0.6568866717087201 10.039281093714848 1 0 1
300 0 2 0.5897 7.246800120925455 3.380660634688254 9.71191921217987 1 1 0
370 0 1 -1.1794 5.618298485837777 2.1704380304354127 12.04766702633073 0 0 0
372 0 2 0.5897 5.931578048943877 1.513057777378264 12.687228761331518 0 0 0
298 0 1 -1.1794 7.338527451625556 3.6869808801306196 10.615485260069283 1 0 0
371 0 2 0.5897 6.433326076188462 2.520263311785928 11.704985519010304 0 0 0
863 0 2 0.5897 9.33720199754894 2.9452969184569078 10.484031118167866 0 0 0
862 0 1 -1.1794 10.14873609191707 2.756005840636132 10.908604574367477 0 0 0
864 0 2 0.5897 10.526201035011693 2.068892198769721 10.30721778368509 0 0 0
840 0 2 0.5897 9.622764136316173 2.9572033231082226 12.72082683185302 1 0 1
356 0 2 0.5897 12.502239597966676 1.1559494533883476 10.032618288979222 -1 1 0
355 0 1 -1.1794 11.673050642175836 0.807923330604563 9.662408931403196 -1 1 0
511 0 1 -1.1794 13.804475045525658 4.372488207596069 9.89253434090581 0 0 0
512 0 2 0.5897 13.960272458287125 3.512707498344789 10.25237335427934 0 0 0
547 0 1 -1.1794 13.821601743209115 1.826422462278829 10.948979464281788 0 1 0
548 0 2 0.5897 14.082995061217519 1.8547772829055462 11.909541776164097 0 1 0
549 0 2 0.5897 14.430253113104243 1.0826578420780943 10.697769988049917 0 1 0
721 0 1 -1.1794 17.076698472540745 2.1779085020243287 9.682742740154401 -1 1 0
833 0 2 0.5897 16.78518906435985 3.667701546331937 10.916642187744456 0 1 1
228 0 2 0.5897 16.004252961798585 0.7552200871960513 9.96654030800983 0 1 1
204 0 2 0.5897 2.808833685948868 4.836109008623325 12.735855147291904 0 0 0
277 0 1 -1.1794 1.0329175198300085 6.188481301417807 12.399029847100724 0 0 0
278 0 2 0.5897 1.5799143549146255 6.725079927691432 11.829564461193272 0 0 0
279 0 2 0.5897 0.6022098589889548 5.537462156487343 11.813042856969535 0 0 0
628 0 1 -1.1794 3.030368585509043 8.637125768725651 11.622673202493939 0 0 0
299 0 2 0.5897 6.834418762945894 4.516702376621943 10.720944745798947 1 0 0
825 0 2 0.5897 5.089256281343925 8.264850350992877 9.651319131171505 0 0 0
788 0 2 0.5897 4.937483265933368 5.474962752522966 12.017504522037166 0 0 0
823 0 1 -1.1794 5.958148961372816 7.98622720234776 9.971576038846703 0 0 0
787 0 1 -1.1794 5.814355776874984 5.824787993101792 11.795048540650262 0 0 0
789 0 2 0.5897 5.877914999342631 6.656783733143897 11.279610541823594 0 0 0
309 0 2 0.5897 8.907342078137672 5.38239378321678 9.169000600950083 0 0 0
684 0 2 0.5897 9.103346659597593 7.522199291500601 12.337176869039666 0 0 0
260 0 2 0.5897 6.821771037668406 4.915784420144901 13.185528607767877 0 0 1
682 0 1 -1.1794 8.473848506912265 7.707082131762636 13.08210521218575 0 0 0
307 0 1 -1.1794 9.884408315147517 5.319504703649492 9.055555723316381 0 0 0
308 0 2 0.5897 10.12619831885742 4.73358258362422 9.776400920550353 0 0 0
124 0 1 -1.1794 10.726208010868982 7.711948172275761 11.584295861197043 0 0 0
447 0 2 0.5897 13.150545554895338 5.446317549371989 11.00501745462026 0 0 0
445 0 1 -1.1794 12.840862619270958 5.920497617380741 11.75003044407896 0 0 0