LAMMPS (29 Sep 2021 - Update 2)
  using 1 OpenMP thread(s) per MPI task
plugin load libdeepmd_lmp.so
Loading plugin: deepmd pair style v2.0 by Han Wang
Loading plugin: compute deeptensor/atom v2.0 by Han Wang
Loading plugin: fix dplr v2.0 by Han Wang
echo both

include		in.partitions
variable        pid world 0
include		in.temp
variable        temperature equal 245
variable        tempDamp equal 0.100
include		in.pressure
variable        pressure equal 1973.846
variable        pressureDamp equal 1.0 # This is 1 ps
include		in.seed
variable        seed world 745823

units           metal
atom_style	full
include		in.box
read_data       water.data
Reading data file ...
  orthogonal box = (0.0000000 0.0000000 0.0000000) to (18.207573 21.446115 22.213196)
  1 by 1 by 1 MPI processor grid
  reading atoms ...
  864 atoms
  reading velocities ...
  864 velocities
Finding 1-2 1-3 1-4 neighbors ...
  special bond factors lj:    0        0        0       
  special bond factors coul:  0        0        0       
     0 = max # of 1-2 neighbors
     0 = max # of 1-3 neighbors
     0 = max # of 1-4 neighbors
     1 = max # of special neighbors
  special bonds CPU = 0.000 seconds
  read_data CPU = 0.054 seconds
include 	in.setup
variable	out_freq equal 500
variable	out_freq2 equal 500

timestep        0.0005

neigh_modify    delay 7 every 1

include         in.deepmd
# This is deepMD model

# create groups ###
#group ox type 2
#group hy type 1

mass 2 15.999
mass 1 1.008

pair_style      deepmd ../graph.pb
pair_coeff      * *

bond_style      none
angle_style     none
dihedral_style  none
improper_style  none
neigh_modify exclude none


neighbor        2.0 bin
neigh_modify    every 10 delay 0 check no

thermo          ${out_freq}
thermo          500
thermo_style 	custom step temp pe etotal epair emol press lx ly lz xy xz yz vol pxx pyy pzz pxy pxz pyz cella cellb cellc cellalpha cellbeta cellgamma


restart 	${out_freq} restart.lmp.${pid} restart2.lmp.${pid}
restart 	500 restart.lmp.${pid} restart2.lmp.${pid}
restart 	500 restart.lmp.0 restart2.lmp.${pid}
restart 	500 restart.lmp.0 restart2.lmp.0


include         in.dump
dump            myDump all atom ${out_freq2} dump.water.${pid}
dump            myDump all atom 500 dump.water.${pid}
dump            myDump all atom 500 dump.water.0
dump            myDump2 all dcd ${out_freq2} dump.dcd
dump            myDump2 all dcd 500 dump.dcd
dump_modify     myDump append yes
dump_modify     myDump2 append yes


timer           timeout 23:50:00 every 1000
New timer settings: style=normal  mode=nosync  timeout=23:50:00

fix             2 all nph iso ${pressure} ${pressure} ${pressureDamp}
fix             2 all nph iso 1973.846 ${pressure} ${pressureDamp}
fix             2 all nph iso 1973.846 1973.846 ${pressureDamp}
fix             2 all nph iso 1973.846 1973.846 1
fix             3 all temp/csvr ${temperature} ${temperature} ${tempDamp} ${seed}
fix             3 all temp/csvr 245 ${temperature} ${tempDamp} ${seed}
fix             3 all temp/csvr 245 245 ${tempDamp} ${seed}
fix             3 all temp/csvr 245 245 0.1 ${seed}
fix             3 all temp/csvr 245 245 0.1 745823
velocity 	all create ${temperature} ${seed} dist gaussian
velocity 	all create 245 ${seed} dist gaussian
velocity 	all create 245 745823 dist gaussian

run             2000000

CITE-CITE-CITE-CITE-CITE-CITE-CITE-CITE-CITE-CITE-CITE-CITE-CITE

Your simulation uses code contributions which should be cited:

- USER-DEEPMD package:

@article{Wang_ComputPhysCommun_2018_v228_p178,
  author = {Wang, Han and Zhang, Linfeng and Han, Jiequn and E, Weinan},
  doi = {10.1016/j.cpc.2018.03.016},
  url = {https://doi.org/10.1016/j.cpc.2018.03.016},
  year = 2018,
  month = {jul},
  publisher = {Elsevier {BV}},
  volume = 228,
  journal = {Comput. Phys. Commun.},
  title = {{DeePMD-kit: A deep learning package for many-body potential energy representation and molecular dynamics}},
  pages = {178--184}
}

CITE-CITE-CITE-CITE-CITE-CITE-CITE-CITE-CITE-CITE-CITE-CITE-CITE

Neighbor list info ...
  update every 10 steps, delay 0 steps, check no
  max neighbors/atom: 2000, page size: 100000
  master list distance cutoff = 8
  ghost atom cutoff = 8
  binsize = 4, bins = 5 6 6
  1 neighbor lists, perpetual/occasional/extra = 1 0 0
  (1) pair deepmd, perpetual
      attributes: full, newton on
      pair build: full/bin
      stencil: full/bin/3d
      bin: standard
Per MPI rank memory allocation (min/avg/max) = 7.215 | 7.215 | 7.215 Mbytes
Step Temp PotEng TotEng E_pair E_mol Press Lx Ly Lz Xy Xz Yz Volume Pxx Pyy Pzz Pxy Pxz Pyz Cella Cellb Cellc CellAlpha CellBeta CellGamma 
       0          245    -134.9383   -107.60818    -134.9383            0    24356.579    18.207573    21.446115    22.213196            0            0            0    8673.8466    24242.281    25101.598    23725.858    1110.6021    -268.5522   -866.31879    18.207573    21.446115    22.213196           90           90           90 
     500    245.74548   -130.51084   -103.09756   -130.51084            0    254.50918    18.153282    21.382168    22.146962            0            0            0    8596.4877    3191.3528   -2260.1871   -167.63825    1570.6404   -1283.0909    -848.8682    18.153282    21.382168    22.146962           90           90           90 
    1000    248.09672   -128.99417   -101.31861   -128.99417            0    3678.3333    18.108214    21.329083    22.091978            0            0            0    8532.6204    3164.7612    3791.9947    4078.2439   -1231.8511    1027.7446   -1469.7523    18.108214    21.329083    22.091978           90           90           90 
    1500    233.93197   -129.38628   -103.29082   -129.38628            0    2354.7942    18.109293    21.330354    22.093294            0            0            0     8534.145    1747.3475    1207.3539    4109.6813    1116.9102   -129.19039   -1174.5936    18.109293    21.330354    22.093294           90           90           90 
    2000    245.67196    -128.5029   -101.09782    -128.5029            0   -1773.2289    18.035557    21.243503    22.003337            0            0            0    8430.3241   -3111.2815   -1388.3736    -820.0316    1253.3101    1770.7368    393.34961    18.035557    21.243503    22.003337           90           90           90 
    2500     245.6562   -127.11306   -99.709737   -127.11306            0    3036.2688    17.966953    21.162696     21.91964            0            0            0    8334.4867    2410.7134    3720.4796    2977.6135   -1213.8942    453.26282    379.60727    17.966953    21.162696     21.91964           90           90           90 
    3000    241.93894   -126.86824   -99.879582   -126.86824            0     480.5024    17.875306    21.054749    21.807831            0            0            0     8207.597   -750.77916    1090.9458    1101.3406    718.56644    499.83002    121.75139    17.875306    21.054749    21.807831           90           90           90 
    3500    247.15719   -128.98301   -101.41225   -128.98301            0    4811.6264    17.898431    21.081986    21.836043            0            0            0    8239.4916    5685.9262    4114.4321    4634.5207    1676.4846    373.61414    1329.4237    17.898431    21.081986    21.836043           90           90           90 
    4000    234.41903   -127.94032   -101.79052   -127.94032            0    1436.7554    17.774283    20.935757    21.684583            0            0            0    8069.2253    526.40386     2925.289    858.57327    996.76754    762.91241   -1776.2333    17.774283    20.935757    21.684583           90           90           90 
    4500    240.32066   -128.48305   -101.67491   -128.48305            0    2373.5012    17.803489    20.970158    21.720215            0            0            0    8109.0679    4183.2208    2404.3594    532.92339   -203.36384    1245.0998   -2402.5021    17.803489    20.970158    21.720215           90           90           90 
    5000    246.16061   -128.63947   -101.17988   -128.63947            0    450.81822    17.846309    21.020594    21.772455            0            0            0    8167.7191    3542.6197   -1364.5435   -825.62156   -596.35123     1636.292    2708.6624    17.846309    21.020594    21.772455           90           90           90 
    5500    235.81792   -129.16445   -102.85861   -129.16445            0    3669.3011    17.853593    21.029174    21.781342            0            0            0    8177.7247    3330.3061    3827.6811    3849.9161   -543.49345     1479.126    110.16228    17.853593    21.029174    21.781342           90           90           90 
    6000    246.56763   -129.45544   -101.95045   -129.45544            0    1814.5274    17.782036    20.944889    21.694042            0            0            0    8079.7894     2300.326    2575.7424    567.51391    793.46055   -963.57143    2626.8067    17.782036    20.944889    21.694042           90           90           90 
    6500    235.49737   -128.44878   -102.17869   -128.44878            0    1595.1197    17.765741    20.925695    21.674162            0            0            0     8057.597    1728.0297   -270.20944     3327.539    328.92204    431.87127   -470.77963    17.765741    20.925695    21.674162           90           90           90 
    7000    242.64556    -127.4442   -100.37673    -127.4442            0    978.74693    17.738887    20.894064      21.6414            0            0            0     8021.113    397.38849    3064.1822   -525.32988    546.13796   -1054.8396    198.85776    17.738887    20.894064      21.6414           90           90           90 
    7500    249.45559   -127.76588    -99.93873   -127.76588            0    3538.2244    17.726694    20.879703    21.626524            0            0            0    8004.5841    4579.8465    -283.8893    6318.7161     1850.923    1523.4893   -1509.8951    17.726694    20.879703    21.626524           90           90           90 
    8000    253.23832   -128.79853   -100.54941   -128.79853            0    1094.9233    17.710355    20.860458    21.606592            0            0            0    7982.4717    2845.6581    1491.2125   -1052.1007   -77.249523     829.1868   -758.79718    17.710355    20.860458    21.606592           90           90           90 
    8500    239.74385    -128.0163   -101.27251    -128.0163            0    3330.6213    17.633649    20.770109     21.51301            0            0            0    7879.2005     1677.698    3447.3396    4866.8263   -1608.4947    984.94048     1466.473    17.633649    20.770109     21.51301           90           90           90 
    9000    249.10451   -127.12413   -99.336151   -127.12413            0    833.14408    17.668207    20.810814    21.555171            0            0            0    7925.6159      1864.77    1277.3355   -642.67331    1231.5181    349.12046   -1070.1011    17.668207    20.810814    21.555171           90           90           90 
    9500    252.21055   -127.34589   -99.211423   -127.34589            0    221.56181    17.729979    20.883572    21.630532            0            0            0    8009.0351    2316.1586    1242.4902   -2893.9634    2135.8111   -713.33527    311.36955    17.729979    20.883572    21.630532           90           90           90 
   10000    250.21548   -126.89409   -98.982178   -126.89409            0    1734.2387    17.591646    20.720634    21.461767            0            0            0      7823.03    4830.8931   -1641.8139     2013.637   -1350.2307     3590.293   -2467.6702    17.591646    20.720634    21.461767           90           90           90 
   10500     254.8291    -125.7112   -97.284635    -125.7112            0    2340.8253    17.643994    20.782294    21.525631            0            0            0    7893.0757    3525.9429    2624.9923    871.54065    1600.9428    1961.6645    560.15779    17.643994    20.782294    21.525631           90           90           90 
   11000    251.36693   -128.61741   -100.57705   -128.61741            0    1517.3822    17.721202    20.873234    21.619824            0            0            0    7997.1466    2097.1674    106.20884    2348.7704    1204.4412    600.64185    1701.8067    17.721202    20.873234    21.619824           90           90           90 
   11500    255.28295   -129.05564   -100.57844   -129.05564            0    2042.3448    17.698621    20.846637    21.592276            0            0            0     7966.616    2429.3328    2751.8282    945.87347   -210.62871   -1011.3371   -206.56528    17.698621    20.846637    21.592276           90           90           90 
   12000    244.29374   -126.53768    -99.28635   -126.53768            0    1828.2767    17.671489    20.814679    21.559174            0            0            0    7930.0327    2079.4087    1536.9113      1868.51    2608.1267    500.62244    -1130.254    17.671489    20.814679    21.559174           90           90           90 
   12500    245.31784   -126.81218   -99.446602   -126.81218            0     1487.652     17.79445    20.959511    21.709187            0            0            0    8096.7234   -178.70593     4960.914   -319.25207    287.89966   -1005.4737     51.12825     17.79445    20.959511    21.709187           90           90           90 
   13000    258.64038   -127.07295   -98.221229   -127.07295            0    1960.9092    17.766252    20.926297    21.674786            0            0            0    8058.2924    3237.8451   -974.16726    3619.0497    1663.1054    -580.8073   -244.39583    17.766252    20.926297    21.674786           90           90           90 
   13500    235.40311   -127.57941   -101.31984   -127.57941            0    2441.7351    17.675491    20.819392    21.564057            0            0            0    7935.4212    4191.5336    2218.1588    915.51304   -1688.9624    1240.6719   -1295.3081    17.675491    20.819392    21.564057           90           90           90 
   14000    242.32805   -128.02856    -100.9965   -128.02856            0    4448.3113     17.67718    20.821383    21.566118            0            0            0    7937.6974    6832.9021    3682.7924    2829.2393   -2085.0442    409.02371   -1048.3708     17.67718    20.821383    21.566118           90           90           90 
   14500     243.4431   -129.52506   -102.36862   -129.52506            0    2926.0718    17.659427    20.800471    21.544459            0            0            0    7913.8054    3334.3399    2686.9218    2756.9538    1570.5195   -116.94293    790.29335    17.659427    20.800471    21.544459           90           90           90 
   15000    244.89343    -128.6795   -101.36126    -128.6795            0   -412.24447     17.70033     20.84865    21.594361            0            0            0    7968.9236   -341.61974    452.16109   -1347.2748   -103.91775    -1892.715    2924.9349     17.70033     20.84865    21.594361           90           90           90 
   15500    253.21283   -129.13139   -100.88512   -129.13139            0    3744.7104    17.665992    20.808204    21.552469            0            0            0    7922.6351    2506.7135    5098.3641    3629.0537   -3191.3582    510.71933    292.20343    17.665992    20.808204    21.552469           90           90           90 
   16000    236.81781   -127.18644   -100.76906   -127.18644            0    1394.8945    17.521756    20.638313    21.376501            0            0            0    7730.1591    3838.3314    161.43216    184.91993    610.97056    809.81819   -1043.5601    17.521756    20.638313    21.376501           90           90           90 
   16500    251.00566   -129.24607   -101.24601   -129.24607            0    516.90802     17.58649    20.714562    21.455477            0            0            0    7816.1536    3004.2609   -562.17685   -891.36005    857.79986   -2019.8002   -84.251095     17.58649    20.714562    21.455477           90           90           90 
   17000    244.17494    -128.6253   -101.38722    -128.6253            0    2758.8553    17.700592    20.848958     21.59468            0            0            0    7969.2773    -367.9173    6594.5159    2049.9673   -499.65329    -872.6311   -572.41305    17.700592    20.848958     21.59468           90           90           90 
   17500    247.74117    -129.2015   -101.56559    -129.2015            0    368.02387    17.640321    20.777967     21.52115            0            0            0    7888.1477    700.05378   -816.70974    1220.7276     3168.467   -223.46578    329.06656    17.640321    20.777967     21.52115           90           90           90 
   18000    233.18339    -129.7586   -103.74665    -129.7586            0    4020.5215    17.497848    20.610152    21.347333            0            0            0    7698.5591    2469.2389    6449.4723    3142.8532    383.62876    2838.1822   -64.062172    17.497848    20.610152    21.347333           90           90           90 
   18500    248.90669   -130.51393   -102.74802   -130.51393            0    2642.2286    17.590524    20.719313    21.460398            0            0            0    7821.5334    2607.5778    3792.6813    1526.4268    -2777.108   -395.83413    610.27629    17.590524    20.719313    21.460398           90           90           90 
   19000    241.99659    -129.4931   -102.49802    -129.4931            0   -369.60814    17.634782    20.771443    21.514392            0            0            0    7880.7188    -1827.562    1437.8829   -719.14532   -968.89942   -326.27881   -1937.3964    17.634782    20.771443    21.514392           90           90           90 
   19500    245.08004   -128.94083   -101.60179   -128.94083            0    2581.1273     17.58409    20.711734    21.452548            0            0            0    7812.9535    2548.4627    2716.8827    2478.0366   -264.17218    -606.0554    373.75681     17.58409    20.711734    21.452548           90           90           90 
   20000    236.45405   -129.54639   -103.16959   -129.54639            0    3397.9802    17.615547    20.748787    21.490926            0            0            0    7854.9603    2027.6175    4879.1271    3287.1959   -1848.5575   -1040.4131    700.92891    17.615547    20.748787    21.490926           90           90           90 
   20500    239.75517   -129.67613   -102.93108   -129.67613            0    -30.44067    17.613532    20.746414    21.488468            0            0            0    7852.2649    314.61639    -347.1033   -58.835097   -529.32441    67.572551   -1045.5424    17.613532    20.746414    21.488468           90           90           90 
   21000    237.87403    -129.9181   -103.38289    -129.9181            0    1783.2831    17.597976     20.72809    21.469489            0            0            0    7831.4778   -1987.0973    3107.5884    4229.3581    601.77941   -1226.7535    910.25048    17.597976     20.72809    21.469489           90           90           90 
   21500     231.5226   -129.93771   -104.11101   -129.93771            0    1785.4936    17.624366    20.759174    21.501684            0            0            0    7866.7626    3068.1799    1460.2972    828.00384   -1765.3125    973.88342    725.83507    17.624366    20.759174    21.501684           90           90           90 
   22000    243.93252   -130.08092   -102.86988   -130.08092            0    5011.6657    17.585534    20.713435    21.454309            0            0            0    7814.8782    2864.5568    6488.5414    5681.8989   -828.94824    365.60085   -3192.4915    17.585534    20.713435    21.454309           90           90           90 
   22500    241.38402   -129.78746   -102.86071   -129.78746            0   -1672.3233    17.709811    20.859817    21.605927            0            0            0    7981.7356   -2280.5807    -627.2892      -2109.1   -3012.7273   -1417.7741   -1839.8093    17.709811    20.859817    21.605927           90           90           90 
   23000    250.50853   -130.83616   -102.89156   -130.83616            0    708.56081    17.662839    20.804491    21.548622            0            0            0     7918.394    860.00174    2338.5838   -1072.9031    973.64595   -916.02177   -460.69813    17.662839    20.804491    21.548622           90           90           90 
   23500    249.14941   -130.13019    -102.3372   -130.13019            0    2279.9571    17.743513    20.899514    21.647044            0            0            0     8027.391    1850.5513    922.42887     4066.891   -308.11269    246.84411    2020.8361    17.743513    20.899514    21.647044           90           90           90 
   24000    251.21173   -128.87004   -100.84699   -128.87004            0    2247.8262    17.766992    20.927169    21.675688            0            0            0    8059.2992    3675.5021    583.65375    2484.3228    198.18214    70.552693     641.6127    17.766992    20.927169    21.675688           90           90           90 
   24500    238.25088   -128.12881   -101.55156   -128.12881            0      1830.94    17.819957    20.989555    21.740306            0            0            0    8131.5914    1464.1674    4906.3085   -877.65591    1035.0345    732.40774   -924.70291    17.819957    20.989555    21.740306           90           90           90 
   25000    241.39656   -126.83878   -99.910632   -126.83878            0    1779.9548    17.816749    20.985776    21.736392            0            0            0    8127.2001    2774.8143    1801.5801    763.46984   -715.97182    173.52192    143.49736    17.816749    20.985776    21.736392           90           90           90 
   25500     247.3466   -127.82129   -100.22941   -127.82129            0     3870.409    17.705057    20.854218    21.600128            0            0            0    7975.3098    4360.8146    2969.7234    4280.6889    1055.1533    -467.7712    1054.3266    17.705057    20.854218    21.600128           90           90           90 
   26000    248.71035   -127.71624   -99.972226   -127.71624            0    2519.0841    17.700044    20.848313    21.594012            0            0            0    7968.5373    2075.4318    3165.0873     2316.733   -4609.7675   -982.11775    519.00279    17.700044    20.848313    21.594012           90           90           90 
   26500    238.12143   -127.98286   -101.42005   -127.98286            0    897.48688    17.708002    20.857686     21.60372            0            0            0    7979.2896   -1615.6128    4105.7772    202.29628    1205.7898   -38.667275    491.44595    17.708002    20.857686     21.60372           90           90           90 
   27000    259.91897   -128.91365   -99.919297   -128.91365            0   -360.96681    17.600595    20.731176    21.472685            0            0            0    7834.9755    1412.6578   -4049.7344    1554.1762    1515.8005    1740.2528   -1504.9484    17.600595    20.731176    21.472685           90           90           90 
   27500    236.50575   -127.55162   -101.16905   -127.55162            0    79.914611    17.615242    20.748428    21.490554            0            0            0    7854.5522    84.962508    276.64115   -121.85982    -317.5218   -100.44527   -1274.0883    17.615242    20.748428    21.490554           90           90           90 
   28000    243.94761   -129.53489   -102.32217   -129.53489            0    331.60106    17.713792    20.864507    21.610785            0            0            0    7987.1199    656.76455    1392.2159   -1054.1773    1845.4912   -294.22872    1201.0127    17.713792    20.864507    21.610785           90           90           90 
   28500    245.54878   -127.78939   -100.39806   -127.78939            0    3370.4223     17.64342    20.781617    21.524931            0            0            0    7892.3054     2915.196    3588.8473    3607.2237   -843.07298    1226.9469   -2032.1171     17.64342    20.781617    21.524931           90           90           90 
   29000    244.83754    -129.1219    -101.8099    -129.1219            0    3259.2427    17.681943    20.826992    21.571928            0            0            0    7944.1146      5657.35    2461.9802    1658.3979     1169.289   -354.35222    1360.1173    17.681943    20.826992    21.571928           90           90           90 
   29500    249.78978   -128.04594   -100.18151   -128.04594            0    2895.7676    17.692215    20.839091     21.58446            0            0            0    7957.9679    5062.9103    3467.7212     156.6712    1.2492963    697.42429   -699.77402    17.692215    20.839091     21.58446           90           90           90 
   30000    256.31928   -126.93759   -98.344787   -126.93759            0    1720.7077     17.64498    20.783455    21.526834            0            0            0    7894.3987      575.029    3680.2198    906.87442   -633.20911    399.31864    1550.9834     17.64498    20.783455    21.526834           90           90           90 
   30500    254.83556   -128.36554   -99.938253   -128.36554            0    2633.7007    17.622858    20.757399    21.499846            0            0            0    7864.7445    2963.1635    1292.3786    3645.5599   -19.389775     1899.319   -2451.1159    17.622858    20.757399    21.499846           90           90           90 
   31000    249.41945   -129.02613   -101.20302   -129.02613            0   -356.55539    17.656092    20.796543     21.54039            0            0            0    7909.3225   -32.622341   -790.88738   -246.15646    1957.3202    203.98594     255.4946    17.656092    20.796543     21.54039           90           90           90 
   31500    247.04209   -129.17744   -101.61952   -129.17744            0     -2322.35    17.695835    20.843355    21.588877            0            0            0    7962.8538   -1280.9727   -3319.0651   -2367.0122    871.76942   -2961.8062    1669.8925    17.695835    20.843355    21.588877           90           90           90 
   32000    243.26498   -129.33164   -102.19507   -129.33164            0    408.33355    17.698327     20.84629    21.591917            0            0            0    7966.2179   -978.00386     236.1574    1966.8471   -580.29645    2282.7422    1550.1441    17.698327     20.84629    21.591917           90           90           90 
   32500    243.22856   -129.19204   -102.05953   -129.19204            0    2554.4956    17.650367      20.7898    21.533406            0            0            0     7901.632    3092.4635    1494.6809    3076.3423    1227.9044   -2522.1882   -1256.2582    17.650367      20.7898    21.533406           90           90           90 
   33000    249.23798   -130.31152   -102.50865   -130.31152            0    2318.2266    17.644844    20.783295    21.526668            0            0            0    7894.2169    2200.3474     3901.052    853.28044    -1870.393    1278.6788    377.05926    17.644844    20.783295    21.526668           90           90           90 
   33500     250.2105   -130.33595   -102.42459   -130.33595            0    1494.5112    17.729519    20.883031    21.629971            0            0            0    8008.4122    967.13877    137.12614    3379.2686   -633.98445    1247.7054   -1494.1793    17.729519    20.883031    21.629971           90           90           90 
   34000    245.59978   -131.35635   -103.95933   -131.35635            0    2398.3841    17.585686    20.713614    21.454495            0            0            0    7815.0815    3308.1144    873.50499    3013.5329    974.43783    2209.9228    1039.9353    17.585686    20.713614    21.454495           90           90           90 
   34500    234.91295   -130.84738   -104.64249   -130.84738            0    1463.9378    17.546684    20.667675    21.406913            0            0            0    7763.1991    481.86964    4677.3626   -767.41894   -267.38936   -1836.0667   -1947.5395    17.546684    20.667675    21.406913           90           90           90 
   35000    235.51549   -131.33541    -105.0633   -131.33541            0    3440.0217    17.632436     20.76868     21.51153            0            0            0    7877.5743    4623.1947    2912.0713    2784.7992    1666.1871   -2104.9957   -1635.8917    17.632436     20.76868     21.51153           90           90           90 
   35500    235.50694   -130.05768   -103.78653   -130.05768            0    -737.2595    17.643507    20.781719    21.525036            0            0            0    7892.4214   -1141.1307   -1803.4033    732.75548    1297.5542   -3139.4059   -598.99035    17.643507    20.781719    21.525036           90           90           90 
   36000    245.61195   -130.67553   -103.27715   -130.67553            0    777.43641    17.651668    20.791332    21.534993            0            0            0    7903.3789   -2157.1919    657.55593    3831.9451   -224.91935    416.47276    539.01157    17.651668    20.791332    21.534993           90           90           90 
   36500    239.58627   -129.41379   -102.68758   -129.41379            0    1725.3796     17.63358    20.770027    21.512926            0            0            0    7879.1076    2358.7855   -1033.0174    3850.3708     1616.719    652.41673    1245.3971     17.63358    20.770027    21.512926           90           90           90 
   37000    246.51274   -130.00052   -102.50165   -130.00052            0     570.7584    17.669427    20.812251     21.55666            0            0            0    7927.2579    2869.3546    639.44411   -1796.5235   -2818.2294    2828.8697    1377.4147    17.669427    20.812251     21.55666           90           90           90 
   37500    244.17246   -130.05762   -102.81981   -130.05762            0    3415.0845    17.650573    20.790043    21.533658            0            0            0    7901.9086    3914.1836    3699.2329    2631.8371    939.03494   -788.91478    388.52312    17.650573    20.790043    21.533658           90           90           90 
   38000    244.74731   -128.85142   -101.54949   -128.85142            0    1916.8338    17.652287    20.792061    21.535748            0            0            0    7904.2104    3714.8172    236.49891    1799.1854   -385.87622    685.88913   -1801.4516    17.652287    20.792061    21.535748           90           90           90 
   38500    248.19945   -129.95623   -102.26921   -129.95623            0     3243.153    17.659761    20.800865    21.544867            0            0            0    7914.2546    1438.9843    2793.5352    5496.9395   -1819.6695     1127.415    1269.2417    17.659761    20.800865    21.544867           90           90           90 
   39000    242.98559   -130.30947   -103.20406   -130.30947            0    3646.3846    17.698974    20.847053    21.592707            0            0            0    7967.0923    4231.7766    2809.1954    3898.1819   -4636.2314    442.27841    75.132981    17.698974    20.847053    21.592707           90           90           90 
   39500    242.59691   -129.67402   -102.61197   -129.67402            0   -195.96513    17.677446    20.821696    21.566443            0            0            0    7938.0555   -3475.0057    2554.5684    332.54193     225.3641   -949.14308   -1475.3623    17.677446    20.821696    21.566443           90           90           90 
   40000    244.48739   -130.00233    -102.7294   -130.00233            0    2646.2318      17.6473    20.786188    21.529665            0            0            0    7897.5139    2084.9257    2002.6468    3851.1229   -784.91855   -254.88498   -767.64434      17.6473    20.786188    21.529665           90           90           90 
   40500    242.91129   -130.31729   -103.22017   -130.31729            0    2319.4616    17.670035    20.812966    21.557401            0            0            0    7928.0758    2073.7875     1738.035    3146.5623   -346.60512    93.014957    1654.9435    17.670035    20.812966    21.557401           90           90           90 
   41000    244.80945   -129.48937   -102.18051   -129.48937            0    1916.4229    17.576464    20.702752    21.443244            0            0            0    7802.7928    1591.8626    3655.5825    501.82359    993.89636   -2778.7054    2662.5487    17.576464    20.702752    21.443244           90           90           90 
   41500     255.5829   -130.83354   -102.32288   -130.83354            0    3225.0678    17.624538    20.759377    21.501895            0            0            0    7866.9939    2858.4404    1277.7367    5539.0264   -480.26017    614.88463   -1003.6736    17.624538    20.759377    21.501895           90           90           90 
   42000    251.59566   -130.68741   -102.62153   -130.68741            0    2454.6939    17.705948    20.855267    21.601215            0            0            0    7976.5136    1938.4351    2604.0346     2821.612   -2077.2194   -1587.6029    9.5049366    17.705948    20.855267    21.601215           90           90           90 
   42500    252.89727   -129.83684   -101.62576   -129.83684            0    3539.7436     17.61451    20.747565    21.489661            0            0            0    7853.5729     4486.207    2629.8798     3503.144    381.75987    1132.3937    2735.5307     17.61451    20.747565    21.489661           90           90           90 
   43000    240.92378   -128.25931    -101.3839   -128.25931            0    1137.7992    17.614049    20.747022    21.489098            0            0            0    7852.9558    3688.5643    163.58284   -438.74937   -2298.8487   -1341.1595   -2585.1764    17.614049    20.747022    21.489098           90           90           90 
   43500     235.9401   -129.21278   -102.89331   -129.21278            0    2498.3837    17.745699    20.902089    21.649711            0            0            0    8030.3583    3321.2024    562.51997    3611.4286    193.07117    756.29155   -1498.0651    17.745699    20.902089    21.649711           90           90           90 
   44000    252.18757   -131.11018   -102.97827   -131.11018            0    1208.7211    17.727563    20.880727    21.627585            0            0            0    8005.7618    3357.5915   -1826.5168    2095.0888   -2426.5828   -813.88465   -1059.0391    17.727563    20.880727    21.627585           90           90           90 
   44500    255.31296   -131.25481   -102.77427   -131.25481            0    2195.3278     17.68922    20.835563    21.580806            0            0            0    7953.9268    2534.6308    2775.7055     1275.647    904.94746    178.37673   -3016.3439     17.68922    20.835563    21.580806           90           90           90 
   45000    240.61292   -131.55116   -104.71043   -131.55116            0   -484.45968     17.66852    20.811182    21.555552            0            0            0    7926.0364   -1327.9668   -616.55486    491.14263    1666.2898   -843.60321    1205.0297     17.66852    20.811182    21.555552           90           90           90 
   45500    243.11367   -131.46485   -104.34515   -131.46485            0    4814.8629    17.569989    20.695126    21.435346            0            0            0    7794.1734    5751.3459    955.21854    7738.0244   -94.806576   -298.59636   -1081.2243    17.569989    20.695126    21.435346           90           90           90 
   46000    250.26689   -131.83999   -103.92234   -131.83999            0    4913.2708    17.602814    20.733788    21.475391            0            0            0    7837.9382    5358.4652    4563.6629    4817.6845    1979.2985   -1313.6108   -954.88095    17.602814    20.733788    21.475391           90           90           90 
   46500    239.39194    -130.2123   -103.50777    -130.2123            0    1133.1075    17.778469    20.940687     21.68969            0            0            0    8074.9273    927.71247    1708.4524     763.1577    51.281196    1525.6512    1296.9184    17.778469    20.940687     21.68969           90           90           90 
   47000    240.55225   -130.02102   -103.18705   -130.02102            0    295.74423    17.643945    20.782236    21.525571            0            0            0    7893.0101     724.7098   -251.33053    413.85342   -392.76244   -118.36337    650.21259    17.643945    20.782236    21.525571           90           90           90 
   47500    245.42826   -129.85912   -102.48123   -129.85912            0    2991.7769    17.604977    20.736336     21.47803            0            0            0    7840.8279    5542.0003    1489.5179    1943.8126    326.52081    396.21312    2958.8633    17.604977    20.736336     21.47803           90           90           90 
   48000    254.85493    -131.2324   -102.80295    -131.2324            0    4078.9877    17.619612    20.753574    21.495885            0            0            0    7860.3984    6193.5016    1254.8698    4788.5918   -724.93778   -2360.5011   -1878.3579    17.619612    20.753574    21.495885           90           90           90 
   48500    248.90639   -131.37092   -103.60504   -131.37092            0    1512.0112    17.668477    20.811131      21.5555            0            0            0    7925.9783    3218.3793    142.30361    1175.3508   -917.78231    -1632.342   -585.93395    17.668477    20.811131      21.5555           90           90           90 
   49000    254.61023   -130.46903   -102.06688   -130.46903            0   -744.35634    17.629577    20.765312    21.508043            0            0            0    7873.7433    1468.1426   -1726.6291   -1974.5825   -789.62594   -742.85555    1700.3262    17.629577    20.765312    21.508043           90           90           90 
   49500    267.74306   -129.05288   -99.185737   -129.05288            0    2116.6215      17.6533    20.793255    21.536984            0            0            0    7905.5716    2526.1827   -2078.3127    5901.9946    1914.5565    512.89965    343.52088      17.6533    20.793255    21.536984           90           90           90 
   50000    246.07001   -129.08012   -101.63064   -129.08012            0    354.78593    17.756797    20.915161    21.663251            0            0            0    8045.4337    2472.8536    813.25118    -2221.747    516.01402   -437.95399   -2065.3033    17.756797    20.915161    21.663251           90           90           90 
   50500    250.75761   -130.97019    -102.9978   -130.97019            0    4312.2114    17.724306     20.87689    21.623611            0            0            0    8001.3495    754.45801    5870.4083    6311.7679    559.57938   -1094.3857    654.50272    17.724306     20.87689    21.623611           90           90           90 
   51000    245.17457   -129.19288   -101.84329   -129.19288            0    2621.8198    17.704077    20.853063    21.598932            0            0            0    7973.9853    5000.9978    2279.7851    584.67648    2841.8135   -735.89138   -709.91356    17.704077    20.853063    21.598932           90           90           90 
   51500    244.19553   -130.55872   -103.31834   -130.55872            0     1745.721    17.727425    20.880564    21.627416            0            0            0    8005.5748   -537.22238    3825.8496    1948.5357    1331.4813    3463.0485   -2612.5261    17.727425    20.880564    21.627416           90           90           90 
   52000    235.79202    -130.6249   -104.32194    -130.6249            0    1537.5211     17.68602    20.831795    21.576903            0            0            0    7949.6119    2866.7348   -1324.9369    3070.7655   -1693.1424     882.8625   -1207.7408     17.68602    20.831795    21.576903           90           90           90 
   52500    241.03359   -128.42561   -101.53795   -128.42561            0    4125.8687    17.706042    20.855378    21.601329            0            0            0    7976.6406    6323.6173    2704.3648    3349.6239    411.10817   -3943.7059   -319.84524    17.706042    20.855378    21.601329           90           90           90 
   53000    242.69898   -129.97828   -102.90485   -129.97828            0    2093.0144    17.754343     20.91227    21.660256            0            0            0    8042.0978    -2201.699    2476.5044    6004.2377   -1377.4956    2482.5534   -1003.2243    17.754343     20.91227    21.660256           90           90           90 
   53500    246.14401   -130.22448   -102.76675   -130.22448            0    1035.4648    17.639048    20.776468    21.519597            0            0            0    7886.4397    1629.4496    108.06219    1368.8825    4036.8572   -2375.1923   -1666.6847    17.639048    20.776468    21.519597           90           90           90 
   54000    239.30409   -128.16025   -101.46552   -128.16025            0    2181.8705    17.641886     20.77981    21.523059            0            0            0    7890.2465    2679.4778    742.67399    3123.4598   -462.19348    -1001.329    1097.7843    17.641886     20.77981    21.523059           90           90           90 
   54500    234.23139   -130.24434   -104.11548   -130.24434            0     3822.665    17.592677    20.721848    21.463024            0            0            0    7824.4051    5453.1039    4458.1197    1556.7715    1787.4997    307.26762    1743.7344    17.592677    20.721848    21.463024           90           90           90 
   55000    241.47677   -129.84411   -102.90701   -129.84411            0    2484.2383    17.667212    20.809641    21.553957            0            0            0    7924.2766   -228.07179    3766.9482    3913.8384   -768.98309    400.69065   -409.87114    17.667212    20.809641    21.553957           90           90           90 
   55500    240.58366   -130.42454   -103.58707   -130.42454            0    5674.8278     17.67398    20.817613    21.562214            0            0            0    7933.3869     7334.721     5934.015    3755.7474    -1038.967    645.84477    1324.4041     17.67398    20.817613    21.562214           90           90           90 
   56000    259.22271   -130.36383   -101.44715   -130.36383            0    1163.9732    17.590442    20.719217    21.460298            0            0            0    7821.4243   -600.76556   -417.66025    4510.3454    672.46715   -614.52536   -2091.8417    17.590442    20.719217    21.460298           90           90           90 
   56500    251.76531    -129.7873    -101.7025    -129.7873            0    1395.2209    17.623992    20.758733    21.501228            0            0            0    7866.2616    601.66361    3367.3024    216.69676   -1660.7148    476.47724    1969.6514    17.623992    20.758733    21.501228           90           90           90 
   57000    247.63849   -129.94834    -102.3239   -129.94834            0    2832.6299    17.596403    20.726237     21.46757            0            0            0    7829.3779    2585.6716    3631.6319    2280.5861   -1548.5446   -103.24906    477.20152    17.596403    20.726237     21.46757           90           90           90 
   57500    244.99095   -129.85903   -102.52992   -129.85903            0    1017.2965    17.589642    20.718275    21.459322            0            0            0    7820.3573    2673.1674    3762.9369   -3384.2149    458.78543   -349.98886   -508.81037    17.589642    20.718275    21.459322           90           90           90 
   58000     237.4461   -129.24508   -102.75761   -129.24508            0    1563.0522    17.651959    20.791675    21.535349            0            0            0    7903.7703    1122.9708    2757.3073    808.87847    62.692262   -770.01115   -919.08671    17.651959    20.791675    21.535349           90           90           90 
   58500     243.9028   -130.10807   -102.90035   -130.10807            0    769.80808    17.675861    20.819829    21.564509            0            0            0    7935.9209   -605.28117   -2045.3773    4960.0827    2246.3503   -831.21854    1077.9275    17.675861    20.819829    21.564509           90           90           90 
   59000    251.17134   -129.52513   -101.50659   -129.52513            0    4084.2109    17.584416    20.712119    21.452946            0            0            0    7813.3889    3786.7591    4962.6084    3503.2652    244.50574   -2412.8573   -422.45351    17.584416    20.712119    21.452946           90           90           90 
   59500    256.94932   -130.92008     -102.257   -130.92008            0   -2009.3864    17.602497    20.733415    21.475004            0            0            0    7837.5146   -3459.0903    879.64765   -3448.7167    -548.0614    3147.8552   -143.43918    17.602497    20.733415    21.475004           90           90           90 
   60000     245.4191   -130.53829   -103.16142   -130.53829            0    1204.5463    17.693528    20.840638    21.586062            0            0            0    7959.7398   -1593.3805    2155.7536    3051.2657    81.872402    2078.1953     715.1905    17.693528    20.840638    21.586062           90           90           90 
   60500    242.58119   -130.51543   -103.45514   -130.51543            0    4503.0606    17.612529    20.745232    21.487244            0            0            0    7850.9231    5587.3977    4548.1743    3373.6097    -736.8388    1211.9678    846.73961    17.612529    20.745232    21.487244           90           90           90 
   61000    238.79516   -129.67955   -103.04159   -129.67955            0    -1570.591    17.618061    20.751747    21.493992            0            0            0    7858.3227   -2890.1628   -2108.0839    286.47384    2123.6058    1285.8329    53.305123    17.618061    20.751747    21.493992           90           90           90 
   61500     240.9685   -129.34217   -102.46177   -129.34217            0   -466.54131    17.611854    20.744437    21.486421            0            0            0    7850.0208    1692.0375   -2490.8839   -600.77744    671.75941    232.57493   -546.35501    17.611854    20.744437    21.486421           90           90           90 
   62000    256.59522   -130.38738   -101.76379   -130.38738            0    2335.4246    17.591971    20.721017    21.462163            0            0            0    7823.4631    4335.6243     535.0657     2135.584   -498.78581    528.03957   -2914.6692    17.591971    20.721017    21.462163           90           90           90 
   62500    249.98894   -130.23638   -102.34974   -130.23638            0    2725.9771    17.581202    20.708333    21.449025            0            0            0    7809.1054    1557.0932    2527.6141    4093.2241    870.45422    1653.7939    814.12776    17.581202    20.708333    21.449025           90           90           90 
   63000    254.89324   -129.21093    -100.7772   -129.21093            0    2350.4702    17.587134    20.715319    21.456261            0            0            0    7817.0114    4747.6719   -561.67388    2865.4127    -169.5128   -1522.9378    1373.1715    17.587134    20.715319    21.456261           90           90           90 
   63500    235.44985   -129.35357   -103.08879   -129.35357            0     2329.919    17.698194    20.846134    21.591755            0            0            0    7966.0384    2140.2164    3671.6007    1177.9399    1490.0235    3.1508386    1922.6826    17.698194    20.846134    21.591755           90           90           90 
   64000     245.6158   -129.22087   -101.82205   -129.22087            0   -2262.6516    17.651997     20.79172    21.535395            0            0            0    7903.8216   -2549.6729    381.01326   -4619.2952   -963.81656    209.86824    1647.8462    17.651997     20.79172    21.535395           90           90           90 
   64500     241.7479   -129.27578   -102.30844   -129.27578            0    3332.3529    17.550458     20.67212    21.411517            0            0            0    7768.2092    2200.5576    4143.3851     3653.116    2548.6712    1151.1642    1556.8611    17.550458     20.67212    21.411517           90           90           90 
   65000    239.31061   -131.20037   -104.50491   -131.20037            0   -708.64124    17.631045    20.767041    21.509833            0            0            0    7875.7096   -392.83904   -2528.1427    795.05799   -169.50511   -1350.5135   -2050.4489    17.631045    20.767041    21.509833           90           90           90 
   65500    236.31198   -129.85657   -103.49562   -129.85657            0     3344.801     17.56291    20.686787    21.426708            0            0            0    7784.7551    157.52416    6006.7652    3870.1137     3284.582   -1998.4545    938.11322     17.56291    20.686787    21.426708           90           90           90 
   66000    245.96349   -128.41838   -100.98078   -128.41838            0    2310.6115    17.531934    20.650301    21.388918            0            0            0    7743.6378    4843.1241    1008.2529    1080.4575   -1886.3824   -1150.2244   -1738.1845    17.531934    20.650301    21.388918           90           90           90 
   66500    242.62072   -128.59385   -101.52914   -128.59385            0    1066.0079     17.63396    20.770475     21.51339            0            0            0    7879.6174   -1857.6953    2373.4957    2682.2233    1241.0868   -360.56511    484.64228     17.63396    20.770475     21.51339           90           90           90 
   67000    242.74885    -130.1431    -103.0641    -130.1431            0    3429.8887    17.602963    20.733964    21.475573            0            0            0    7838.1374    2775.0071     3621.464    3893.1948    264.20911    1317.5698    2625.6015    17.602963    20.733964    21.475573           90           90           90 
   67500    236.70316   -129.49343   -103.08884   -129.49343            0    1474.3758    17.534471     20.65329    21.392014            0            0            0    7747.0008    2737.6197   -1815.7246    3501.2323   -1275.8831   -2630.0092   -1173.6474    17.534471     20.65329    21.392014           90           90           90 
   68000    239.34057   -129.82945   -103.13065   -129.82945            0    2043.5089    17.625633    20.760666     21.50323            0            0            0    7868.4594    785.84622   -285.45529    5630.1358      8.90597    103.91055    2157.1315    17.625633    20.760666     21.50323           90           90           90 
   68500    248.89761   -130.14959   -102.38468   -130.14959            0    2393.6044    17.653974    20.794048    21.537806            0            0            0    7906.4768    4805.1415    1406.5817    969.09004    2307.4499    2228.6483    58.882786    17.653974    20.794048    21.537806           90           90           90 
   69000    235.87003   -130.95406   -104.64241   -130.95406            0    1294.3904    17.556717    20.679492    21.419153            0            0            0    7776.5228    2728.2009   -1830.0352    2985.0057     571.6128   -1982.8958    9.2465993    17.556717    20.679492    21.419153           90           90           90 
   69500      237.932   -130.90752   -104.36585   -130.90752            0     2900.556    17.602681    20.733632    21.475229            0            0            0    7837.7605     1013.576    4017.4307    3670.6614    651.33777   -337.25874    570.70577    17.602681    20.733632    21.475229           90           90           90 
   70000    236.87088   -130.33887   -103.91557   -130.33887            0    5153.9937    17.599266     20.72961    21.471063            0            0            0    7833.2006    4145.9067    3570.1785    7745.8959   -478.52015   -1748.4511   -693.80629    17.599266     20.72961    21.471063           90           90           90 
   70500    242.08063   -130.16936    -103.1649   -130.16936            0     2848.042    17.549942    20.671513    21.410888            0            0            0    7767.5246    2323.9608    2323.1013    3897.0639    1106.0871   -2289.8663    1222.6083    17.549942    20.671513    21.410888           90           90           90 
   71000    233.77535   -129.78881   -103.71082   -129.78881            0    1609.2427     17.63565    20.772465    21.515451            0            0            0    7881.8824    2926.3382    1697.9416    203.44822     967.8638   -657.31845    97.443152     17.63565    20.772465    21.515451           90           90           90 
   71500    236.67612   -130.49301   -104.09144   -130.49301            0    4584.8786    17.634383    20.770973    21.513906            0            0            0    7880.1845    5325.9189    3168.6537    5260.0632   -398.51461    2517.9673   -876.99845    17.634383    20.770973    21.513906           90           90           90 
   72000    247.21879   -127.95988   -100.38225   -127.95988            0   -607.04861    17.701801    20.850382    21.596155            0            0            0    7970.9099    857.64579   -1937.9754   -740.81622   -47.190109    1802.9443   -354.77685    17.701801    20.850382    21.596155           90           90           90 
   72500     252.1691   -130.14874   -102.01889   -130.14874            0     1782.088    17.628808    20.764406    21.507104            0            0            0    7872.7121    871.36636    1861.1246    2613.7732   -522.81342    255.06999    3067.4221    17.628808    20.764406    21.507104           90           90           90 
   73000    231.50367   -129.80206   -103.97748   -129.80206            0    2672.0082    17.672596    20.815983    21.560526            0            0            0     7931.524    1601.9597    3885.8062    2528.2588    283.86428    182.24926   -1755.5139    17.672596    20.815983    21.560526           90           90           90 
   73500    240.00812   -130.39044   -103.61717   -130.39044            0    80.983243    17.681294    20.826228    21.571137            0            0            0      7943.24   -1578.4333    1329.0582    492.32488    34.698269   -1294.8083    1182.4757    17.681294    20.826228    21.571137           90           90           90 
   74000     246.3157   -131.30284   -103.82595   -131.30284            0     3049.155    17.630794    20.766745    21.509527            0            0            0    7875.3736   -79.168853    4103.9632    5122.6708    1981.6612   -1397.2514    621.76614    17.630794    20.766745    21.509527           90           90           90 
   74500    250.17093   -131.15944    -103.2525   -131.15944            0    3300.3862    17.687858     20.83396    21.579145            0            0            0    7952.0902    4303.9085    1203.4775    4393.7727    -470.0401    1759.8939   -2061.7285    17.687858     20.83396    21.579145           90           90           90 
   75000    234.94591   -129.13865   -102.93008   -129.13865            0    3594.6804    17.683576    20.828916    21.573921            0            0            0     7946.316    3639.9533    5690.5277      1453.56   -885.26477    723.86427    45.655845    17.683576    20.828916    21.573921           90           90           90 
   75500    250.87049   -131.89753   -103.91255   -131.89753            0    683.91169    17.579755    20.706628    21.447259            0            0            0    7807.1762    1602.7288   -593.47039    1042.4766   -525.12664    1596.6826    1151.7633    17.579755    20.706628    21.447259           90           90           90 
   76000    251.59259   -131.41648   -103.35095   -131.41648            0    1966.2004    17.584014    20.711645    21.452455            0            0            0    7812.8523    863.14254     5176.431   -140.97233     799.1444    2623.9018    1387.9566    17.584014    20.711645    21.452455           90           90           90 
   76500    231.00699   -132.47398    -106.7048   -132.47398            0    2172.0445     17.65163    20.791287    21.534946            0            0            0    7903.3274    1278.9864      1636.17     3600.977   -246.74899   -1434.3785    373.42397     17.65163    20.791287    21.534946           90           90           90 
   77000    229.42753   -131.30125   -105.70826   -131.30125            0   -597.26083    17.616876    20.750352    21.492547            0            0            0    7856.7381   -2383.8428    1474.3594     -882.299    826.22373    206.36156    1467.7683    17.616876    20.750352    21.492547           90           90           90 
   77500    246.09982   -130.67054   -103.21774   -130.67054            0     2317.386    17.579853    20.706744     21.44738            0            0            0     7807.308    503.57373    3786.0308    2662.5536   -1687.8646      1538.51    1138.3116    17.579853    20.706744     21.44738           90           90           90 
   78000    241.51493   -128.14803   -101.20667   -128.14803            0    2097.5909    17.645271    20.783797    21.527189            0            0            0    7894.7894    1096.3572     3855.561    1340.8546    1726.0599    1265.4159   -3461.1702    17.645271    20.783797    21.527189           90           90           90 
   78500    242.92466   -131.70869   -104.61007   -131.70869            0    3075.9816    17.581399    20.708564    21.449265            0            0            0    7809.3668    879.73187    3270.7661     5077.447   -3801.7065   -2878.5144   -651.47015    17.581399    20.708564    21.449265           90           90           90 
   79000    248.83453   -131.80926   -104.05139   -131.80926            0    1977.3108    17.585342    20.713209    21.454076            0            0            0    7814.6228    3828.3792    1026.0846    1077.4685   -2175.8974   -393.97729    1634.7737    17.585342    20.713209    21.454076           90           90           90 
   79500    258.87446   -131.15855   -102.28071   -131.15855            0    545.35261    17.655692    20.796072    21.539903            0            0            0    7908.7857   -47.667046   -562.95594    2246.6808   -1788.1022    2696.5314    -2075.262    17.655692    20.796072    21.539903           90           90           90 
   80000    249.33887   -129.50378   -101.68965   -129.50378            0    2551.2686    17.593916    20.723308    21.464536            0            0            0    7826.0588    1713.7153    2537.0476    3403.0429    2539.4439    1146.7914   -2991.9175    17.593916    20.723308    21.464536           90           90           90 
   80500    244.35828   -130.18219   -102.92365   -130.18219            0    2450.4275    17.589855    20.718525    21.459582            0            0            0    7820.6412    4130.1698    1838.1755    1382.9372    453.27987   -1123.5753   -902.36146    17.589855    20.718525    21.459582           90           90           90 
   81000    249.02008   -131.04721   -103.26865   -131.04721            0    2012.1373    17.705702    20.854977    21.600915            0            0            0    7976.1812     2070.315    2305.3171    1660.7799   -1727.1186    300.61766    1707.8906    17.705702    20.854977    21.600915           90           90           90 
   81500    245.97035   -131.35331   -103.91495   -131.35331            0    2000.4253    17.655171    20.795458    21.539266            0            0            0    7908.0846     2217.438    3259.9172    523.92082    403.85876    1250.7787    1044.2008    17.655171    20.795458    21.539266           90           90           90 
   82000    230.27846   -130.37903   -104.69112   -130.37903            0    1955.7855     17.68235    20.827472    21.572426            0            0            0    7944.6639   -103.70188    1674.0331    4297.0252     163.7766    -604.7239    2718.6576     17.68235    20.827472    21.572426           90           90           90 
   82500    252.21412   -129.78365   -101.64879   -129.78365            0    3743.9514    17.599113    20.729429    21.470876            0            0            0    7832.9954    5704.1266    5002.1756    525.55191   -2857.4704    854.49492   -1636.7486    17.599113    20.729429    21.470876           90           90           90 
   83000    233.01731   -127.79188   -101.79845   -127.79188            0   -1018.2914    17.755565     20.91371    21.661748            0            0            0    8043.7596   -2692.1416    335.60723   -698.33973    853.78902    1930.9245   -2053.4877    17.755565     20.91371    21.661748           90           90           90 
   83500    259.01505    -131.4131   -102.51959    -131.4131            0     2132.428    17.560404    20.683835    21.423651            0            0            0    7781.4235   -9.8035614    2072.4778    4334.6097   -1880.7586   -511.41581   -1980.1707    17.560404    20.683835    21.423651           90           90           90 
   84000    258.95699   -129.77426   -100.88722   -129.77426            0    3165.9848     17.58994    20.718625    21.459685            0            0            0    7820.7539    2555.4061    2702.7697    4239.7787   -685.82901    120.39021    1596.0913     17.58994    20.718625    21.459685           90           90           90 
   84500    248.63033   -129.65037   -101.91528   -129.65037            0    193.96777    17.654884     20.79512    21.538916            0            0            0    7907.6991    544.85637   -2002.9779    2040.0249    -1617.392   -2557.5285    297.82901    17.654884     20.79512    21.538916           90           90           90 
   85000    245.35781   -130.32312   -102.95309   -130.32312            0    8.0173608    17.584407    20.712108    21.452935            0            0            0    7813.3763   -130.84096   -1585.8209    1740.7139    308.64206    2510.7907    1997.9638    17.584407    20.712108    21.452935           90           90           90 
   85500    252.19117   -129.99141    -101.8591   -129.99141            0    2872.1282    17.586378     20.71443     21.45534            0            0            0    7816.0041    4300.7821    2971.1815    1344.4211   -1195.7767    226.23019    1979.9842    17.586378     20.71443     21.45534           90           90           90 
   86000    243.48241   -129.35682   -102.19599   -129.35682            0    321.55192     17.67331    20.816824    21.561396            0            0            0    7932.4848     2621.891    -808.3938   -848.84144    -1479.854   -809.83436    2649.6695     17.67331    20.816824    21.561396           90           90           90 
   86500    239.45919   -129.58464   -102.87261   -129.58464            0    2622.7036    17.579644    20.706497    21.447124            0            0            0    7807.0284    5376.7923    4073.6999   -1582.3813    1663.8389   -367.81673    1505.0687    17.579644    20.706497    21.447124           90           90           90 
   87000    242.28472   -131.23164   -104.20442   -131.23164            0    1240.5795    17.622765    20.757289    21.499732            0            0            0    7864.6198    1026.8441    993.79599    1701.0985   -1637.4715    750.10745    302.17444    17.622765    20.757289    21.499732           90           90           90 
   87500    242.67876   -129.97841   -102.90723   -129.97841            0    2654.5001    17.675077    20.818905    21.563552            0            0            0    7934.8644     1238.975    1692.3328    5032.1926   -495.72281    816.80521    466.58839    17.675077    20.818905    21.563552           90           90           90 
   88000    246.69586   -130.13197   -102.61268   -130.13197            0   -640.59965     17.56689    20.691475    21.431564            0            0            0     7790.049    528.65226   -1641.4312   -809.02007   -4711.8771    2851.1521   -1147.6062     17.56689    20.691475    21.431564           90           90           90 
   88500     240.6386   -129.87183   -103.02823   -129.87183            0    2530.9768    17.598346    20.728527    21.469941            0            0            0    7831.9723    2880.6719      1788.52    2923.7383    32.525355    2798.7841    128.96459    17.598346    20.728527    21.469941           90           90           90 
   89000    239.51786   -131.33814   -104.61957   -131.33814            0    3137.1251    17.570749     20.69602    21.436272            0            0            0    7795.1841    4882.3047    1101.9383    3427.1323   -670.55262   -1241.9712    318.48706    17.570749     20.69602    21.436272           90           90           90 
   89500     233.6337   -131.13496   -105.07277   -131.13496            0    3278.7794    17.563589    20.687587    21.427537            0            0            0    7785.6581    3949.9543    5619.3353    267.04882    -1467.395    1972.8527    298.01861    17.563589    20.687587    21.427537           90           90           90 
   90000    235.35541   -131.84366   -105.58941   -131.84366            0   -1108.0411     17.61362    20.746517    21.488575            0            0            0    7852.3824   -607.58893   -2665.7215   -50.813019   -1479.3091    2378.1336    705.55435     17.61362    20.746517    21.488575           90           90           90 
   90500    235.92754   -129.08872   -102.77065   -129.08872            0    2947.5678    17.571149    20.696491     21.43676            0            0            0    7795.7161    2818.2535     4491.475    1532.9748    447.74497   -818.87592    585.00319    17.571149    20.696491     21.43676           90           90           90 
   91000    248.08504   -130.65973   -102.98547   -130.65973            0   -304.43535    17.656537    20.797067    21.540933            0            0            0    7909.9208   -1223.7283    470.02625   -159.60398   -636.62134   -795.77137    1517.0104    17.656537    20.797067    21.540933           90           90           90 
   91500    233.93116   -131.71689   -105.62152   -131.71689            0    2238.7492    17.604838    20.736172     21.47786            0            0            0    7840.6421    3086.3341    2825.5049    804.40875    810.72212   -1405.2666    1096.8994    17.604838    20.736172     21.47786           90           90           90 
   92000    241.13793   -131.18762   -104.28832   -131.18762            0    1425.0307    17.619391    20.753315    21.495616            0            0            0    7860.1033   -3659.4183    3635.1142     4299.396    180.42576    1896.7465    466.50666    17.619391    20.753315    21.495616           90           90           90 
   92500    231.04822   -129.75096   -103.97718   -129.75096            0    1597.5302    17.604008    20.735195    21.476848            0            0            0    7839.5336    5287.0634    3308.9247   -3803.3974   -1355.8875   -552.82039    1560.6054    17.604008    20.735195    21.476848           90           90           90 
   93000    240.59335   -130.50114   -103.66259   -130.50114            0    4745.5789    17.562312    20.686083    21.425979            0            0            0    7783.9609    3901.4496    5718.0651     4617.222   -276.12427    1741.2656    257.48959    17.562312    20.686083    21.425979           90           90           90 
   93500    236.21698    -129.8503   -103.49994    -129.8503            0    1108.4934    17.574979    20.701003    21.441433            0            0            0    7800.8157   -1202.0801    3481.1354    1046.4248   -1180.6343    1601.0573    -1115.853    17.574979    20.701003    21.441433           90           90           90 
   94000    238.36915   -130.14984   -103.55941   -130.14984            0    1812.1919    17.538954     20.65857    21.397483            0            0            0    7752.9439    1665.4382    467.33297    3303.8045   -1965.0349   -2196.9669   -847.54695    17.538954     20.65857    21.397483           90           90           90 
   94500    237.01041   -130.27156   -103.83269   -130.27156            0    2421.7047     17.59957    20.729968    21.471434            0            0            0    7833.6062    2883.6128    1862.8666    2518.6348    448.09015    556.67316    3325.2077     17.59957    20.729968    21.471434           90           90           90 
   95000     238.8067   -131.61861   -104.97936   -131.61861            0    5270.0055    17.546042    20.666919    21.406129            0            0            0    7762.3466    5225.6605    3940.2928    6644.0632   -1590.0789   -583.34552   -1197.6006    17.546042    20.666919    21.406129           90           90           90 
   95500    245.36094     -130.115   -102.74462     -130.115            0    1201.8656     17.58275    20.710156    21.450914            0            0            0    7811.1681    713.50042   -13.894046    2905.9905    341.54622    3006.0592   -748.50959     17.58275    20.710156    21.450914           90           90           90 
   96000    246.18778   -129.04013   -101.57752   -129.04013            0    1170.1979     17.63674    20.773749    21.516781            0            0            0    7883.3444    1699.9314     451.5694    1359.0929    323.31743   -1912.8921   -490.77271     17.63674    20.773749    21.516781           90           90           90 
   96500    240.74124   -128.65947   -101.80442   -128.65947            0    1690.7302    17.597437    20.727456    21.468832            0            0            0    7830.7584    5729.8906    1251.1307   -1908.8307   -493.63504    1248.5566    313.31737    17.597437    20.727456    21.468832           90           90           90 
   97000    245.18166   -129.34031   -101.98992   -129.34031            0     425.5055    17.610685     20.74306    21.484994            0            0            0    7848.4572   -506.25351   -53.010342    1835.7804    -523.7506     1740.163    404.41204    17.610685     20.74306    21.484994           90           90           90 
   97500      244.261   -129.36107   -102.11339   -129.36107            0    -324.6771    17.638123    20.775378    21.518468            0            0            0    7885.1984   -618.33837    145.03318   -500.72612    866.96833   -1747.5468    1934.9517    17.638123    20.775378    21.518468           90           90           90 
   98000    232.14542    -129.8317   -103.93553    -129.8317            0    2175.4137    17.604663    20.735967    21.477648            0            0            0    7840.4094    4920.6689   -1499.4416    3105.0137    288.00067   -1304.2421    478.40606    17.604663    20.735967    21.477648           90           90           90 
   98500    247.91748   -130.45196   -102.79639   -130.45196            0    62.972745    17.575807    20.701978    21.442443            0            0            0    7801.9181   -1628.1559    122.34023    1694.7339     106.4572    2505.7025    2799.6343    17.575807    20.701978    21.442443           90           90           90 
   99000    249.96854   -130.74041   -102.85604   -130.74041            0    962.39866    17.524404    20.641432    21.379732            0            0            0    7733.6647   -27.641456     55.04166    2859.7958   -860.31937    699.41035   -910.02841    17.524404    20.641432    21.379732           90           90           90 
   99500    257.08589   -129.21197   -100.53365   -129.21197            0    1242.2394    17.670104    20.813048    21.557485            0            0            0     7928.169   -1086.9684    4238.6465    575.04004   -274.23888   -105.82889    3516.2559    17.670104    20.813048    21.557485           90           90           90 
  100000    245.58095   -129.06784   -101.67291   -129.06784            0    1605.1999    17.736993    20.891834     21.63909            0            0            0    8018.5447    3992.0928   -1431.5345    2255.0416    507.74683    220.65034   -1030.9523    17.736993    20.891834     21.63909           90           90           90 
  100500    255.87902   -129.87346   -101.32977   -129.87346            0   -108.64497    17.678234    20.822623    21.567403            0            0            0    7939.1165   -552.99874    901.19243   -674.12861    1432.5664   -2642.4957   -1476.6425    17.678234    20.822623    21.567403           90           90           90 
  101000    246.09418    -130.0124   -102.56023    -130.0124            0    3446.3864    17.602036    20.732872    21.474442            0            0            0    7836.8992    3074.6887    4954.4712    2309.9993   -25.068441    523.18733   -197.18258    17.602036    20.732872    21.474442           90           90           90 
  101500    232.99101   -129.26588   -103.27539   -129.26588            0   -1668.6805    17.670778    20.813842    21.558308            0            0            0    7929.0764   -2360.4502   -1389.5565   -1256.0348    256.04591   -752.09896    89.082423    17.670778    20.813842    21.558308           90           90           90 
  102000    246.90228   -129.77395   -102.23163   -129.77395            0    5164.9963    17.649575    20.788867     21.53244            0            0            0    7900.5682    5862.5172    6167.1551    3465.3167   -2374.5421    1512.9629   -1628.0772    17.649575    20.788867     21.53244           90           90           90 
  102500    233.95835   -129.27623   -103.17782   -129.27623            0    2094.4493    17.637657    20.774829      21.5179            0            0            0    7884.5739    3865.1895   -45.930124    2464.0886    506.59933    105.04459    825.89099    17.637657    20.774829      21.5179           90           90           90 
  103000    245.92045   -129.74398   -102.31119   -129.74398            0    823.60228    17.742193    20.897959    21.645433            0            0            0     8025.599    2093.9576   -1226.1574    1603.0066    3179.3798   -733.20157    1934.5914    17.742193    20.897959    21.645433           90           90           90 
  103500    247.97899   -131.18982   -103.52739   -131.18982            0    4081.9846    17.677551    20.821819    21.566571            0            0            0    7938.1968    6475.4688    3369.0906    2401.3943    -1717.538    1975.7607   -365.22831    17.677551    20.821819    21.566571           90           90           90 
  104000    244.78401   -129.82667   -102.52065   -129.82667            0    1737.7178    17.670593    20.813624    21.558082            0            0            0    7928.8269    2225.3238   -2224.9774    5212.8069    27.971325   -564.39499    306.54688    17.670593    20.813624    21.558082           90           90           90 
  104500    230.48527   -129.21362   -103.50264   -129.21362            0    3918.4416    17.650261    20.789675    21.533277            0            0            0    7901.4897     587.2182    5684.6949    5483.4118    274.75921    512.71582    146.32012    17.650261    20.789675    21.533277           90           90           90 
  105000    243.08234   -128.77853   -101.66233   -128.77853            0    803.16673    17.722297    20.874524     21.62116            0            0            0    7998.6294     3487.817    -1047.509   -30.807739    116.22876   -2979.1185    1750.3641    17.722297    20.874524     21.62116           90           90           90 
  105500    249.16164   -129.43542   -101.64107   -129.43542            0    3441.6512    17.747547    20.904265    21.651966            0            0            0    8032.8669    5606.4522    3169.6786    1548.8228   -769.66516     1666.345    1295.8092    17.747547    20.904265    21.651966           90           90           90 
  106000    246.08232   -129.80663   -102.35577   -129.80663            0    3034.8578    17.680293    20.825049    21.569916            0            0            0    7941.8911    3433.6265    2562.2378    3108.7089   -1193.0804    2239.7876   -713.72406    17.680293    20.825049    21.569916           90           90           90 
  106500    244.52962   -129.85688   -102.57923   -129.85688            0    3029.3361    17.652014     20.79174    21.535416            0            0            0     7903.844    345.51615    6190.5938    2551.8983    319.84521    21.156855   -1183.1341    17.652014     20.79174    21.535416           90           90           90 
  107000    256.25251   -131.84904   -103.26369   -131.84904            0    3714.1011    17.607474    20.739278    21.481077            0            0            0    7844.1652    4468.0897    1731.7157     4942.498   -2579.9064    18.191423   -896.65661    17.607474    20.739278    21.481077           90           90           90 
  107500    245.72785   -130.00674   -102.59543   -130.00674            0    524.54423    17.704782    20.853893    21.599792            0            0            0    7974.9374    2600.8812    257.07334   -1284.3219    818.69771    1199.5543    -3457.484    17.704782    20.853893    21.599792           90           90           90 
  108000    248.78758   -129.91951   -102.16688   -129.91951            0    3127.7253    17.753489    20.911264    21.659214            0            0            0    8040.9373    2299.5291    2255.0395    4828.6075    223.20622   -1383.1299    3022.6175    17.753489    20.911264    21.659214           90           90           90 
  108500    249.20828   -129.23128   -101.43172   -129.23128            0    1982.8695    17.709627      20.8596    21.605703            0            0            0    7981.4866   -976.79422    1740.0943    5185.3085    404.80614   -30.561421    1154.9385    17.709627      20.8596    21.605703           90           90           90 
  109000    241.33736   -130.15457   -103.23303   -130.15457            0    867.40841    17.614717    20.747809    21.489913            0            0            0    7853.8491    2827.7878   -1004.8947    779.33211   -1560.9194    257.62827   -846.05254    17.614717    20.747809    21.489913           90           90           90 
  109500    253.64283   -130.39567   -102.10143   -130.39567            0    3289.2623    17.745834    20.902248    21.649876            0            0            0    8030.5414    3700.5883    1698.9815    4468.2171    1850.5512   -1130.0329   -2890.3651    17.745834    20.902248    21.649876           90           90           90 
  110000    231.91921   -129.73899   -103.86806   -129.73899            0    1446.5125    17.805684    20.972743    21.722892            0            0            0    8112.0672    3713.8927     1718.624   -1092.9791   -672.72315   -220.59796   -1936.7115    17.805684    20.972743    21.722892           90           90           90 
  110500    241.07751    -131.6936   -104.80104    -131.6936            0    3869.3338    17.702739    20.851487      21.5973            0            0            0    7972.1777    3625.6772    5825.0694    2157.2546    1250.3084   -788.38438    -45.40694    17.702739    20.851487      21.5973           90           90           90 
  111000    232.58092   -129.16915    -103.2244   -129.16915            0    2645.0024    17.689701     20.83613    21.581393            0            0            0    7954.5758    20.466162    3922.8553    3991.6856     1298.659    900.36394    1896.4718    17.689701     20.83613    21.581393           90           90           90 
  111500    250.86409   -130.32516    -102.3409   -130.32516            0    3880.5968    17.603808     20.73496    21.476604            0            0            0    7839.2668    4995.2766    5849.6402    796.87367   -649.99658   -680.05424    2189.0899    17.603808     20.73496    21.476604           90           90           90 
[...]
 1973500    256.10388   -132.46953   -103.90076   -132.46953            0    4076.7347    17.574493    20.700431     21.44084            0            0            0     7800.169    4242.7989    703.03165    7284.3735    494.51446    1926.2954   -3874.6112    17.574493    20.700431     21.44084           90           90           90 
 1974000    248.44246   -131.66934   -103.95521   -131.66934            0   -1633.4563    17.603471    20.734562    21.476193            0            0            0    7838.8158   -2591.6762   -3533.2033    1224.5105     646.8331    621.62472   -289.05962    17.603471    20.734562    21.476193           90           90           90 
 1974500    247.33559   -132.70347   -105.11281   -132.70347            0    4442.4341    17.552142    20.674103    21.413571            0            0            0    7770.4452    1195.9626    6734.3632    5396.9763    683.61533   -4898.7352    513.84668    17.552142    20.674103    21.413571           90           90           90 
 1975000    240.84018   -132.25157   -105.38548   -132.25157            0    0.4288358    17.583175    20.710656    21.451431            0            0            0    7811.7335   -1673.3595   -789.59698     2464.243    704.56224    2833.9132    -192.9705    17.583175    20.710656    21.451431           90           90           90 
 1975500    247.08156   -132.54714   -104.98482   -132.54714            0   -1026.0579    17.582675    20.710067    21.450822            0            0            0    7811.0674   -159.34495   -3938.8484    1020.0196    547.59859    635.00263     318.5121    17.582675    20.710067    21.450822           90           90           90 
 1976000    236.85401   -130.86167   -104.44025   -130.86167            0    4490.3502    17.524961    20.642088    21.380411            0            0            0    7734.4015    7474.3698    2198.8596    3797.8212   -1994.5722   -1992.4585    2779.5568    17.524961    20.642088    21.380411           90           90           90 
 1976500    233.57326   -130.23554   -104.18009   -130.23554            0   -221.46543    17.683856    20.829246    21.574263            0            0            0    7946.6938   -1508.2286    2413.2391   -1569.4068    3487.2206    77.768797    2974.3307    17.683856    20.829246    21.574263           90           90           90 
 1977000    244.07019   -131.91586   -104.68947   -131.91586            0    3345.6441    17.637414    20.774543    21.517603            0            0            0    7884.2476    1976.0325    260.09128    7800.8086   -372.16061   -2287.5449    1510.3676    17.637414    20.774543    21.517603           90           90           90 
 1977500    243.85358   -131.61277   -104.41054   -131.61277            0   -454.19335    17.597326    20.727324    21.468696            0            0            0    7830.6097    240.31832   -804.34863   -798.54974    274.88246    73.001174    1004.4166    17.597326    20.727324    21.468696           90           90           90 
 1978000    244.08408   -131.34014    -104.1122   -131.34014            0    3523.8896    17.531151    20.649379    21.387963            0            0            0    7742.6006    2293.0166    3940.7711    4337.8811   -573.55548   -1240.3288    1096.8667    17.531151    20.649379    21.387963           90           90           90 
 1978500    239.44957   -131.53506    -104.8241   -131.53506            0    3037.0355    17.556126    20.678796    21.418432            0            0            0    7775.7378    1918.4301    557.59614    6635.0802   -1866.7165   -410.64811   -525.43115    17.556126    20.678796    21.418432           90           90           90 
 1979000      242.542     -132.401   -105.34507     -132.401            0    671.86947    17.598556    20.728773    21.470196            0            0            0    7832.2517    475.22814    864.10628    676.27398     847.6746    1526.4564    804.03365    17.598556    20.728773    21.470196           90           90           90 
 1979500    250.19063   -131.04619   -103.13705   -131.04619            0    5783.8973    17.560131    20.683514    21.423318            0            0            0     7781.061    4004.6111    4212.6631    9134.4177    1657.2267    2331.5848   -3236.7274    17.560131    20.683514    21.423318           90           90           90 
 1980000    248.09844   -131.40749   -103.73173   -131.40749            0    2700.1739    17.611871    20.744456    21.486441            0            0            0    7850.0427     2605.349    2568.5748     2926.598     1976.126    100.48026    1912.0965    17.611871    20.744456    21.486441           90           90           90 
 1980500    246.90846   -131.15097   -103.60796   -131.15097            0    4236.4293    17.527627    20.645229    21.383664            0            0            0    7737.9325    1818.8618    3078.8248    7811.6014     2983.908    -662.4655   -145.49607    17.527627    20.645229    21.383664           90           90           90 
 1981000    248.00575   -130.53111    -102.8657   -130.53111            0    1028.9403    17.666574     20.80889    21.553179            0            0            0    7923.4183   -1534.6771    1144.5079      3476.99    649.70191    12.939851    605.43844    17.666574     20.80889    21.553179           90           90           90 
 1981500    252.39423   -131.50196   -103.34701   -131.50196            0     3239.999    17.599731    20.730157     21.47163            0            0            0    7833.8208     6298.984    2546.6402    874.37272    -1846.389    594.24266     589.1485    17.599731    20.730157     21.47163           90           90           90 
 1982000    259.68227   -131.02512   -102.05717   -131.02512            0    761.73711    17.581673    20.708887    21.449599            0            0            0    7809.7322    832.73801    2752.3033     -1299.83    904.39815    4513.8745    714.66911    17.581673    20.708887    21.449599           90           90           90 
 1982500    244.85399   -131.43358   -104.11975   -131.43358            0    1838.8307    17.612159    20.744796    21.486792            0            0            0    7850.4281    2138.8888    3210.0202    167.58323   -2215.4349    2641.4861   -292.48525    17.612159    20.744796    21.486792           90           90           90 
 1983000    247.55918   -131.67179   -104.05619   -131.67179            0    4546.6142    17.643911    20.782196     21.52553            0            0            0    7892.9647      5679.23    2142.1485    5818.4641    458.01475    122.23528    2894.4011    17.643911    20.782196     21.52553           90           90           90 
 1983500    237.30669   -130.71619   -104.24427   -130.71619            0   -1117.5546    17.748656    20.905571    21.653318            0            0            0    8034.3725   -2258.3764   -2275.9439    1181.6564    1784.6064    3571.8123     -226.378    17.748656    20.905571    21.653318           90           90           90 
 1984000    243.02851   -131.25033   -104.14013   -131.25033            0    2128.5629    17.605509    20.736964     21.47868            0            0            0    7841.5396    900.84727    3039.8245    2445.0168   -791.31793   -2446.0538   -312.89172    17.605509    20.736964     21.47868           90           90           90 
 1984500     246.3779   -129.33603   -101.85221   -129.33603            0     1523.344    17.631569    20.767659    21.510473            0            0            0    7876.4128    321.84845    882.92038    3365.2632   -2421.0977   -1976.2316    1116.8208    17.631569    20.767659    21.510473           90           90           90 
 1985000    257.78161   -129.94793   -101.19201   -129.94793            0    1189.1755    17.667402    20.809865    21.554188            0            0            0    7924.5319   -1901.6398    1812.1306    3657.0358    694.45666   -222.27318     -490.507    17.667402    20.809865    21.554188           90           90           90 
 1985500    251.00116   -130.98819   -102.98863   -130.98819            0    2107.9493    17.644112    20.782433    21.525775            0            0            0    7893.2342    6781.1673   -1789.8748    1332.5554   -2331.0591   -625.21816     236.2773    17.644112    20.782433    21.525775           90           90           90 
 1986000    246.19742   -131.31944   -103.85575   -131.31944            0    2703.3338    17.579313    20.706107     21.44672            0            0            0    7806.5875    1600.0045     3535.146    2974.8509   -2452.9897     233.6183    -788.6048    17.579313    20.706107     21.44672           90           90           90 
 1986500    241.84353   -129.91108   -102.93307   -129.91108            0    531.74506    17.627575    20.762954      21.5056            0            0            0    7871.0607     471.3507    520.77065    603.11383   -481.86637   -234.19507   -1065.1839    17.627575    20.762954      21.5056           90           90           90 
 1987000    250.20734   -131.26602   -103.35501   -131.26602            0    2247.5965    17.619443    20.753376    21.495679            0            0            0    7860.1726    1391.5585    2166.6878    3184.5431    291.94607   -165.23163     2046.875    17.619443    20.753376    21.495679           90           90           90 
 1987500    244.34774   -132.00074   -104.74338   -132.00074            0    2043.9352    17.656793    20.797369    21.541246            0            0            0    7910.2655    937.90209    3769.7906     1424.113   -8.2178052    1244.6703   -1011.9289    17.656793    20.797369    21.541246           90           90           90 
 1988000    256.05826   -129.11529    -100.5516   -129.11529            0   -1020.3548    17.625551     20.76057    21.503131            0            0            0    7868.3502   -6220.4756    3920.2754    -760.8642    751.99349   -2749.7444    2538.1577    17.625551     20.76057    21.503131           90           90           90 
 1988500     259.7919   -130.22816   -101.24799   -130.22816            0    3106.0547    17.646153    20.784836    21.528265            0            0            0    7895.9733    4463.9901    3013.1845    1840.9897   -1717.8411    1081.6015     -372.101    17.646153    20.784836    21.528265           90           90           90 
 1989000    252.44624   -132.33325    -104.1725   -132.33325            0    910.92518    17.644938    20.783405    21.526783            0            0            0    7894.3427    799.23713    -246.6435    2180.1819    1404.8428   -55.126108   -249.82865    17.644938    20.783405    21.526783           90           90           90 
 1989500    229.47309   -130.45648   -104.85841   -130.45648            0   -10.202603    17.627365    20.762707    21.505344            0            0            0    7870.7799   -1892.5836    2832.8658   -970.88998    2767.3517    810.46279    1246.1684    17.627365    20.762707    21.505344           90           90           90 
 1990000     245.0959   -132.06972   -104.72891   -132.06972            0    3547.6905     17.58997     20.71866    21.459722            0            0            0    7820.7942     3881.739     2073.564    4687.7686    978.41897    111.81913   -563.53668     17.58997     20.71866    21.459722           90           90           90 
 1990500    239.75685   -131.98981   -105.24457   -131.98981            0   -131.39509    17.643655    20.781894    21.525218            0            0            0    7892.6209    592.45325    680.25052    -1666.889    2130.7634      2741.07   -24.265529    17.643655    20.781894    21.525218           90           90           90 
 1991000    228.76341   -132.82145   -107.30255   -132.82145            0     1403.429    17.624656    20.759516    21.502039            0            0            0    7867.1519    2207.7621   -494.67143    2497.1964    1005.9913   -111.03066    341.34741    17.624656    20.759516    21.502039           90           90           90 
 1991500    243.16217   -131.07867   -103.95357   -131.07867            0    3455.2022    17.531719    20.650048    21.388655            0            0            0    7743.3525    1071.0227    7191.2697    2103.3142    1952.5389    1759.8636    -496.2857    17.531719    20.650048    21.388655           90           90           90 
 1992000    237.88517   -131.57234   -105.03589   -131.57234            0    1943.9365    17.720741    20.872691    21.619262            0            0            0    7996.5224    284.44423    1565.2886    3982.0765   -269.21486    3677.9387   -1990.8261    17.720741    20.872691    21.619262           90           90           90 
 1992500    236.58735   -131.45048    -105.0588   -131.45048            0    400.42922     17.65991    20.801041    21.545049            0            0            0    7914.4554    148.91935    -417.8695    1470.2378    2900.2834    193.13189    405.14155     17.65991    20.801041    21.545049           90           90           90 
 1993000     250.6513   -132.09459   -104.13406   -132.09459            0    4710.1976    17.528518    20.646278    21.384751            0            0            0    7739.1125    4135.2019    4619.8743    5375.5164   -1562.3042    2227.7154   -1840.0902    17.528518    20.646278    21.384751           90           90           90 
 1993500    245.36923   -131.59374   -104.22244   -131.59374            0   -1114.8497    17.640785    20.778513    21.521716            0            0            0    7888.7694   -119.40312   -2532.0373   -693.10873    676.44702   -832.24116   -994.27688    17.640785    20.778513    21.521716           90           90           90 
 1994000    244.06191   -131.31306   -104.08759   -131.31306            0     4069.232    17.635095    20.771811    21.514774            0            0            0    7881.1382    4593.4108    4562.8631    3051.4221   -3040.7031   -252.62359    352.52694    17.635095    20.771811    21.514774           90           90           90 
 1994500    230.49801   -130.71698   -105.00458   -130.71698            0    433.31514    17.705055    20.854215    21.600125            0            0            0    7975.3067    457.93738   -648.63135    1490.6394   -356.46831   -1912.5764     2051.159    17.705055    20.854215    21.600125           90           90           90 
 1995000    247.53547   -133.11614   -105.50319   -133.11614            0    508.92009    17.592933    20.722151    21.463337            0            0            0    7824.7476   -832.15056    2103.9215    254.98933    71.717204   -2474.4025   -1122.2104    17.592933    20.722151    21.463337           90           90           90 
 1995500    237.99041   -133.32329    -106.7751   -133.32329            0    6123.1588    17.570143    20.695306    21.435533            0            0            0    7794.3775    4950.3973    7763.4112    5655.6679    682.24906   -1292.1826    1077.3279    17.570143    20.695306    21.435533           90           90           90 
 1996000    239.31957   -131.70009   -105.00363   -131.70009            0    433.42493    17.664986    20.807019    21.551241            0            0            0     7921.281   -2747.8728    972.17471    3075.9729    858.99562    140.43187   -1116.8531    17.664986    20.807019    21.551241           90           90           90 
 1996500    248.60493   -131.97565    -104.2434   -131.97565            0    2876.7501    17.677092    20.821279    21.566011            0            0            0    7937.5788     3579.771    5772.0732    -721.5937   -181.07852    2845.8747    665.20655    17.677092    20.821279    21.566011           90           90           90 
 1997000     238.1822   -130.92512   -104.35554   -130.92512            0     3042.674    17.698633    20.846651    21.592291            0            0            0    7966.6321    2588.5054    1928.7505    4610.7662   -590.26048   -785.83265   -73.396791    17.698633    20.846651    21.592291           90           90           90 
 1997500     250.1057   -132.53297   -104.63331   -132.53297            0    2000.6063    17.616183    20.749536    21.491702            0            0            0    7855.8105    2784.4872    1097.9901    2119.3417    201.21908    -2792.812    311.72735    17.616183    20.749536    21.491702           90           90           90 
 1998000    230.64982   -131.01135   -105.28202   -131.01135            0    2812.0055    17.704579    20.853655    21.599545            0            0            0    7974.6642    2308.2998    2301.3116     3826.405   -1640.3796    665.39845    1179.9944    17.704579    20.853655    21.599545           90           90           90 
 1998500    233.94417   -130.77574   -104.67891   -130.77574            0    2862.8364    17.564937    20.689174    21.429181            0            0            0    7787.4509    1684.6871    6366.8134    537.00872   -754.96281   -1345.1034   -1720.0127    17.564937    20.689174    21.429181           90           90           90 
 1999000    231.85837   -131.87097   -106.00682   -131.87097            0   -182.34269    17.656858    20.797446    21.541325            0            0            0    7910.3525   -370.46525    -483.4128    306.84999    37.009745    -698.2706    880.08606    17.656858    20.797446    21.541325           90           90           90 
 1999500    235.61202   -130.39053   -104.10765   -130.39053            0    1500.7069     17.59694     20.72687    21.468225            0            0            0    7830.0948    415.43771    2798.3715    1288.3116   -5.7368743    1417.0549   -881.94703     17.59694     20.72687    21.468225           90           90           90 
 2000000    242.49842   -131.27101   -104.21995   -131.27101            0     1085.902    17.587865    20.716181    21.457154            0            0            0    7817.9874   -1127.3702    1156.8961    3228.1802    522.28454    179.62282   -800.18253    17.587865    20.716181    21.457154           90           90           90 
Loop time of 11029.1 on 1 procs for 2000000 steps with 864 atoms

Performance: 7.834 ns/day, 3.064 hours/ns, 181.339 timesteps/s
73.5% CPU use with 1 MPI tasks x 1 OpenMP threads

MPI task timing breakdown:
Section |  min time  |  avg time  |  max time  |%varavg| %total
---------------------------------------------------------------
Pair    | 9591.2     | 9591.2     | 9591.2     |   0.0 | 86.96
Bond    | 0.35398    | 0.35398    | 0.35398    |   0.0 |  0.00
Neigh   | 1310.6     | 1310.6     | 1310.6     |   0.0 | 11.88
Comm    | 45.634     | 45.634     | 45.634     |   0.0 |  0.41
Output  | 9.7435     | 9.7435     | 9.7435     |   0.0 |  0.09
Modify  | 62.867     | 62.867     | 62.867     |   0.0 |  0.57
Other   |            | 8.663      |            |       |  0.08

Nlocal:        864.000 ave         864 max         864 min
Histogram: 1 0 0 0 0 0 0 0 0 0
Nghost:        4274.00 ave        4274 max        4274 min
Histogram: 1 0 0 0 0 0 0 0 0 0
Neighs:         0.00000 ave           0 max           0 min
Histogram: 1 0 0 0 0 0 0 0 0 0
FullNghs:      204776.0 ave      204776 max      204776 min
Histogram: 1 0 0 0 0 0 0 0 0 0

Total # of neighbors = 204776
Ave neighs/atom = 237.00926
Ave special neighs/atom = 0.0000000
Neighbor list builds = 200000
Dangerous builds not checked

unfix		3
unfix		2

write_data	data.final.${pid}
write_data	data.final.0
System init for write_data ...

write_restart   restart.lmp.${pid}
write_restart   restart.lmp.0
System init for write_restart ...
Unloading pair style deepmd
Unloading compute style deepmd
Unloading fix style deepmd
Total wall time: 3:03:52
