LAMMPS data file via write_data, version 23 Jun 2022, timestep = 0

2268 atoms
2 atom types

0.7114932543457613 46.73920574564778 xlo xhi
0 20.047001 ylo yhi
0 20.857 zlo zhi

Masses

1 1.008
2 15.999

Atoms # full

120 0 2 0.5897 4.184560734058393 1.8933269079808768 1.5713452870149456 0 1 0
118 0 1 -1.1794 4.7086259475794 1.0488897357961176 1.6521105378626033 0 1 0
1600 0 1 -1.1794 2.782857656837232 2.916301036085976 0.8700915942529539 0 0 0
1602 0 2 0.5897 2.183234355262168 2.8012381430191238 1.6099594324213469 0 0 0
119 0 2 0.5897 5.5407466519748105 1.2584445500596806 2.0980371196545042 0 1 0
578 0 2 0.5897 5.393932535663367 1.712426500234628 0.1254166021914725 0 0 1
1601 0 2 0.5897 2.99821108682525 3.8517282581063665 0.6873862052489005 0 0 0
251 0 2 0.5897 5.543594653917455 3.9666033204112483 2.095307833936195 1 0 0
1041 0 2 0.5897 1.3037736886978628 1.968334003972877 3.9910033349030543 1 0 0
1080 0 2 0.5897 4.269452159241089 2.528737791339283 4.11919908752574 0 0 -1
1039 0 1 -1.1794 1.0739141509213435 1.707346988182477 3.0380143251524663 0 0 0
1040 0 2 0.5897 1.0604678260308844 0.7328488277894946 3.057108236765878 0 0 0
272 0 2 0.5897 7.890264856943672 0.8812433573144595 1.8943249138949052 0 1 0
271 0 1 -1.1794 7.201282801262957 1.5252629631068164 2.1300129099061307 0 1 0
571 0 1 -1.1794 11.280113722529233 1.9615307316379476 2.5777609005227022 0 0 -1
572 0 2 0.5897 10.565572398810144 2.621217820079638 2.4570919379839538 0 0 -1
1526 0 2 0.5897 10.115354459142711 0.6730335023813822 1.743340628473178 0 2 0
573 0 2 0.5897 11.15124898673744 1.6944181931701388 3.4955719290686518 0 0 -1
273 0 2 0.5897 7.576710382820961 1.9575006147729703 2.9135601001543248 0 1 0
1538 0 2 0.5897 6.68551555499177 3.883381921283415 0.1114916922320744 0 1 0
2020 0 1 -1.1794 10.172951425031329 3.6159755568364407 0.35522089466475126 0 -1 0
519 0 2 0.5897 8.643516880057632 3.968873004445291 2.2112464798808706 0 0 1
1525 0 1 -1.1794 9.41467373679233 0.0957476526304794 1.3571326050346302 0 2 0
250 0 1 -1.1794 5.072798943011636 4.231394227298578 2.91120821095389 1 0 0
759 0 2 0.5897 1.952644193250892 5.243664045970423 2.4725366232325903 0 0 0
758 0 2 0.5897 3.4454781008659925 4.767897912685221 2.9133615615178368 0 0 0
757 0 1 -1.1794 2.582091133879774 5.063300751108822 3.2008921146521647 0 0 0
252 0 2 0.5897 5.539474517843956 5.004392854792033 3.336427641778548 1 0 0
522 0 2 0.5897 4.477090539260818 7.4153140472129655 3.086143168527685 0 1 0
2072 0 2 0.5897 3.7353031282060623 6.022955286824036 0.8008233905809956 0 0 0
2071 0 1 -1.1794 3.2399389018971765 5.428897319858344 0.20670804508399657 0 -1 0
520 0 1 -1.1794 3.9932492111580546 7.852309016585936 2.3587669219747824 0 1 0
35 0 2 0.5897 0.8389888197840956 7.2419011099603114 1.5972557031054633 0 0 1
521 0 2 0.5897 4.576987178427701 7.9219133524801135 1.6278254097110094 0 1 0
1378 0 1 -1.1794 5.482325123555499 7.762727182100802 0.0884754354565392 0 0 1
1379 0 2 0.5897 6.1292532316743085 7.065595720376448 0.01571155664734586 0 0 1
34 0 1 -1.1794 0.8328506305961948 6.271745047222035 1.5025134910386941 0 0 1
2073 0 2 0.5897 2.3430333355322963 5.5981551413817865 0.37098646062073193 0 -1 0
1630 0 1 -1.1794 11.374338523378563 5.7625217817790215 2.592134723391408 0 1 1
1537 0 1 -1.1794 6.85727734138894 4.31103704314017 0.9320409013757412 0 1 0
321 0 2 0.5897 8.345920689552406 7.041998917186257 1.2895823591256428 0 0 1
319 0 1 -1.1794 8.132683623518979 6.549050720080129 0.5370345087366873 0 0 1
1539 0 2 0.5897 7.39881399263613 5.083116492306913 0.8131134163626608 0 1 0
517 0 1 -1.1794 9.197237223893897 4.1324497325467435 2.977034403249616 0 0 1
518 0 2 0.5897 9.85594247885577 4.786292129983418 2.8106589538045523 0 0 1
1631 0 2 0.5897 11.719996436267671 5.68116021222227 1.6458912342131118 0 1 0
1287 0 2 0.5897 8.57519066485058 7.745619056944675 3.901532691187664 0 0 1
2021 0 2 0.5897 11.053098434651341 4.056918295414596 0.1931079105295744 0 -1 0
1632 0 2 0.5897 12.137482867482314 5.491850628725834 3.1064550619601348 0 1 0
306 0 2 0.5897 2.3439403518401942 8.592161939743493 2.1888847355682275 0 1 1
1036 0 1 -1.1794 6.302768579290929 9.90431569668739 3.2601459708637024 0 0 0
1037 0 2 0.5897 6.353078645716593 10.128844321168835 2.2885716155230265 0 0 0
139 0 1 -1.1794 1.5924731168084438 11.733065475441872 0.9358128017685404 0 1 0
140 0 2 0.5897 1.5133834492179428 10.767117203335054 1.1084598006814315 0 1 0
304 0 1 -1.1794 1.4760285657514385 8.957671475828649 2.275534362465846 0 1 1
305 0 2 0.5897 1.3762167094051119 9.580520849350668 3.0392254985016813 0 1 1
791 0 2 0.5897 1.423147490027664 11.695699802269857 3.7322827396574034 0 1 0
534 0 2 0.5897 5.556109513425798 10.908265939951502 0.6158360517915087 0 0 2
532 0 1 -1.1794 6.3950070098076734 10.333331435595923 0.6279644455878466 0 0 2
1038 0 2 0.5897 5.4723373612538095 9.564831427631187 3.4167287399383404 0 0 0
533 0 2 0.5897 6.043661626506369 9.474693388846857 0.3506395724714552 0 0 2
1052 0 2 0.5897 3.242139011520608 11.995409862160107 0.4318335995414133 0 0 1
141 0 2 0.5897 1.1380568035552496 11.839592793670777 0.136493764326015 0 1 0
1285 0 1 -1.1794 8.235080933219347 8.043274497992432 3.057676008288631 0 0 1
24 0 2 0.5897 9.905834218994663 8.319489726212863 2.0310173178247317 0 1 1
1286 0 2 0.5897 7.546106199084217 8.71437696228587 3.1522390748379725 0 0 1
22 0 1 -1.1794 10.440884865922166 8.790796905103889 1.4009741089076975 0 1 1
23 0 2 0.5897 10.176130219933306 9.716552503901479 1.4034024783900043 0 1 1
1058 0 2 0.5897 9.210606989430428 11.931723137675082 2.1682954955979468 0 0 0
1057 0 1 -1.1794 9.914539695778627 11.485863073354881 1.6519676811930621 0 0 0
1360 0 1 -1.1794 10.585931570345755 10.165496263742638 4.16342280393215 0 0 0
1361 0 2 0.5897 10.485844478646388 10.462055144997827 3.220565330167529 0 0 0
2156 0 2 0.5897 12.163126040961894 8.514364999719213 1.2528771767254916 0 -1 0
1051 0 1 -1.1794 4.239149536797784 12.19384920745402 0.35765351540324003 0 0 1
1113 0 2 0.5897 1.0432373220824815 14.395233738405363 2.9716010750466437 0 -1 0
3 0 2 0.5897 4.962409780132583 13.08865023122081 1.7844196395568244 0 -1 0
1112 0 2 0.5897 1.2998956704458426 13.077681300114861 2.166995740854554 0 -1 0
2 0 2 0.5897 5.3943534691037955 14.10070269802107 2.8797914769815947 0 -1 0
1 0 1 -1.1794 5.497005468793678 13.15831182505238 2.604286291342019 0 -1 0
1111 0 1 -1.1794 1.0871739430169034 13.42737787115407 3.0283593447791386 0 -1 0
47 0 2 0.5897 2.49422133957538 15.982061729860238 0.14954417841472062 0 0 1
2092 0 1 -1.1794 4.641603729860707 15.900512498974777 2.6617109376620434 0 -1 1
1059 0 2 0.5897 10.551621068839063 12.189038645984732 1.7424529178341788 0 0 0
55 0 1 -1.1794 8.034527428741255 12.765201891677464 2.761324203924764 0 0 0
57 0 2 0.5897 7.060337067027576 12.706072589364103 2.507290821977507 0 0 0
636 0 2 0.5897 10.824793783673856 14.461011588560746 3.6949157401402286 0 0 0
1647 0 2 0.5897 8.416922660761497 14.477363756659585 2.168874085006339 0 -1 -1
1645 0 1 -1.1794 8.798800181725564 15.03242260984127 1.4754058071067848 0 -1 -1
1084 0 1 -1.1794 11.556453080888621 13.47443637810333 2.5151078302985743 0 -1 0
56 0 2 0.5897 8.08508374699378 12.685155851471167 3.726239122749981 0 0 0
1646 0 2 0.5897 8.937505200702175 15.923472627134894 1.7832471930481169 0 -1 -1
635 0 2 0.5897 9.816491507368768 15.624220066220424 3.8921221959178403 0 0 1
1086 0 2 0.5897 12.128015622712828 13.162142128470459 3.3396557499221027 0 -1 0
783 0 2 0.5897 10.318433990745529 14.2838603821567 0.4892734330328803 0 -1 1
727 0 1 -1.1794 1.217366277671894 16.27178027827816 2.7259748749718904 1 0 0
345 0 2 0.5897 3.7897735762048934 19.752919820855645 2.549571435269347 0 -1 0
2093 0 2 0.5897 4.063151792228129 16.337978757525303 2.0213843146378982 0 -1 1
729 0 2 0.5897 1.5327782833002483 16.61333854432323 3.5867092930846014 1 0 0
2094 0 2 0.5897 4.5425489358905216 16.214874803649472 3.568631980598874 0 -1 1
728 0 2 0.5897 1.8925523366699817 16.462973290744724 2.027059042342377 1 0 0
46 0 1 -1.1794 2.6997302236285234 16.74588243866612 0.6869418743385864 0 0 1
343 0 1 -1.1794 3.233274345644186 19.25279258561684 3.1370476317195783 0 -1 0
291 0 2 0.5897 1.126854856230733 19.49885301371729 0.6429187189682216 0 -1 0
290 0 2 0.5897 1.7575064139732122 18.853812190296797 1.8465760327747902 0 -1 0
48 0 2 0.5897 2.9861961255906935 17.47647725141159 0.12377932470409751 0 0 1
881 0 2 0.5897 5.997636599287416 17.455310586950226 2.4334778804350634 0 -1 0
866 0 2 0.5897 4.65129149994465 18.966201465234946 0.08522451922531542 0 0 1
289 0 1 -1.1794 0.885247496395198 19.195963786999403 1.529096532262683 0 -1 0
344 0 2 0.5897 3.6495828739346567 18.47091758314199 3.447985541719416 0 -1 0
880 0 1 -1.1794 6.379384701236252 18.315149386036133 2.577002311780254 0 -1 0
882 0 2 0.5897 6.599596860487781 18.73377665623499 1.7512138751374682 0 -1 0
361 0 1 -1.1794 10.072988979462865 17.45150194131833 1.880118559205165 0 0 1
1527 0 2 0.5897 9.860027177094498 19.285300274046847 1.4333847132606539 0 1 0
362 0 2 0.5897 10.333490824181919 17.859181111587056 2.7162972770213702 0 0 1
363 0 2 0.5897 10.922072721340916 17.158542846466663 1.4010230674741733 0 0 1
1283 0 2 0.5897 7.655248422230089 17.02814353523315 3.592718511836278 0 -1 0
1282 0 1 -1.1794 7.968265281753117 16.293612452942064 4.054071894204354 0 -1 0
1127 0 2 0.5897 12.189617231793274 16.11703921041542 3.974213366317344 0 0 1
332 0 2 0.5897 0.8220626765133439 0.5552795581756077 6.027083818826832 0 0 0
1079 0 2 0.5897 5.0295663851986046 1.5273146939195938 4.977651890379916 0 0 -1
1778 0 2 0.5897 3.262464599054915 1.03019712534951 5.601921367002139 0 0 0
509 0 2 0.5897 2.48713601258021 3.0308451686155586 6.676500748626282 0 0 1
1078 0 1 -1.1794 4.4256159506056045 2.2674213880169685 5.053564924843087 0 0 -1
19 0 1 -1.1794 1.5043431974335704 3.554356382892194 5.3040760249797865 0 0 0
1553 0 2 0.5897 5.832546814258144 3.726676967542157 5.661456925849463 0 0 0
1777 0 1 -1.1794 2.5147588466376067 0.3501392040224665 5.5117252481568215 0 0 0
508 0 1 -1.1794 2.737711276123353 3.1357568848206405 7.642368958725086 0 0 1
510 0 2 0.5897 3.6066687007113414 2.7747855106876296 7.705117343704852 0 0 1
21 0 2 0.5897 1.7109132438182564 3.9300791738115803 4.423145162983764 1 0 0
2017 0 1 -1.1794 6.007757234582116 0.10166292939380503 4.874947005257234 0 0 0
844 0 1 -1.1794 10.426751148576416 0.9281143098944616 5.102475099415432 0 0 0
2018 0 2 0.5897 6.811069858496228 0.6407436930013078 4.69444656911051 1 0 0
606 0 2 0.5897 7.923303533939941 2.446348854153762 5.490579945434465 0 1 0
604 0 1 -1.1794 7.95678707111249 1.7202053754998274 4.859363707773862 0 1 0
605 0 2 0.5897 8.849077942210203 1.373705111532712 5.021852597285191 0 1 0
846 0 2 0.5897 10.834150292373405 1.1232648610510854 5.98325040177427 0 0 0
1549 0 1 -1.1794 11.111152921826935 2.2102824118150903 7.40296291490748 0 1 0
1550 0 2 0.5897 10.722350360313525 1.8194288114919246 8.205585913433024 0 1 0
1551 0 2 0.5897 10.629890959424717 2.936768441387141 7.046308042267771 0 1 -1
348 0 2 0.5897 9.526473682119706 3.9189552751086123 4.81465120391087 0 1 0
1552 0 1 -1.1794 6.740562096313436 3.869675754253631 5.837737667779291 0 0 0
58 0 1 -1.1794 5.549939593226928 6.619785879584752 4.358761154784743 0 0 0
60 0 2 0.5897 6.455133738431218 7.058272691614266 4.482713665418417 0 0 0
1302 0 2 0.5897 2.345199192723989 6.466479697691767 4.3741811516140245 0 1 0
1269 0 2 0.5897 2.6440271767337107 6.14394508129083 6.5375974812713045 0 1 0
1300 0 1 -1.1794 2.318259450103403 6.976952271297933 5.237754508900422 0 1 0
1267 0 1 -1.1794 2.690540720906645 5.89802391839692 7.446405084711906 0 1 0
42 0 2 0.5897 4.080482639181793 6.7128038808586785 7.48666061467181 0 0 1
40 0 1 -1.1794 4.9886198074699895 7.020190900149925 7.229743169454128 0 0 1
59 0 2 0.5897 5.178999289527293 6.792458704529287 5.265549046445575 0 0 0
1268 0 2 0.5897 2.775006682377203 4.921039357962863 7.395409846196547 0 1 0
1301 0 2 0.5897 2.8623137905982934 7.774916252063153 5.175342224367509 0 1 0
41 0 2 0.5897 5.225472710298948 7.768859442378162 7.778010577001169 0 0 1
1554 0 2 0.5897 6.9561167888429996 4.714224707878589 5.385560063548972 0 0 0
1266 0 2 0.5897 11.162592201652862 6.963245643680328 4.521001754023439 0 -1 2
346 0 1 -1.1794 9.946300730932848 4.08774631202465 5.699225212736653 0 1 1
1264 0 1 -1.1794 10.443751564769313 7.49472035120409 4.931512846595842 0 -1 2
347 0 2 0.5897 9.520383038039276 4.90820103722291 6.011086326688662 0 1 0
831 0 2 0.5897 10.93261257528734 6.294417298145973 7.93889140512111 0 0 0
829 0 1 -1.1794 10.101438399211483 6.551566480060129 7.564406810556084 0 0 0
1265 0 2 0.5897 10.32267789899074 7.217236480841663 5.869744055633273 0 -1 2
1310 0 2 0.5897 7.10839606580185 4.450533852337346 7.678445567407951 0 1 -1
830 0 2 0.5897 9.617800394271221 6.952245127905992 8.259254606764891 0 0 0
329 0 2 0.5897 6.809248492696958 7.106320819710802 6.779181127142736 0 0 0
330 0 2 0.5897 8.313474721070826 7.218491861282971 6.617143667468288 0 0 0
328 0 1 -1.1794 7.553098482534503 6.680318066836472 6.339804063046807 0 0 0
1311 0 2 0.5897 7.99058924823607 5.508458843479369 8.147431918185317 0 1 -1
790 0 1 -1.1794 1.5573957304444406 10.873285107799218 4.264987565342306 0 1 0
266 0 2 0.5897 3.769949061233387 9.602780141915567 6.015450378591506 0 0 0
267 0 2 0.5897 3.2800663481124417 9.811577949368077 4.603361788639437 0 0 0
265 0 1 -1.1794 3.8564059655065 9.29218887531918 5.134769816822329 0 0 0
575 0 2 0.5897 3.4760350308345926 10.975339097688533 7.729633462965231 0 0 0
574 0 1 -1.1794 3.422682579514709 10.014975589400295 7.8113435487845155 0 0 0
393 0 2 0.5897 6.016774762295383 11.676419359613302 6.603149553598619 0 0 1
576 0 2 0.5897 4.26343478881669 9.832677236076954 8.299622261594843 0 0 0
2148 0 2 0.5897 6.081741339849982 10.138910813280129 8.170551689939824 0 1 0
792 0 2 0.5897 1.158198375636586 11.087642618488431 5.111022622305263 0 1 0
2260 0 1 -1.1794 11.898763232785008 9.118037077749579 7.5892351855500735 1 0 0
391 0 1 -1.1794 6.676524515031368 11.231047633726757 7.202281933581855 0 0 1
1362 0 2 0.5897 10.657365378418875 9.184914295286266 4.200611046319513 0 0 0
392 0 2 0.5897 7.3407558779597 11.034437836817629 6.478681751332464 0 0 1
589 0 1 -1.1794 8.182047312710775 9.89906489046453 5.380154895078666 0 0 2
590 0 2 0.5897 7.460115912160606 9.992462008657032 4.737426789415282 0 0 2
591 0 2 0.5897 8.99108624277058 10.130599431371788 4.960518723028151 0 0 2
530 0 2 0.5897 10.645714657611535 10.566906247925457 6.935693967189806 0 0 1
529 0 1 -1.1794 9.97061719365826 11.17876516276865 7.249903593076446 0 0 0
2261 0 2 0.5897 11.979250224450618 8.724236246992353 6.745979041940979 1 0 0
531 0 2 0.5897 9.714413619024745 10.802252135107267 8.081847238883848 0 0 1
2262 0 2 0.5897 11.712782508902684 8.477282582024129 8.290638912395366 1 0 0
1989 0 2 0.5897 4.8735442810627925 12.167856443251601 4.2775778925277015 1 0 1
1987 0 1 -1.1794 4.879442368372805 12.280197562456417 5.232519214401217 1 0 1
1988 0 2 0.5897 3.9977100465281463 12.394557628072388 5.5801232695611045 1 0 1
748 0 1 -1.1794 2.575686076090103 14.417083637499202 5.284549543788017 1 0 0
750 0 2 0.5897 2.2868923207245233 13.880248185166698 4.567348925152526 0 0 0
1068 0 2 0.5897 2.895755478362611 13.592178047987 6.829268544254308 0 1 0
275 0 2 0.5897 5.729919544723409 15.552220295339117 6.60021187927487 0 -1 0
1859 0 2 0.5897 5.880605198814156 13.732744439372146 5.224550198793624 0 -1 1
749 0 2 0.5897 1.8834237622033025 15.102216449457066 5.375956132548157 1 0 0
1066 0 1 -1.1794 3.037432347152812 12.988373613220832 7.596094756687905 0 1 0
1142 0 2 0.5897 3.5008117352732504 15.942120425644735 7.638382482119376 0 0 0
1067 0 2 0.5897 3.6529947723909104 13.428633296795663 8.218039961295307 0 1 0
1858 0 1 -1.1794 6.545747788699848 14.445124328469019 5.364433773502931 0 -1 1
634 0 1 -1.1794 10.53324379278324 15.15336605723437 4.3570293285572035 0 0 0
1860 0 2 0.5897 7.365353116882484 13.956479951384868 5.6209447508950765 0 -1 1
1272 0 2 0.5897 9.692620303621492 13.889018566251325 5.202440462460255 0 -1 1
1271 0 2 0.5897 9.677106272076127 12.44159520791547 5.719371961075753 0 -1 1
1270 0 1 -1.1794 9.060041130321444 13.14009650902625 5.373396515775193 0 -1 1
1586 0 2 0.5897 10.68501225095946 15.180722691938831 7.973624481782317 0 0 0
2076 0 2 0.5897 11.145756511345642 12.517167171817167 7.398808104654759 0 0 -1
1293 0 2 0.5897 7.478111945443782 13.091333414720252 7.958948369197397 0 0 0
1284 0 2 0.5897 7.340612134225924 15.611945006414919 4.297275332571784 0 -1 0
1587 0 2 0.5897 9.193220339248816 14.917625496414754 8.06460672005558 0 0 0
2074 0 1 -1.1794 11.776559045734462 13.24761262472118 7.125046267110643 0 0 -1
1779 0 2 0.5897 2.742105991597913 19.865173176544406 4.683378960493602 0 -1 0
1106 0 2 0.5897 1.7865359182829197 16.83306011655509 6.122477226124563 0 0 0
274 0 1 -1.1794 5.424870808936893 16.2848746733763 7.126648511349719 0 -1 0
1775 0 2 0.5897 2.9116456695407003 19.802247939226163 7.29691226178938 0 0 0
1560 0 2 0.5897 3.3106966146232266 17.33269634653107 5.156183172278408 0 0 1
1558 0 1 -1.1794 4.2518483210499 17.37831783617452 4.82080140281303 0 0 1
1105 0 1 -1.1794 1.4602516970489117 17.150573261285324 5.260668769717863 0 0 0
1559 0 2 0.5897 4.77533008478446 17.217709991199474 5.632468306451751 0 0 1
1776 0 2 0.5897 2.824422277834347 18.332370546578225 7.409091138997708 0 1 0
1774 0 1 -1.1794 2.8927763677034912 19.102096461718208 7.993159295170847 0 1 0
2019 0 2 0.5897 5.8279345846098645 19.450529146220237 4.244264111106172 0 -1 0
1141 0 1 -1.1794 2.6727983523403935 16.3931250419231 7.559816746104568 0 0 0
276 0 2 0.5897 6.204732846603498 16.494851330837133 7.721872767690085 0 -1 0
1143 0 2 0.5897 2.091345749659287 16.21831315096421 8.318103119323476 0 0 0
845 0 2 0.5897 10.494288902674151 20.043006244592558 4.829647068728592 0 -1 0
1290 0 2 0.5897 6.7429608999551744 19.470091769873825 6.371342042512305 0 0 0
323 0 2 0.5897 11.71759952405184 18.254350535681635 4.4672287947773865 0 -1 0
322 0 1 -1.1794 10.749615628648543 18.341784661638588 4.420436133684493 0 -1 0
324 0 2 0.5897 10.260671185924101 18.018264479954354 5.25897264896558 0 -1 0
2084 0 2 0.5897 9.445922296032771 16.743368308595976 7.201147874835199 0 1 0
2085 0 2 0.5897 8.526534412139927 16.91228559769754 5.878237354360721 0 1 0
2083 0 1 -1.1794 9.036317349226854 17.336956925378846 6.577699451146624 0 1 0
1289 0 2 0.5897 7.813072511689983 18.57402171163304 6.930493910434914 0 0 0
1288 0 1 -1.1794 7.158133789808671 19.18380891706558 7.216938157286213 0 0 0
1838 0 2 0.5897 11.268513711517963 19.104580000919242 8.14781224998621 0 0 0
1837 0 1 -1.1794 12.084613291872111 19.228233951552152 7.670294647177722 0 0 0
773 0 2 0.5897 1.8798178317749448 2.652908491951863 9.016499865270813 0 1 0
2056 0 1 -1.1794 5.148647786048752 2.388612159256452 8.85637426471192 0 1 1
2058 0 2 0.5897 4.581615556047467 1.9760909416865093 9.575639041626552 0 1 1
1861 0 1 -1.1794 4.07895299826998 0.7581719615351586 10.88801341666913 0 1 0
1863 0 2 0.5897 4.251383547371788 1.1273996168525564 11.776917493505753 0 1 0
774 0 2 0.5897 1.1998554481056671 3.240643460963701 10.222624264904306 0 1 0
1862 0 2 0.5897 4.681878126617988 0.02751602933369073 10.695455570271099 0 1 0
2057 0 2 0.5897 5.460382177961359 3.183124535754274 9.268131710089333 0 1 1
772 0 1 -1.1794 1.1784324965754287 2.4924389610404725 9.697582614323208 0 1 0
2120 0 2 0.5897 1.2360103103629763 0.6784107841091125 9.868001065940883 0 1 0
32 0 2 0.5897 7.528361770512159 0.4068986927885681 8.409742594962067 0 0 0
33 0 2 0.5897 6.815485244402113 1.564613257097238 9.168500001591696 0 0 1
876 0 2 0.5897 7.766171757049142 0.7427748543279898 11.010803192364559 0 1 0
31 0 1 -1.1794 7.6619765783187885 1.0586200234058614 9.1597420563333 0 0 0
554 0 2 0.5897 9.339305513661238 2.575902386730971 9.89553908249771 0 0 0
1823 0 2 0.5897 11.160026429303162 1.102068923237007 10.65350199271436 0 0 0
1822 0 1 -1.1794 10.523731977484912 1.0948685349869625 9.967782498775236 0 0 0
874 0 1 -1.1794 7.737725416302641 0.8298553748268411 11.960072028031835 0 1 0
1824 0 2 0.5897 10.072994046202396 0.25399032917483433 9.94891586280734 0 0 0
1505 0 2 0.5897 8.785541607377258 3.7069074934533095 11.766950102497137 1 0 0
2090 0 2 0.5897 11.343966650149081 3.6366378538275024 10.850064790283321 0 1 0
553 0 1 -1.1794 9.32255453630022 3.506446625692285 10.100116759677546 0 0 0
555 0 2 0.5897 8.666162543753991 3.8349672054087818 9.503179132651283 0 0 0
2091 0 2 0.5897 12.21165650745103 3.2275659050878795 12.015348440398146 0 1 0
875 0 2 0.5897 7.302584423033317 0.0563262542422243 12.300073446635638 0 2 0
1506 0 2 0.5897 8.60432105095244 2.342795970129659 12.47372608719316 1 0 0
314 0 2 0.5897 0.9580026112022245 7.391381254919244 9.386665601954652 0 0 0
836 0 2 0.5897 2.628472308477973 4.535729287334738 11.425830052510047 0 0 0
835 0 1 -1.1794 1.6978678886288723 4.764833713224382 11.398038012704504 0 0 0
612 0 2 0.5897 4.824514740109899 4.869824619732781 11.572664905397877 0 1 -1
315 0 2 0.5897 1.5266426712932146 6.1419823485803615 8.565817600782085 0 0 0
1819 0 1 -1.1794 5.772286063808002 5.874573495382833 10.362442860621874 0 1 1
837 0 2 0.5897 1.559555464912683 5.552497502833985 10.826699821282137 0 0 0
1821 0 2 0.5897 5.271253781474454 6.744899238604623 10.237988156349804 0 1 1
27 0 2 0.5897 3.489211972266556 7.812665461954215 11.731122472644799 0 1 0
1820 0 2 0.5897 6.3848486174217784 5.667800627671139 9.601567129355034 0 1 1
313 0 1 -1.1794 0.8952166586165597 6.466061311182752 9.327662162912148 0 0 0
610 0 1 -1.1794 4.346018677085031 4.275813470312283 12.2029477154175 0 1 -1
25 0 1 -1.1794 4.128882906647 7.887021070220054 10.966554072834088 0 1 0
94 0 1 -1.1794 11.651780435573944 7.683937147196185 10.118421188566586 0 1 0
326 0 2 0.5897 10.819647541764827 6.574012779021458 11.405550000104876 0 0 -1
1309 0 1 -1.1794 7.448117152605958 4.841989248021946 8.534449328028717 0 1 -1
2052 0 2 0.5897 7.019696358655479 6.290780192155252 11.668822788461734 0 0 0
325 0 1 -1.1794 10.239273302549698 6.020017392668977 11.981710980390186 0 0 -1
317 0 2 0.5897 8.66027552257114 7.359770532064113 10.317108565425935 0 1 0
2051 0 2 0.5897 8.498034710829186 6.101987048098421 11.976381081309777 0 0 0
316 0 1 -1.1794 8.45930248517821 7.768147788206763 9.473500559078389 0 1 0
2050 0 1 -1.1794 7.641930171084252 6.459812961126753 12.32937659067825 0 0 0
108 0 2 0.5897 0.7923162694914014 11.156481288569989 12.12278919030218 0 0 0
26 0 2 0.5897 4.097496083012526 8.749601829888475 10.598659480800276 0 1 0
1024 0 1 -1.1794 1.3393933304438146 9.463563334736012 9.545411921303812 0 0 0
107 0 2 0.5897 1.464766721799312 10.28568780935467 11.095430876830363 0 0 0
1025 0 2 0.5897 2.144329847715727 9.688093007667732 8.964323270299976 0 0 0
106 0 1 -1.1794 1.6836039450139402 10.830099304266085 11.889914974963581 0 0 0
1793 0 2 0.5897 3.541612235924718 11.8122014591056 11.647933516741574 0 0 1
2147 0 2 0.5897 5.935424268082636 9.567903124164827 9.6455024994872 0 1 0
2146 0 1 -1.1794 5.680910482157906 9.397930494922583 8.70402986678665 0 1 0
1794 0 2 0.5897 5.044102578326747 11.637291329641252 11.49717667066258 0 0 1
133 0 1 -1.1794 6.411440830289918 10.446720359456304 11.16741958540642 0 0 -1
96 0 2 0.5897 11.722803690041026 8.278813418490627 10.89295159929741 0 1 0
135 0 2 0.5897 6.712246833184276 9.817789695634875 11.85519068095548 0 0 -1
318 0 2 0.5897 8.607566950888641 8.727405099449502 9.547084807786407 0 1 0
134 0 2 0.5897 7.125316669704668 11.071229347394471 10.96883477618591 0 0 -1
2033 0 2 0.5897 10.32666789788476 10.148391755914098 10.293151014510833 0 0 0
2032 0 1 -1.1794 9.488278600881374 10.318516241198127 9.822369165706908 0 0 0
2034 0 2 0.5897 9.130988518593245 11.14473259823026 10.218155690840737 0 0 0
1147 0 1 -1.1794 11.403624798305023 9.687784881797617 11.8097266956022 0 0 0
1770 0 2 0.5897 1.16547549311345 15.158795341758964 10.229134625643386 0 0 0
1895 0 2 0.5897 1.5962533526195992 12.86123832567584 10.740162786132434 0 0 0
1896 0 2 0.5897 1.9761609310112633 13.268567311640561 9.351201068707393 0 0 0
1612 0 1 -1.1794 5.02906210149999 13.980143756718853 9.366953422221439 0 -1 0
1614 0 2 0.5897 4.682101328518629 13.412027046640423 10.009339227210544 0 -1 0
1613 0 2 0.5897 5.016203621654767 14.862433416731857 9.733621258106005 0 -1 0
1792 0 1 -1.1794 4.312884940002988 12.25824383736192 11.371350575059658 0 0 1
1894 0 1 -1.1794 1.3078364567774698 13.395539771224527 9.999686643287195 0 0 0
359 0 2 0.5897 4.3274085601447165 15.890143792275603 11.967686192998858 0 0 0
1292 0 2 0.5897 6.820966629430448 14.123642454073897 8.71142735446485 0 0 0
1585 0 1 -1.1794 9.884822430505789 15.504779798155266 8.355164032698552 0 0 0
1584 0 2 0.5897 10.848054392291733 15.397681493119793 10.11554248172889 0 0 0
1291 0 1 -1.1794 7.696856288282864 13.898326117845924 8.401853832787216 0 0 0
77 0 2 0.5897 8.124592885001286 13.158208315047778 10.120111587213962 0 0 0
76 0 1 -1.1794 8.36899323373487 12.558350764581318 10.865718875980193 0 0 0
1583 0 2 0.5897 11.475953384134305 14.666158318027499 11.246631855692646 0 0 0
1582 0 1 -1.1794 11.61565419848207 15.443496753210875 10.693326467002569 0 0 0
78 0 2 0.5897 8.184767065156487 13.036655388594722 11.715619695720177 0 0 0
780 0 2 0.5897 8.080621829366098 15.473875279811416 12.45260858061688 0 -1 0
2103 0 2 0.5897 10.049302264485181 12.814279921923236 12.151407617721167 0 0 0
2101 0 1 -1.1794 10.947011314081719 13.078954825058213 12.45642122501066 0 0 0
2119 0 1 -1.1794 1.3060729446891677 19.727967010890307 9.960272808228137 0 0 0
2121 0 2 0.5897 1.843106318858137 19.423950001093917 9.200762260021502 0 0 0
358 0 1 -1.1794 4.026897532309461 16.305358555288397 11.117116036839844 0 0 0
840 0 2 0.5897 5.641629688004142 19.177106798332513 8.681964058616531 0 -1 0
839 0 2 0.5897 4.392305046128443 18.60009601519677 9.377295297771646 0 -1 0
838 0 1 -1.1794 5.371474918709697 18.787801291219573 9.511599728378519 0 -1 0
360 0 2 0.5897 3.2368417083182437 16.825712538982817 11.319290557587706 0 0 0
1089 0 2 0.5897 2.1661014279111845 19.09663968323091 11.20126308159911 0 -2 0
1851 0 2 0.5897 5.71831776302035 18.15503428357763 11.415670360963288 0 -1 0
1087 0 1 -1.1794 2.380035780486555 18.488248378041526 11.922465704200617 0 -2 0
1849 0 1 -1.1794 6.054093239194479 18.42072834099985 12.235646411782302 0 -1 0
1768 0 1 -1.1794 0.8899762092366506 16.10148212324834 10.050430027293846 0 0 0
1563 0 2 0.5897 6.5894027421518055 17.2531121160134 9.649568254192625 0 1 0
1850 0 2 0.5897 6.995848428324552 18.0494471089508 12.30402335479899 0 -1 0
1298 0 2 0.5897 11.076966945417041 16.791177781606834 11.880367613454748 0 -1 0
1297 0 1 -1.1794 10.440605102556411 17.51516069091192 12.070225323139528 0 -1 0
1561 0 1 -1.1794 7.099896887989169 16.482657296071036 9.353044804784215 0 1 0
8 0 2 0.5897 9.32352152549682 17.93381820459329 9.009001135908642 0 0 0
9 0 2 0.5897 10.151973337516356 18.05633223730632 10.334212941357933 0 1 0
1562 0 2 0.5897 7.652975078414787 16.226358540374516 10.171550566534455 0 1 0
7 0 1 -1.1794 10.017953090793066 18.4615476491311 9.43636289851887 0 0 0
778 0 1 -1.1794 8.198225955121245 16.342372068461824 12.014137685065963 0 -1 0
779 0 2 0.5897 9.083532857255506 16.714286590102432 12.018660727822619 0 -1 0
849 0 2 0.5897 5.166406717656578 3.010465089016275 12.663263000315437 0 0 0
1353 0 2 0.5897 1.984663465504963 2.322496806909422 15.011433676296898 0 0 0
1351 0 1 -1.1794 2.492923194974505 2.585925619063463 14.245974542938644 0 0 0
1815 0 2 0.5897 5.560329781139044 1.8729741139146223 14.797785297228291 0 0 -1
380 0 2 0.5897 3.752251700308599 0.6377577342259098 14.10302404893496 0 1 0
1813 0 1 -1.1794 5.758469795561451 1.4522169278633439 15.688014333091774 0 0 -1
847 0 1 -1.1794 5.641214682985426 2.2555233638213794 13.13021354204911 0 0 0
1352 0 2 0.5897 2.6016304221346074 3.5196896230138797 14.435887295968943 0 0 0
848 0 2 0.5897 6.384937242284902 1.8916024122369337 12.58980198272799 0 0 0
811 0 1 -1.1794 0.8436369753337344 1.6767737205094524 16.514418536148042 0 0 0
1814 0 2 0.5897 5.123743291655791 1.9063541694340127 16.273714210783723 0 0 -1
1001 0 2 0.5897 1.358351389292382 1.9003875345532375 13.034268889999733 1 1 0
1504 0 1 -1.1794 8.549088094196446 3.3191960034726646 12.613669270365703 1 0 0
301 0 1 -1.1794 9.922634602826358 3.3406455511282407 14.99976781544266 0 1 1
303 0 2 0.5897 9.651892559678334 3.5845948444624525 14.140840872548575 0 1 1
302 0 2 0.5897 10.873652889108909 3.1255716774036086 14.859787595132662 0 1 1
264 0 2 0.5897 8.612910958050756 2.7041585479459287 16.33545066678395 1 0 0
801 0 2 0.5897 7.184614993191304 3.836394225930535 13.869179327886146 0 1 0
263 0 2 0.5897 7.1443109916908645 2.3063315992611684 16.440845387602202 0 0 0
2028 0 2 0.5897 11.8596277376887 1.1666393552310375 13.615062644968503 0 0 0
2026 0 1 -1.1794 12.014925835788219 2.13258664376272 13.727199865857434 0 0 0
567 0 2 0.5897 0.734953881856539 4.843943560026541 12.894728017137723 0 -1 -1
1252 0 1 -1.1794 1.1229433595647798 6.614552444824425 16.388503421037523 1 0 0
611 0 2 0.5897 4.143747018288307 4.8146934368324725 13.038844442281036 0 1 -1
1864 0 1 -1.1794 3.146637800573826 5.365353018443752 14.509782846123514 0 0 0
1865 0 2 0.5897 3.7312191330138993 5.608374725286078 15.207437395025575 0 0 0
1866 0 2 0.5897 2.876616883037055 6.228855424913756 14.08117224443106 0 0 0
1253 0 2 0.5897 1.5803920437467156 6.161102162586951 15.63865530986191 1 0 0
230 0 2 0.5897 5.911121337606721 5.306757785623358 15.632214834022346 1 0 -1
1328 0 2 0.5897 5.726715049228101 7.646461794208184 15.775527565580495 0 -1 0
513 0 2 0.5897 1.4277113463617963 7.730668110295689 13.049882278626512 0 0 0
511 0 1 -1.1794 2.4218085792290305 7.729402426346821 13.184414147855865 0 0 0
229 0 1 -1.1794 5.217670062428341 5.768270784733123 16.19460228789988 1 0 -1
283 0 1 -1.1794 12.027504183125318 6.1990263395873875 14.008956955737368 0 1 0
327 0 2 0.5897 10.551048947306494 6.1465918056849755 12.894932950641058 0 0 -1