LAMMPS data file via write_data, version 23 Jun 2022, timestep = 40000000

2268 atoms
2 atom types

0.6023197980226627 46.84837920194428 xlo xhi
0 20.047001 ylo yhi
0 20.857 zlo zhi

Masses

1 1.008
2 15.999

Atoms # full

764 0 2 0.5897 2.4408595880426196 1.9638402862804436 1.2466442427377722 0 2 0
763 0 1 -1.1794 2.7730121717086815 1.3434170494901518 1.9078195660025927 0 2 0
765 0 2 0.5897 2.0717689651118034 1.4022993778988178 2.5645313022756286 0 2 0
1112 0 2 0.5897 4.605035735886053 1.5355647754056223 2.2979982473402325 0 2 0
1111 0 1 -1.1794 5.578534033432893 1.5356402172062458 2.423653981185552 0 2 0
1113 0 2 0.5897 5.6557519803100185 1.3684726152362385 3.3748117764261187 0 2 0
129 0 2 0.5897 5.363184459154496 3.1822215418153563 1.6233696099039754 0 2 0
572 0 2 0.5897 6.156141356887833 0.6682725148794776 1.1759125836854936 0 1 -1
2266 0 1 -1.1794 1.7508780537247894 3.427571528182103 0.3709026674200026 1 1 1
128 0 2 0.5897 4.787216589064629 3.704298800849566 0.26280083610906885 0 2 0
571 0 1 -1.1794 6.247674602338801 0.4099019712496946 0.2918409635667375 0 1 -1
127 0 1 -1.1794 4.982804247150823 3.927928498087233 1.1873723271363599 0 2 0
2267 0 2 0.5897 0.8382965534556035 3.3466095888341165 0.11149784485385539 1 1 1
517 0 1 -1.1794 1.0592857268167268 1.4374273869465275 4.006302235292288 0 -1 0
9 0 2 0.5897 9.196061213758021 2.357876876010936 1.882815759494502 0 4 0
7 0 1 -1.1794 9.858774660594253 1.648112660230908 1.9646632916728894 0 3 0
8 0 2 0.5897 9.33247030292955 0.8411040356059301 2.14790904679818 0 3 0
760 0 1 -1.1794 8.014233643199987 3.6505202124521436 1.2771476426508084 0 2 1
110 0 2 0.5897 9.676403920540793 1.087469141606802 0.21611155888988098 0 0 1
300 0 2 0.5897 11.607009623535863 2.123978552846944 2.101904189517692 0 1 -1
1556 0 2 0.5897 9.949486087415073 2.1570614081273156 3.7619426991232534 0 -2 -1
857 0 2 0.5897 12.112774323790264 0.5291474253004861 0.5094860488743033 0 -1 -2
2268 0 2 0.5897 1.7275830511943449 4.260938026066784 0.9267325572100443 1 1 1
566 0 2 0.5897 3.6196036745374953 4.771309392687465 1.9117321736998043 0 -3 -1
565 0 1 -1.1794 2.7920528694156648 5.1616427169980446 2.3017102725254124 0 -3 -1
567 0 2 0.5897 2.796074871786674 6.137866692309004 2.2205177640559985 0 -3 -2
277 0 1 -1.1794 5.06893184857091 7.5048969102371705 3.2192509398599958 0 2 -1
278 0 2 0.5897 4.10748818580268 7.644218255219407 3.00693832009075 0 2 -1
267 0 2 0.5897 6.237242768872811 6.191934153215313 3.1115347962788484 0 2 0
101 0 2 0.5897 6.036652004768066 5.7622607134478425 1.046093249143571 0 1 0
1813 0 1 -1.1794 2.2487730422876835 7.835125408074935 2.4470442276349322 0 -1 0
69 0 2 0.5897 1.7313367868534066 4.556914545018625 3.5548725243533856 0 0 0
100 0 1 -1.1794 6.226986495503657 6.425636641774907 0.3695960973022471 0 1 0
102 0 2 0.5897 6.681448879018446 7.104954944596382 0.8321338736071856 0 1 0
762 0 2 0.5897 7.270702573831393 4.178018226138179 1.6089249422349612 0 2 1
761 0 2 0.5897 8.70959907743482 4.310709702449436 1.3476529880556256 0 2 1
265 0 1 -1.1794 6.851489551181148 5.406885597098048 3.1364910201156944 0 2 0
1129 0 1 -1.1794 10.345469295883264 5.387530419800419 0.8708421580235527 0 1 2
1130 0 2 0.5897 10.83671114236922 6.10346432913508 1.2184058461092346 0 1 2
1541 0 2 0.5897 11.316305222286902 7.7456052205814085 3.092012382589848 0 -1 1
1581 0 2 0.5897 8.310816649101799 6.164839349723927 3.672149697577173 0 0 0
1131 0 2 0.5897 9.659131247890421 5.786581516185487 0.26488322877922776 0 1 2
1540 0 1 -1.1794 11.37582683638742 7.402753141311131 2.12385631302358 0 -1 1
284 0 2 0.5897 11.06027394256657 4.13027276568036 4.122633405053458 0 0 -1
266 0 2 0.5897 6.48726087560111 4.812814681582474 3.7798030645693474 0 2 0
1579 0 1 -1.1794 9.128449170902522 6.583378830943101 3.955603541328568 0 0 0
1580 0 2 0.5897 9.85266957379398 5.957669531624551 3.8131920620133974 0 0 0
283 0 1 -1.1794 11.337376200435202 5.0346552393664314 4.16500194541907 0 0 -1
285 0 2 0.5897 12.071750299994738 5.092417783802588 3.542353230746832 0 0 -1
1814 0 2 0.5897 1.74053226865329 8.049839499648803 3.2735596577215995 0 -1 0
279 0 2 0.5897 5.529203853115874 8.089763957927932 2.6091310187566776 0 2 -1
1815 0 2 0.5897 2.0155071989689217 8.539617123522985 1.8112502936703867 0 -1 0
26 0 2 0.5897 1.9593879896625104 10.919407764627387 1.3890481090422777 0 0 2
1045 0 1 -1.1794 4.653987110464453 11.032086769152317 3.3679233439984735 0 -2 -1
788 0 2 0.5897 5.585427632684527 9.924661825412183 2.163372091430712 1 -3 -3
1047 0 2 0.5897 3.834782404113889 11.434659681020635 2.9644625505046953 0 -2 -1
25 0 1 -1.1794 1.8878690568152605 10.13827569675353 0.8057380243813573 0 0 2
787 0 1 -1.1794 6.150148623217771 9.370192555368062 1.5906168521563953 0 -3 -3
53 0 2 0.5897 1.8878418405117943 11.885296949521857 3.367437419872445 0 1 1
27 0 2 0.5897 2.6596769629505075 10.288599274231409 0.22569320070146126 0 0 2
1046 0 2 0.5897 4.33418613360391 10.505557407832935 4.108958906057599 0 -2 -1
3 0 2 0.5897 8.909356155205092 8.156108672408788 3.109646999625496 0 -2 1
1 0 1 -1.1794 8.618847871266698 8.952572225026769 2.6392496416350766 0 -2 1
2 0 2 0.5897 8.982360164461648 8.890841244460129 1.6929200850571633 0 -2 1
789 0 2 0.5897 6.949655427961876 9.230495436156522 2.095399452199162 0 -3 -3
1385 0 2 0.5897 10.726821904023954 8.073069289188693 0.764068882861432 0 0 0
1084 0 1 -1.1794 8.933437330742809 11.80449786643223 0.39743920499597896 0 0 -1
1742 0 2 0.5897 8.069315595501628 10.728527331750088 3.3354990158594586 1 0 1
1741 0 1 -1.1794 7.535950403348265 11.508144965839552 3.592098933718373 1 0 1
1384 0 1 -1.1794 10.04123507244215 8.372799358382618 0.07751168195266663 0 0 0
1085 0 2 0.5897 8.020258100146268 12.026234112101843 0.6321808585383032 0 0 -1
52 0 1 -1.1794 2.4133654217049223 12.103348555447694 2.60101798717972 0 1 1
54 0 2 0.5897 2.4228366151605742 13.04143875253383 2.4383015328323965 0 1 1
1335 0 2 0.5897 3.544216322808647 15.06775876979966 2.144583920808829 0 -2 -1
1333 0 1 -1.1794 3.3028570545776788 14.473715418061254 1.4062463572025687 0 -2 -1
1334 0 2 0.5897 2.7117158389861094 14.981651225015392 0.7951023290498421 0 -2 -1
1387 0 1 -1.1794 6.186556942930855 12.423630080372934 1.2013876781302593 0 4 0
1388 0 2 0.5897 6.229574873144167 12.12368734588103 2.158084737330022 0 4 0
1505 0 2 0.5897 5.190517602759941 12.602773965124353 4.157450778589902 1 2 3
1389 0 2 0.5897 6.116680557880937 13.38742236402087 1.1825910000030533 0 4 0
1270 0 1 -1.1794 6.348324053173046 15.153926369196027 0.76409848179151 0 -1 2
1506 0 2 0.5897 4.797585262940649 14.156796829052332 4.086659100822192 1 2 3
1573 0 1 -1.1794 3.68964582705332 15.475438088530032 3.9392059295564574 0 -1 -2
1272 0 2 0.5897 5.542809729724752 15.426127333760423 0.29541226426632294 0 -1 2
1743 0 2 0.5897 8.186462236247099 12.13192554689923 3.955752788669313 1 0 1
1044 0 2 0.5897 9.476381538952733 13.103664697080726 1.4554853239804741 0 5 -2
1042 0 1 -1.1794 9.842420092659657 13.945808028090521 1.9113059269523587 0 5 -2
1043 0 2 0.5897 9.08866590466713 14.168655204382876 2.4608026940334238 0 5 -2
864 0 2 0.5897 11.364864499973345 13.081961898451361 2.805124313541221 0 -1 0
429 0 2 0.5897 9.924903498543614 15.796365226212913 1.1795035760022374 0 -1 -1
833 0 2 0.5897 7.47945912487997 15.50011158683136 3.082388803567195 0 -1 0
862 0 1 -1.1794 11.71879355042872 12.74297420970645 3.6648609567011676 0 -1 0
832 0 1 -1.1794 7.813777485341981 14.736776604670878 3.577218537300268 0 -1 0
834 0 2 0.5897 7.043815754318267 14.282195906057826 3.9738344256083606 0 -1 0
1271 0 2 0.5897 7.006793060645889 14.967592166274365 0.06484485054845568 0 -1 2
1574 0 2 0.5897 4.095322542648036 16.358877101677326 4.0730111428464095 0 -1 -2
1026 0 2 0.5897 1.0106165208917333 16.176698984710143 0.3224074372254152 0 0 1
611 0 2 0.5897 2.2595549320361243 19.514882239294494 1.5301283209264913 0 0 1
1025 0 2 0.5897 1.8637374346617492 17.341826531754975 0.6889259067219641 0 0 1
11 0 2 0.5897 5.438038775952293 17.771875727078942 3.178767066784519 0 0 -1
612 0 2 0.5897 1.728966378390504 18.58328585521988 2.702217971586485 0 0 1
610 0 1 -1.1794 2.2687166769103184 18.632214613405637 1.88484153630906 0 0 1
12 0 2 0.5897 3.9008940591098655 18.257818804804895 3.0768776071503847 0 0 0
1024 0 1 -1.1794 1.7906661567353421 16.616601939772934 0.04315225074251824 0 0 1
10 0 1 -1.1794 4.6395694616934104 18.089403338077066 3.683787504857035 0 0 0
1585 0 1 -1.1794 0.8031016859822302 17.962962931076646 4.149753687527776 0 -1 1
1349 0 2 0.5897 6.847502386442171 16.782554702408547 1.5465788725596825 0 1 0
1348 0 1 -1.1794 6.85872872706422 17.197148254086716 2.4564305027655005 0 1 0
1350 0 2 0.5897 7.538416010753452 17.912802642057926 2.38558992045148 0 1 0
427 0 1 -1.1794 9.733715063012616 16.621507794236763 0.7290363910552502 0 -1 -1
1904 0 2 0.5897 10.898706655046732 18.19071898132157 1.5023107637972233 0 0 -2
1903 0 1 -1.1794 11.233967778064004 18.98594703830443 1.95275529458813 0 0 -2
1304 0 2 0.5897 10.634627733526493 18.496450674821777 3.890249658012739 0 -2 0
289 0 1 -1.1794 8.21906865182889 19.526883719373835 2.956005661372709 0 2 1
1490 0 2 0.5897 7.37095040186982 19.068683221711687 0.31472529690548867 1 -2 -1
1491 0 2 0.5897 8.405147655143956 17.754673826934297 0.19354186073995483 1 -2 -1
291 0 2 0.5897 8.832159638036154 19.02056159622539 3.5674764804835815 0 2 1
290 0 2 0.5897 7.578970724425773 19.84221037349249 3.584562775537304 0 2 1
1052 0 2 0.5897 4.885285947590354 3.04684514939435 4.954666653909562 0 0 1
601 0 1 -1.1794 3.85741448634578 1.9930998295013957 5.5624731969318795 0 0 2
603 0 2 0.5897 3.239465888713145 2.0974181953119926 6.268646874080783 0 0 2
602 0 2 0.5897 3.7822373190968404 1.138907459837379 5.303467507657285 0 0 2
877 0 1 -1.1794 5.648135579471113 1.6734495814839558 7.920484631825429 0 0 0
879 0 2 0.5897 4.9252130636649865 1.7075145425499663 7.318478677550954 0 0 0
1801 0 1 -1.1794 2.182881039612233 3.072604170075725 7.848976685847708 0 3 -2
1802 0 2 0.5897 2.2020922616504 3.889624800682394 8.30455726986995 0 3 -2
518 0 2 0.5897 1.031876232114685 2.3376202856032484 4.312071581164615 0 -1 0
519 0 2 0.5897 1.4146669999487882 0.9248978197607418 4.764967887628678 0 -1 0
1051 0 1 -1.1794 5.532418039158482 3.819137906636982 4.839013763196282 0 0 1
878 0 2 0.5897 6.431919635327071 1.7686500089094972 7.36710331250023 0 0 0
529 0 1 -1.1794 6.601270256984535 0.4650375737483644 4.831964156849736 0 1 -1
530 0 2 0.5897 7.011462193425641 0.9698199125488757 5.514009604074755 0 1 0
1555 0 1 -1.1794 10.18514241866902 2.42137232519212 4.692842585859642 0 -2 -1
1557 0 2 0.5897 9.392697218329118 2.6503143412676007 5.202359225901832 0 -2 -1
66 0 2 0.5897 10.97528215651161 1.3158021052585511 6.011203466880294 0 1 0
65 0 2 0.5897 11.37642122021109 0.9835276888258401 7.557063273067782 0 1 0
2155 0 1 -1.1794 7.980674909564102 3.2330504292626414 6.238679268098671 0 -1 0
2156 0 2 0.5897 8.535551479167989 3.6440160038124745 6.929694284130436 0 -1 0
2157 0 2 0.5897 7.1495730839292575 3.7012733552304566 6.143506103675509 0 -1 0
1629 0 2 0.5897 10.334300012817893 3.490667672192507 8.217324217113974 0 -1 1
64 0 1 -1.1794 11.119141944148069 0.6217849625309367 6.679478227632515 0 1 0
86 0 2 0.5897 9.362721127326601 0.16737989203525327 7.103083363855355 0 1 -2
85 0 1 -1.1794 8.331741229270174 0.11863549038663972 7.176880503066128 0 1 -2
67 0 1 -1.1794 1.2130760754202816 4.291869725179923 4.362137363488908 0 0 0
1053 0 2 0.5897 5.124144150086873 4.457840488749407 5.393280847636345 0 0 1
797 0 2 0.5897 5.8796192217213585 7.553307570572463 4.9942264565186685 0 1 -2
1078 0 1 -1.1794 1.8984767166481549 6.3881261035230015 6.440065013595766 0 1 0
793 0 1 -1.1794 4.378336990639715 5.488680644842232 7.165952148688852 0 0 0
1080 0 2 0.5897 2.7431278843871287 6.121510157996225 6.832841109830323 0 1 0
795 0 2 0.5897 5.03982369645386 6.101806538353408 6.79017223342434 0 0 0
794 0 2 0.5897 4.766185139422288 5.201792853447416 7.968198262465431 0 0 0
68 0 2 0.5897 1.5057808870672291 4.892857995288429 5.099825767457386 0 0 0
2072 0 2 0.5897 1.5407621436478096 7.570923029053486 5.300325376832765 0 0 0
1079 0 2 0.5897 1.2329952146781955 6.4708808790925385 7.153882425045268 0 1 0
796 0 1 -1.1794 5.994461436211245 7.432253315273819 5.976442754277686 0 1 -2
378 0 2 0.5897 8.936675031908136 7.409579315826058 5.414745713815461 0 2 1
376 0 1 -1.1794 8.649468466684072 7.707448135368928 6.301558860653509 0 2 1
2069 0 2 0.5897 11.14460025462908 6.445920495015784 7.079546218412484 0 1 -2
885 0 2 0.5897 9.36550196358372 7.0723612821848 7.96490917910108 0 -2 0
2070 0 2 0.5897 11.840592695839401 5.745132714482698 5.883666717884391 0 1 -2
798 0 2 0.5897 6.925066110154154 7.566688812611819 6.251177010413925 0 1 -2
2068 0 1 -1.1794 11.890597055214217 6.552350974553083 6.4574703286906034 0 1 -2
2079 0 2 0.5897 11.877138340389292 7.981022015595899 5.231890105297914 0 0 -2
1326 0 2 0.5897 1.4861658377761173 10.265647771533875 5.094777983581614 0 -2 1
2071 0 1 -1.1794 1.101591823622362 8.319117761896264 4.7066535481632 0 -1 0
897 0 2 0.5897 1.0963698378679003 9.554838771158817 7.489508020138163 0 -1 1
599 0 2 0.5897 3.3282575335981455 9.614561456426202 6.371445084623918 0 1 1
600 0 2 0.5897 4.441308908397188 8.749836242096572 5.845901181485199 0 1 1
598 0 1 -1.1794 4.123258821013287 9.671197680207197 5.823270043183197 0 1 1
895 0 1 -1.1794 2.06864851148972 9.729759915322937 7.507239782874312 0 -1 1
2030 0 2 0.5897 5.576898158801625 10.678890812714132 5.857228580508344 0 -1 1
896 0 2 0.5897 2.1315969357901423 10.60155386617994 8.019097090660589 0 -1 1
1324 0 1 -1.1794 1.2706689473284287 11.147770581531681 4.828052592026368 0 -2 1
1325 0 2 0.5897 1.527115937535564 11.735180733432456 5.552087956480359 0 -2 1
2077 0 1 -1.1794 11.708624664867108 8.641681477806413 4.53697272196812 0 0 -2
646 0 1 -1.1794 9.879458084667993 10.970510148278892 5.1203297509120995 0 0 -1
647 0 2 0.5897 10.292036860301579 11.640281370055254 4.512610760163388 0 0 0
648 0 2 0.5897 10.350235248169465 10.137205882302604 4.8996511212996685 0 0 -1
2029 0 1 -1.1794 6.398797576771047 11.139515787878626 5.894892205447451 0 -1 1
377 0 2 0.5897 8.813836889067028 8.661992798883142 6.378523375933695 0 2 1
1610 0 2 0.5897 7.947749789487501 10.512421508661262 6.664136953157363 0 -1 -2
1611 0 2 0.5897 9.360032267945371 10.723756519799966 7.300552994939981 0 -1 -2
1609 0 1 -1.1794 8.578290843501808 10.11645307060457 7.265583472209773 0 -1 -2
2031 0 2 0.5897 6.7059569387883 11.125283740296815 4.993673820619216 0 -1 1
1504 0 1 -1.1794 5.479553060034484 13.524218258211777 4.351825154168816 1 2 3
296 0 2 0.5897 4.799269012724811 12.804771294108464 7.508900854034412 0 -1 0
297 0 2 0.5897 5.053017944737612 13.305744381067024 6.049721157291168 0 -1 0
295 0 1 -1.1794 4.459913984080151 13.384378992719476 6.79165514626648 0 -1 0
1799 0 2 0.5897 2.514913314861349 13.425626488895592 6.7826948165338 0 0 0
1798 0 1 -1.1794 1.5688326301492295 13.36974198034973 6.487318886147301 0 0 0
1800 0 2 0.5897 1.4936288229228372 14.07023329770388 5.80088104726695 0 0 0
1575 0 2 0.5897 2.897104914850017 15.415176635096783 4.510820668444584 0 -1 -2
624 0 2 0.5897 4.956023505825811 15.673108681476236 6.842180870054859 0 0 -1
55 0 1 -1.1794 0.8579887872028318 15.181213905393323 4.443149347921261 0 1 1
780 0 2 0.5897 10.88460381309203 15.34549166895731 4.439767197149396 0 1 2
779 0 2 0.5897 9.384397550684454 15.096714330074363 4.408539412908665 0 1 2
1560 0 2 0.5897 11.608577679828361 12.356654711739889 7.213416587502469 0 -1 1
287 0 2 0.5897 10.230717534716682 14.472243044812286 6.8827210126917295 0 1 0
286 0 1 -1.1794 10.203313644618872 13.800293514746546 7.631178921200555 0 1 0
131 0 2 0.5897 8.404399807066557 13.474160314655414 7.608887165948534 0 2 1
132 0 2 0.5897 7.109036852340116 12.656426798217922 7.12067726266997 0 2 1
778 0 1 -1.1794 10.106867839231482 15.431344532397778 4.989467955633466 0 1 2
130 0 1 -1.1794 7.519189137121561 13.158775301203079 7.867402800864534 0 2 1
531 0 2 0.5897 6.0657835145212 19.840602737200623 5.340497319948253 0 0 0
56 0 2 0.5897 0.8394876138836121 16.120161532393848 4.33147876410881 0 1 1
2106 0 2 0.5897 1.3664944431464416 16.38036067020698 6.581033979259409 0 1 1
2104 0 1 -1.1794 2.3031914326846987 16.409638012717306 6.785844412212251 0 0 1
333 0 2 0.5897 0.9036751968297236 19.759567283441008 6.925314737691141 0 -2 1
331 0 1 -1.1794 1.3607529654547168 19.712932601397256 6.101079172426354 0 -2 1
622 0 1 -1.1794 5.118721905146953 16.449877073009635 7.362962685104523 0 0 -1
332 0 2 0.5897 2.2549090412899266 19.37510745150959 6.278870491811247 0 -2 1
1688 0 2 0.5897 4.4412842493999385 18.60334082605509 5.1574190321090745 0 0 1
1687 0 1 -1.1794 4.245644061559695 19.034066758347407 6.011689783109268 0 0 1
1689 0 2 0.5897 4.505845116711825 18.32671743682661 6.660257579520584 0 0 1
2105 0 2 0.5897 2.4593704386303656 17.100391035732653 7.465614203055585 0 0 1
1587 0 2 0.5897 0.7261679053314316 18.523119825341304 4.897861079846645 0 -1 1
623 0 2 0.5897 5.484988673824969 16.038972053932607 8.190262746314435 0 0 -1
1303 0 1 -1.1794 9.932107738462422 18.117394769108074 4.477231737232613 0 -2 0
1544 0 2 0.5897 7.509425730322486 17.077269322476333 5.612775682654327 0 1 0
1305 0 2 0.5897 9.986950731246525 17.153173512416767 4.583415984619485 0 -2 0
1545 0 2 0.5897 6.6050307268616635 17.239918577520776 6.795926447423972 0 1 0
1543 0 1 -1.1794 7.459396848405533 17.575345692764266 6.440734350537538 0 1 0
87 0 2 0.5897 8.051612126304963 19.441703485431415 6.538187542121121 0 0 -2
2081 0 2 0.5897 8.976234011623989 17.365333331625774 7.556800738412824 0 -1 -3
2082 0 2 0.5897 9.999500034985742 17.92880563899257 6.553407041142613 0 -1 -3
2080 0 1 -1.1794 9.926236125849966 17.661138959745287 7.483723563156714 0 -1 -3
365 0 2 0.5897 11.589959860783654 16.25252317320074 7.12305019368159 0 0 1
1803 0 2 0.5897 2.451704192990689 2.4107303961839333 8.515795114555175 0 3 -2
860 0 2 0.5897 6.2929195842077865 3.887250455009549 8.634858807561068 0 2 1
2089 0 1 -1.1794 2.7954899199841994 0.9202679784972636 9.289546007767647 0 2 -2
882 0 2 0.5897 1.3558638393949856 1.3775119019165227 10.416266115272268 0 0 -2
2090 0 2 0.5897 3.6282060455011824 1.0511444763045408 9.74652129460175 0 2 -2
1528 0 1 -1.1794 5.1751933895235664 1.437693713360969 10.822026044170402 0 1 2
1529 0 2 0.5897 5.12879526275709 0.5312994872977495 11.169301294401713 0 1 2
852 0 2 0.5897 4.144091150522084 2.736499074749021 11.544780863379094 0 1 0
1530 0 2 0.5897 5.792970379449341 1.3480482219414491 10.073773336107335 0 1 2
2091 0 2 0.5897 2.8575958817162803 0.05627715008862311 8.832334340565856 0 2 -2
850 0 1 -1.1794 3.7074657209116038 3.538697534072539 11.832835049723442 0 0 0
768 0 2 0.5897 1.3598647074093633 0.24543645258823363 12.2223081641502 0 0 0
880 0 1 -1.1794 0.786814540791151 1.439545911423593 11.1968072949122 0 0 -2
1627 0 1 -1.1794 9.44653441128339 3.9248656895868717 8.37973900321789 0 -1 1
736 0 1 -1.1794 8.228896901198588 1.8098055918389666 9.549536704049313 1 0 -1
738 0 2 0.5897 8.168172757927273 1.1447438599828392 8.860750488371814 1 0 -1
737 0 2 0.5897 8.694668332263236 2.5968096547795567 9.175095932233702 1 0 -1
408 0 2 0.5897 9.766618130384156 1.4027014509918365 10.619523046834535 0 0 -1
406 0 1 -1.1794 10.683236532944628 1.109883002906248 10.857592273687466 0 0 -1
1578 0 2 0.5897 11.20158028986062 3.246138735960727 11.477084890396469 0 0 -1
258 0 2 0.5897 7.70950522338042 3.819913491848204 11.995962944905695 0 -1 0
407 0 2 0.5897 10.628197282582358 1.11003441439326 11.819097394487782 0 0 -1
2160 0 2 0.5897 6.63903031552823 1.8381640240543435 11.850171156760323 0 0 1
363 0 2 0.5897 0.767724253458901 4.793895207456617 11.831621508750036 0 0 1
1254 0 2 0.5897 0.8453444954696155 7.689967234924486 11.458605048938916 1 0 0
859 0 1 -1.1794 6.257650288861307 4.613722324722865 9.266251216961864 0 2 1
2111 0 2 0.5897 3.292115239321842 5.062138083985194 10.356719951083415 0 0 0
2112 0 2 0.5897 2.9768765043271412 6.312651716835571 9.524959173363607 0 0 0
2110 0 1 -1.1794 2.608862247290226 5.445740682403085 9.746486115544553 0 0 0
2056 0 1 -1.1794 6.084395998361494 7.404098709030345 9.521863060331937 0 1 2
362 0 2 0.5897 1.3431722669574078 4.497243730062027 10.511009430924743 0 0 1
633 0 2 0.5897 4.404279010560561 7.918568187559531 9.28598699041973 0 -1 -1
2057 0 2 0.5897 6.289258760147692 6.600814129301919 9.035237429305415 0 1 2
851 0 2 0.5897 4.444443415364409 4.105427395680172 12.18200651727108 0 0 0
361 0 1 -1.1794 0.7320789770798717 4.100722812755675 11.150932232010632 0 0 1
861 0 2 0.5897 7.154132744851631 4.527342375592419 9.733471988235006 0 2 1
668 0 2 0.5897 7.380281760540462 7.317599972980884 11.6177532995026 0 0 0
1576 0 1 -1.1794 10.99419833192297 4.146675251583533 11.512961020364646 0 0 -1
1628 0 2 0.5897 9.784976313154576 4.839104461475805 8.546147122688133 0 -1 1
883 0 1 -1.1794 9.843458038868569 6.6086890211386375 8.652602504451334 0 -2 0
257 0 2 0.5897 8.981694587434387 4.459030599444761 11.490087485990237 0 -1 0
256 0 1 -1.1794 8.023189527078273 4.580633488296936 11.422056426832789 0 -1 0
884 0 2 0.5897 10.241997309905734 7.2528637445081925 9.226418466718329 0 -2 0
1908 0 2 0.5897 12.15239094782001 7.89502413356259 10.57084834565852 0 0 0
1577 0 2 0.5897 10.992221366232926 4.31842075782287 12.451431717161107 0 0 -1
1252 0 1 -1.1794 0.6434014319901424 8.216509322361837 10.632770281383634 1 0 0
1253 0 2 0.5897 1.4219142041298793 8.403592999434531 10.150988677242017 1 0 0
582 0 2 0.5897 0.6179685491795586 10.054657301347516 11.487068918667468 0 -1 0
632 0 2 0.5897 3.251628032688039 8.66604618285822 8.46388275648901 0 -1 -1
631 0 1 -1.1794 3.481028508405978 8.286152917795675 9.345467271858691 0 -1 -1
1595 0 2 0.5897 3.7251315893439174 9.476819212598249 10.711117476035 0 3 -1
2016 0 2 0.5897 4.06551561935433 11.9491810582717 9.262755292003964 1 -1 0
1820 0 2 0.5897 1.9080868750172362 11.486165706812042 10.152964340242567 0 1 2
1819 0 1 -1.1794 2.0950982195354886 11.807755741562993 9.258847073286296 0 1 2
1594 0 1 -1.1794 3.9367172540170503 9.667971597773008 11.703681107375742 0 3 -1
1596 0 2 0.5897 4.835764350283264 9.918381588742593 11.639889295867656 0 3 -1
2184 0 2 0.5897 6.156961244831961 10.664365566023232 9.303499173800446 0 0 0
89 0 2 0.5897 3.9698609740340856 8.074697194473627 12.504421551225546 0 1 0
2109 0 2 0.5897 11.90553195766718 11.022167055303745 8.699932963438384 0 -2 0
2183 0 2 0.5897 7.438423419445056 10.133103898306391 8.657798982937205 0 0 0
2058 0 2 0.5897 6.660625109838011 8.123268935034963 9.30137760575369 0 1 2
1906 0 1 -1.1794 11.322467999447666 8.300650480486167 10.304155814238722 0 0 0
667 0 1 -1.1794 7.776122118620234 8.050654548249561 12.105862999519228 0 0 0
669 0 2 0.5897 7.15525074454754 8.75511139846458 12.016733203147773 0 0 0
2182 0 1 -1.1794 6.880009333444302 10.007968815870987 9.44598153266932 0 0 0
1141 0 1 -1.1794 6.398024771743643 10.99351019014036 11.888453006693414 0 1 -1
2108 0 2 0.5897 11.763589626361803 11.597568525897843 10.046553610073811 0 -2 0
1907 0 2 0.5897 11.46520409321572 9.193806719600456 9.996346833624052 0 0 0
2107 0 1 -1.1794 11.276560801398348 11.01913391118099 9.435945162167476 0 -2 0
1287 0 2 0.5897 10.461580607498044 8.82636447836631 11.846651357705431 0 0 2
1143 0 2 0.5897 7.089782274407936 11.091444389153533 11.262488122428314 0 1 -1
38 0 2 0.5897 9.517250697511065 11.794046804633338 10.144485620644204 0 -1 0
2014 0 1 -1.1794 5.03232490046082 12.045564450235705 9.206622400825962 1 -1 0
2015 0 2 0.5897 5.253305951290057 12.628427408812723 9.92684995128058 1 -1 0
1259 0 2 0.5897 2.8153825723677826 15.308509639125164 8.366496116399471 1 0 0
1821 0 2 0.5897 1.889284733070147 12.723456684090012 9.059166178873555 0 1 2
1258 0 1 -1.1794 2.939595593377474 14.794598933031384 9.236757006871596 1 0 0
1260 0 2 0.5897 3.9022641528767825 14.715098489304802 9.362681926059382 1 0 0
537 0 2 0.5897 1.6343341015251724 14.8386166487727 10.396122842279011 0 0 0
373 0 1 -1.1794 5.890240180037655 14.792033678352139 9.277733596090346 0 0 -2
536 0 2 0.5897 1.1444516086793926 14.363752709342602 11.779354817232992 0 0 0
1619 0 2 0.5897 4.1292101836682615 15.016002487455141 11.823542885208543 0 -1 0
592 0 1 -1.1794 4.098745534644676 13.377522362701276 12.262233230338872 0 2 -1
1618 0 1 -1.1794 4.143319692677971 15.984503599432314 12.034951399472877 0 -1 0
606 0 2 0.5897 1.165279267361338 12.28508040174474 12.491219251644601 0 2 0
535 0 1 -1.1794 0.8541777874131993 14.90250082397981 11.034505802467777 0 0 0
288 0 2 0.5897 10.408862929663908 14.338760408384918 8.469615794905335 0 1 0
37 0 1 -1.1794 8.691518127324398 12.166143245570614 10.541028802234896 0 -1 0
375 0 2 0.5897 6.461356756280773 14.200782838466278 8.696894708939684 0 0 -2
374 0 2 0.5897 6.440738652685528 15.008787940896593 10.026992481315261 0 0 -2
39 0 2 0.5897 8.258050797264158 12.483811663680967 9.721243150882515 0 -1 0
304 0 1 -1.1794 10.454207288783584 15.17398582408476 9.976234672234579 0 1 1
306 0 2 0.5897 9.4891312249056 15.269424275762931 10.095810329491421 0 1 1
1307 0 2 0.5897 10.805921552015395 14.916851894433439 11.797903250281973 0 -3 1
2239 0 1 -1.1794 7.850986294304321 15.878418345724867 10.855946726012691 1 1 -1
2241 0 2 0.5897 7.699796057096619 15.839716059111442 11.811946265538879 1 1 -1
627 0 2 0.5897 8.627749539400588 12.586942137422131 12.373977992170875 0 0 -1
562 0 1 -1.1794 0.8891936825575399 17.62785052453127 11.06797272259753 0 -1 -2
1302 0 2 0.5897 3.2351134121051746 18.023578418181003 9.265671253510588 0 1 0
2038 0 1 -1.1794 4.453357986603712 17.956118504737848 10.353536345541485 0 1 1
2040 0 2 0.5897 4.465285301227574 18.381541753058123 11.226294293207483 0 1 1
1301 0 2 0.5897 1.653805298834586 18.070668191263003 9.434882257538359 0 1 0
1300 0 1 -1.1794 2.4032374373815886 18.16588585007744 8.759372776973777 0 1 0
2039 0 2 0.5897 5.309259153043311 18.244545656357005 9.907687439562324 0 1 1
563 0 2 0.5897 1.2794176616155912 18.250731574395868 11.768074785585792 0 -1 -2
1620 0 2 0.5897 4.229001496555085 16.528271899240693 11.21374044797593 0 -1 0
564 0 2 0.5897 0.9063501319626437 16.705625114405617 11.4312241706722 0 -1 -2
1318 0 1 -1.1794 4.568504532721619 19.603891611739794 12.407703612997565 0 -1 -1
618 0 2 0.5897 10.971029271126945 18.10354470521561 9.389174645496832 0 2 0
305 0 2 0.5897 10.783192825559661 16.109715642928794 10.106587288523043 0 1 1
2240 0 2 0.5897 7.56277084016917 16.74299224249971 10.563328904172218 1 1 -1
310 0 1 -1.1794 6.896306710065301 18.52974576072528 9.409143034178362 0 -1 -2
312 0 2 0.5897 7.087502415563605 19.005590748990087 8.613148355007148 0 -1 -2
311 0 2 0.5897 7.309232080437856 19.047559180611408 10.119386373743922 0 -1 -2
77 0 2 0.5897 10.824273964241549 18.02217300888075 11.766404184785756 0 0 1
1050 0 2 0.5897 8.762051752402988 19.24073355078224 12.255887979675377 0 -1 -1
616 0 1 -1.1794 11.475634704727453 17.77433523120373 10.10444619949307 0 2 0
1048 0 1 -1.1794 7.846115400742389 19.510947990916403 12.030075096232839 0 -1 -1
1115 0 2 0.5897 2.400359521008829 2.394447572539729 14.375698611271297 0 1 -2
1114 0 1 -1.1794 2.244224294895584 3.278374704956953 14.028965165433597 0 1 -2
1116 0 2 0.5897 2.543031483461885 3.303839758119995 13.139962919630653 0 1 -2
1373 0 2 0.5897 4.812460247692972 3.231138463764174 14.890962702570773 0 -1 1
1372 0 1 -1.1794 5.791862019786823 3.2733317694913717 14.824654870879602 0 -1 1
1768 0 1 -1.1794 2.9533829916549275 1.09563470418917 15.89265052092141 0 0 0
1769 0 2 0.5897 3.5783178700914404 1.141006108232887 16.596464804380066 0 0 0
1770 0 2 0.5897 2.854745178304195 0.12358920156675401 15.858924781229375 0 0 0
1374 0 2 0.5897 6.122853743346009 2.567786740135823 14.26033498134859 0 -1 1
79 0 1 -1.1794 12.110966551497262 1.256834675870701 16.611878062716475 0 1 1
2159 0 2 0.5897 7.911701191759639 1.7846119994218268 12.743918964126852 0 0 1
2158 0 1 -1.1794 7.086051647947828 2.288994961680771 12.62854234311696 0 0 1
546 0 2 0.5897 9.670498334315756 2.203348706527673 14.09550340824301 0 0 2
544 0 1 -1.1794 9.584517697276516 1.297417346726144 13.698483046532061 0 0 2
545 0 2 0.5897 9.715127388679539 0.6446183671186251 14.413938829660163 0 1 2
325 0 1 -1.1794 10.53954654717091 3.9947133514424977 14.312577704141907 0 -1 -1
2018 0 2 0.5897 6.845794605809435 0.05426087961097165 14.968380931866056 1 0 0
920 0 2 0.5897 7.094980795498207 3.824287744761008 16.20760993823378 0 0 0
281 0 2 0.5897 0.6331165904583267 6.638953686328727 13.6257100033581 0 1 -1
88 0 1 -1.1794 3.7168084834255066 7.246537364708916 12.982185673258988 0 1 0
1061 0 2 0.5897 2.6603470118705066 4.536150148699228 15.185510464021187 0 1 -4
280 0 1 -1.1794 1.0835716316662654 6.475695648048899 12.777188608917875 0 1 -1
282 0 2 0.5897 2.04075988432649 6.67935396022977 12.921080131215682 0 1 0
1062 0 2 0.5897 2.708501157095003 5.996495444489345 15.608039236415292 0 1 -4
90 0 2 0.5897 4.330855185070304 6.605537584792694 12.627994447110511 0 1 0
1060 0 1 -1.1794 2.9128358336725757 5.061580260470225 15.91523726323301 0 1 -4
838 0 1 -1.1794 5.807476188879785 5.376352368283229 13.124011994322537 0 -1 0
840 0 2 0.5897 5.8436341995195145 4.73410592735049 13.828740704493514 0 -1 0
769 0 1 -1.1794 2.8408026884057236 7.9973624087163016 15.820214121225975 0 1 0
1133 0 2 0.5897 5.947796233142604 6.675538130499073 14.500595246708933 0 0 2
1132 0 1 -1.1794 6.37011554236649 7.208154802283199 15.194206128967437 0 0 2
326 0 2 0.5897 11.422726444247733 4.325730048663247 14.592560490069852 0 -1 -1
839 0 2 0.5897 6.573861314410782 5.2066458650867675 12.544407331453838 0 -1 0
327 0 2 0.5897 9.870061905340743 4.655939826681581 14.541084180593645 0 -1 -1
1156 0 1 -1.1794 8.926526332448926 6.6416015762887515 15.780557549773679 0 0 0
63 0 2 0.5897 10.449016999829244 7.279861915006249 15.100611721883377 0 0 0
1157 0 2 0.5897 7.965229905877482 6.79761860554196 15.65453709337146 0 0 0
61 0 1 -1.1794 11.157261218723281 7.684862858223789 14.53927670360242 0 0 0
1158 0 2 0.5897 9.018377978830848 5.890543868403656 16.39400949063881 0 0 0