LAMMPS data file via write_data, version 23 Jun 2022, timestep = 3792000

2268 atoms
2 atom types

0.8410447933625989 46.609654206628676 xlo xhi
0 20.047001 ylo yhi
0 20.857 zlo zhi

Masses

1 1.008
2 15.999

Atoms # full

842 0 2 0.5897 4.738431603464168 3.2183773747504487 3.2825503463103303 0 1 -1
1842 0 2 0.5897 1.8082766223079587 3.396433754288989 1.6084500193607614 0 0 1
1651 0 1 -1.1794 6.071212671657555 1.6971030389929425 3.30400935904992 0 1 0
1647 0 2 0.5897 1.8521070787412774 1.401077722369222 2.7532297519647186 0 0 -1
1645 0 1 -1.1794 2.1908167283637883 0.43257834967448694 2.7876525026683345 0 0 -1
1646 0 2 0.5897 2.9942612576981613 0.4635119444376693 3.389008997205116 0 0 -1
283 0 1 -1.1794 6.195946103343701 3.7128140311732247 1.0274126466515536 0 1 0
320 0 2 0.5897 2.8833265297087394 0.31414741951198233 1.1500844195174973 0 0 1
843 0 2 0.5897 4.026849103797207 3.8902267955534224 2.1168890296704985 0 1 -1
841 0 1 -1.1794 4.081194958944123 3.891028505453488 3.0838841823862455 0 1 -1
354 0 2 0.5897 5.046132043096263 0.6545178040059388 3.8880801603160786 0 1 0
285 0 2 0.5897 6.351808138017207 3.221252480554423 0.20640964969101802 0 1 0
319 0 1 -1.1794 3.2214914519091136 0.31336031165037775 0.21849037997386062 0 0 1
139 0 1 -1.1794 3.0720147451253745 3.882980227656843 0.5717642175941159 0 1 0
1841 0 2 0.5897 1.06596278910595 3.6988382164126707 2.9445045657028563 0 0 1
1652 0 2 0.5897 6.428476696061591 1.9982071843206666 4.151559875647451 0 1 0
1840 0 1 -1.1794 1.053065744689799 3.058291747878591 2.208702263357124 0 0 1
1653 0 2 0.5897 6.765858955530953 1.498960463647564 2.6547242887367855 0 1 0
1989 0 2 0.5897 11.14418379329903 2.5899055705160503 3.1131703114604306 1 1 1
1987 0 1 -1.1794 11.646467816708089 2.9080024187607934 2.3305114300892074 1 1 1
1065 0 2 0.5897 7.537023547152674 3.414941536467003 2.355197923652764 0 -1 1
1280 0 2 0.5897 8.594129188902537 1.456192103403695 0.9943015591715566 1 0 0
1279 0 1 -1.1794 7.963608495027868 0.842845228803596 1.386504752810146 0 1 0
2156 0 2 0.5897 10.511089558103645 2.684277960310447 0.910618498036347 0 0 0
1063 0 1 -1.1794 8.184296976886866 3.8980627824408547 2.9125006403847618 0 -1 1
2019 0 2 0.5897 9.032609603755086 2.578745172871804 3.9010710791465772 0 0 0
2155 0 1 -1.1794 9.727445513266591 2.350865449509097 0.42511456216487215 0 0 0
1352 0 2 0.5897 6.6144925219555795 0.2033137902603403 0.5658954825612542 0 0 1
1281 0 2 0.5897 8.455372993339612 0.11742154085675313 1.7263383137746833 0 1 0
803 0 2 0.5897 4.918583963377819 6.567621352549452 2.4559834698064757 0 0 1
802 0 1 -1.1794 4.804415511273577 6.813899087347047 3.380985289172909 0 0 1
804 0 2 0.5897 3.839704393061211 6.882761386107825 3.515994066302412 0 0 1
772 0 1 -1.1794 1.9546507361343024 7.1873376760447245 3.635461395707299 0 1 0
773 0 2 0.5897 1.4498999756575819 6.346195968557242 3.540842947168593 0 1 0
140 0 2 0.5897 3.23123601570728 4.772470411978353 0.19474673426867514 0 1 0
19 0 1 -1.1794 5.592441429924254 6.387997237457391 0.7593424634952289 0 0 0
284 0 2 0.5897 6.124954743000866 4.664561621317029 0.7756960052538951 0 1 0
576 0 2 0.5897 2.6870140040620045 7.0322004581840964 0.023864537782166118 0 0 0
20 0 2 0.5897 6.386782675109451 6.894930363553767 0.43698238020535973 0 0 0
1064 0 2 0.5897 7.562161416670272 4.342672079812057 3.5319818771300735 0 -1 1
359 0 2 0.5897 9.814359789845001 7.1464027558766805 1.5131958721620833 0 1 1
1037 0 2 0.5897 9.365897359413008 4.700449776035181 1.7203598023518947 0 0 0
1036 0 1 -1.1794 9.834343097764345 5.225568327834146 1.0644065776807035 0 0 0
1038 0 2 0.5897 10.79359935754003 5.085511658326634 1.1255630788517919 0 0 0
278 0 2 0.5897 11.832848217904838 5.0275892305237155 2.925315520212559 0 1 0
358 0 1 -1.1794 10.150237922477018 7.9675975955617275 1.820987100854432 0 1 1
309 0 2 0.5897 12.18847186758857 7.54555790903115 2.5552382717034274 0 0 0
279 0 2 0.5897 10.957361985040254 5.983111163718705 3.804433220297322 0 1 0
277 0 1 -1.1794 11.887955868520985 5.676768861999059 3.6380343888756492 0 1 0
770 0 2 0.5897 2.0484796312579343 8.09227770966139 1.9877740680876377 0 0 1
771 0 2 0.5897 3.1131309387115462 8.730679952760378 1.07675301009817 0 0 1
769 0 1 -1.1794 2.1572777648351935 8.520570853502386 1.1277740009591484 0 0 1
1776 0 2 0.5897 1.6963299971734944 10.064623062395023 1.8849204005600015 0 1 0
520 0 1 -1.1794 4.627868556727758 9.467889229638363 0.6816965237988594 0 1 0
521 0 2 0.5897 4.803820941785228 10.069215853606424 1.3402157856240031 0 1 0
1774 0 1 -1.1794 1.452280829047472 10.996456222749659 2.080023329063077 0 1 0
1775 0 2 0.5897 1.606193578001602 11.396632539115785 1.211330448462291 0 0 0
1861 0 1 -1.1794 5.053639880879207 11.725662985060627 2.335569115865548 0 1 1
1863 0 2 0.5897 4.559711802825382 11.999104940273831 1.5568790839068627 0 1 1
297 0 2 0.5897 5.668324689975505 11.897817401997312 4.097172297104587 0 1 0
360 0 2 0.5897 9.523622623240653 8.265026000964449 2.472447811712196 0 1 1
1893 0 2 0.5897 10.119820455296948 11.56770459820674 1.4481950095041756 0 0 1
1892 0 2 0.5897 11.606716048882815 11.469394680358926 1.9145457081220354 0 0 1
2008 0 1 -1.1794 8.616392615473572 10.413161396357864 1.0497561807406863 1 0 1
2009 0 2 0.5897 8.459393563634695 10.315679171427798 1.964261866634238 1 0 1
2010 0 2 0.5897 8.016074447445291 11.051706671147187 0.6731267803527827 0 0 1
385 0 1 -1.1794 8.079234707278083 9.78771542588719 3.4896064416629486 0 1 2
602 0 2 0.5897 11.069148621992229 8.810162951814384 0.25346679244735 0 1 1
357 0 2 0.5897 8.266975946713604 8.636924192703558 0.4340394484268515 0 0 1
387 0 2 0.5897 7.27482299994059 9.442318001723365 3.925101870407742 0 1 2
630 0 2 0.5897 2.279208285274972 12.02842314427934 3.2610972897228954 0 0 0
1266 0 2 0.5897 4.412469275986343 15.14850598580226 2.411834187761864 0 -1 2
1264 0 1 -1.1794 5.013103002505803 15.470740129954287 1.6554464684222812 0 -1 2
267 0 2 0.5897 2.427662566454649 13.593560312522849 1.4043088432560014 0 0 0
265 0 1 -1.1794 3.104137733824223 13.146583679759086 0.8566763252528031 0 0 0
1862 0 2 0.5897 5.889674257406847 12.126447351888567 2.163984386984847 0 1 1
1265 0 2 0.5897 4.794632379116742 14.992264863660617 0.8763156218696463 0 -1 2
727 0 1 -1.1794 3.7692734205241503 14.789196981055303 3.8537914033966882 1 0 0
587 0 2 0.5897 6.51434463352973 14.451322373926619 1.9375775127767292 0 2 0
328 0 1 -1.1794 1.0704848105143459 14.427184807780645 2.425189074692578 0 0 0
629 0 2 0.5897 3.057373772059502 13.154330064577572 4.093165980812861 0 0 0
728 0 2 0.5897 3.0239457013985174 15.431541055437949 4.052194093213213 1 0 0
329 0 2 0.5897 0.9353583358707174 15.362875418519184 2.2562702112681254 0 0 0
1891 0 1 -1.1794 10.88040099879794 12.08953014358643 1.751226683812299 0 0 1
1031 0 2 0.5897 9.156298829314753 12.41627476257065 3.839130901346818 0 0 -1
1779 0 2 0.5897 11.051811354729088 13.972826802845848 1.4134303714510261 0 -1 0
1777 0 1 -1.1794 11.220219566915002 14.90019421049097 1.339576399515802 0 -1 0
588 0 2 0.5897 7.595941409233849 13.924668859813677 2.752385515227138 0 2 0
586 0 1 -1.1794 7.230539834751682 13.788861018809326 1.8737822817788783 0 2 0
1778 0 2 0.5897 12.143387539831588 15.057422474649714 1.5100421861891258 0 -1 0
2084 0 2 0.5897 7.153479073367586 13.018306253137714 0.34310076060490724 0 1 0
785 0 2 0.5897 5.054498224997432 17.102827174025656 3.0532692412972073 0 0 1
1092 0 2 0.5897 1.811893249537491 17.49601384572982 2.7583143836653963 0 -1 0
786 0 2 0.5897 5.09272124760752 18.586813986160816 3.463134847018161 0 0 1
784 0 1 -1.1794 5.616913626264453 17.891128033250144 3.08580663836823 0 0 1
1090 0 1 -1.1794 2.45838788229302 17.2454723586324 3.498695964268395 0 -1 0
2 0 2 0.5897 6.325151950681081 16.65403322906193 0.9628493495566488 0 -1 0
41 0 2 0.5897 1.6675382897372333 17.286737663711573 0.6014207160599279 0 -1 1
2067 0 2 0.5897 3.9681099375765383 17.38702056489171 0.07628999796683199 0 0 0
1353 0 2 0.5897 5.128408752667315 20.024758388457084 0.37810849790008383 0 -1 1
1091 0 2 0.5897 2.6119084152334935 18.10346261318154 3.932515759704323 0 -1 0
40 0 1 -1.1794 1.0725520284387404 16.81951131459464 1.192743263347996 0 -1 1
3 0 2 0.5897 6.384499485903636 18.160758050312378 0.4446570304123765 0 -1 0
1350 0 2 0.5897 10.330905410975696 16.08468328830057 2.551208449884668 0 0 0
1348 0 1 -1.1794 9.710661289105415 16.36741756423837 3.240779978766101 0 0 0
1349 0 2 0.5897 9.606913151922058 17.324312875867825 3.1046641136531483 0 0 0
750 0 2 0.5897 10.398751013818613 18.853307506093152 1.023970921975317 0 0 0
121 0 1 -1.1794 8.417795618260165 18.71501883786282 3.0389555810741458 0 -1 0
749 0 2 0.5897 11.119131521708926 19.224424469812764 2.391808006285456 1 0 0
748 0 1 -1.1794 11.172914088008525 19.21284422528839 1.4429660359403333 1 0 0
123 0 2 0.5897 8.121266077585279 18.8103719351015 3.9750619947671493 0 -1 0
122 0 2 0.5897 7.620255236733975 18.391849363850312 2.6229580021904524 0 -1 0
1577 0 2 0.5897 11.984631743010265 19.97248688429968 0.034990420262741385 0 -1 1
1083 0 2 0.5897 6.97317517269423 16.822029785267862 4.1377924004823035 0 0 0
1 0 1 -1.1794 6.790528506269575 17.269235564560763 0.3869138393864857 0 -1 0
332 0 2 0.5897 2.830197242462288 3.3324532882963935 4.538349980318953 0 0 0
331 0 1 -1.1794 2.578477165494542 2.448272427076394 4.910870501524736 0 0 0
1242 0 2 0.5897 3.346304575068938 2.293055507307847 6.561229833322232 1 0 0
1240 0 1 -1.1794 4.080177940682287 2.177773728443664 7.22045829623368 1 0 0
333 0 2 0.5897 1.6483422315378515 2.506749066122687 5.041914865503629 0 0 0
54 0 2 0.5897 5.51190288985897 2.7364140258057583 6.191201205038825 0 1 0
1088 0 2 0.5897 2.5868837272876513 0.6999449364388691 7.690825940516005 0 -1 0
52 0 1 -1.1794 6.35542991103627 2.940647612055712 5.718745148948258 0 1 0
353 0 2 0.5897 4.233626308597785 0.1107956260201354 5.152445267997929 0 1 0
1087 0 1 -1.1794 1.6764463151606859 0.49453615690637087 7.427874394979369 0 -1 0
1241 0 2 0.5897 3.8603861639310106 2.7380508371697956 7.955989135661863 1 0 0
1343 0 2 0.5897 0.8457032972503882 0.20344560201829126 5.7744253892523005 0 1 0
2017 0 1 -1.1794 9.608070196224993 2.145982820559271 4.549255089235526 0 0 0
1821 0 2 0.5897 10.758243104013005 0.5265721648461541 4.2996935946037755 0 2 1
2018 0 2 0.5897 9.082971135243934 1.8572760145261542 5.3464931440563275 1 0 0
510 0 2 0.5897 8.132023730808113 0.740780387570657 7.790541682054375 0 0 1
53 0 2 0.5897 6.983221791942756 2.9062165514461147 6.4225641175693555 0 1 0
508 0 1 -1.1794 8.56260922932854 0.8054753732473028 6.904644227326611 0 0 1
342 0 2 0.5897 10.692883784295326 3.2414167229560107 5.417160994443248 0 -1 1
509 0 2 0.5897 9.357868558822615 0.3352200108504957 7.084782158013436 0 0 1
340 0 1 -1.1794 11.350121782588083 3.766134415106136 5.89762441913445 0 -1 1
1904 0 2 0.5897 9.837488925001603 3.215262945828374 8.074948301447709 0 0 0
1630 0 1 -1.1794 8.495452872331771 4.003295118930397 7.139343638837418 0 1 1
815 0 2 0.5897 0.8893312090203104 4.017797260841941 7.070986801630497 0 1 0
371 0 2 0.5897 6.335988891747727 5.958847868858551 4.259108630834502 0 0 1
774 0 2 0.5897 1.8843214802806005 7.4779010812991995 4.568501895808917 0 1 0
2031 0 2 0.5897 4.140691571095893 5.082537373938032 4.88835409084571 0 1 0
816 0 2 0.5897 2.1253963549990837 4.714023379993815 6.572971576809186 0 1 0
2029 0 1 -1.1794 3.81102633452704 5.033902978948145 5.818563402519437 0 1 0
2030 0 2 0.5897 4.023598336859901 5.846735082170382 6.239117341162244 0 1 0
1302 0 2 0.5897 4.954728535930327 7.668204756646663 7.802173071951213 0 1 0
1300 0 1 -1.1794 4.005932937418416 7.583719202480889 8.020062387734747 0 1 0
814 0 1 -1.1794 1.3516309100703872 4.906666392833865 7.143038260105569 0 1 0
512 0 2 0.5897 2.5893046810153155 7.6898283306275115 6.887002125504338 0 0 0
290 0 2 0.5897 6.443873836275871 7.862635057214782 6.239243469164761 0 0 0
341 0 2 0.5897 11.716462671311392 4.392272835824328 5.2404737315768015 0 -1 1
372 0 2 0.5897 6.7281482435675 4.81887845428103 5.243541229436733 0 0 1
1049 0 2 0.5897 11.348115622218467 6.2011742460706705 7.697962692520341 0 0 0
1788 0 2 0.5897 8.703133418734604 6.346291485295215 4.639727714286277 0 -1 0
289 0 1 -1.1794 6.704595530965602 7.598601506616807 7.1295756707478395 0 0 0
1631 0 2 0.5897 9.078002557804641 4.472962793482044 6.476805623784172 0 1 0
1632 0 2 0.5897 8.042181166965179 4.7122337937278305 7.695323939934622 0 1 0
370 0 1 -1.1794 7.038349203205976 5.632311872059645 4.835203716633903 0 0 1
1786 0 1 -1.1794 9.613794480133068 6.706578151146241 4.696646184581349 0 -1 0
1787 0 2 0.5897 9.706708896980805 6.947529599168127 5.646485435592264 0 -1 0
1048 0 1 -1.1794 10.834350717740499 6.901320321887882 7.26618830776626 0 0 0
536 0 2 0.5897 6.9191313526331015 6.271690714451281 8.250584650547951 0 0 -2
1050 0 2 0.5897 11.427190227216396 7.316245828767284 6.643226752636706 0 0 0
2028 0 2 0.5897 5.388875486832602 8.326586717024165 4.504172756572586 0 0 0
2026 0 1 -1.1794 5.918709283275192 8.995933227493536 4.87453797530128 0 0 0
513 0 2 0.5897 1.1196623716526908 8.257660884583762 6.589972345248507 0 0 0
2027 0 2 0.5897 5.225431969483236 9.567569904432165 5.149612472469838 0 0 0
511 0 1 -1.1794 1.987756472450212 8.114089676459807 6.233738595157516 0 0 0
315 0 2 0.5897 3.0055520884962776 9.702623815746712 5.834040332615274 0 0 0
313 0 1 -1.1794 3.7874748169257013 10.353550102316824 5.77775723555849 0 0 0
314 0 2 0.5897 3.5038346683563737 11.041067489711049 5.144000870923725 0 0 0
1542 0 2 0.5897 4.800289324694939 10.72220901683902 7.5386301352687015 0 0 1
477 0 2 0.5897 1.0502956617591384 10.357904228844994 7.7646965811387725 1 0 0
1540 0 1 -1.1794 5.23213655632372 10.97651971426887 8.337239617001257 0 0 1
1259 0 2 0.5897 0.9131980409910707 10.694842652230465 4.209197747868379 1 0 0
134 0 2 0.5897 12.21740964225453 11.516771850125423 7.94085401817624 0 0 -1
386 0 2 0.5897 8.7203366644933 9.842322776439884 4.197212007530567 0 1 2
291 0 2 0.5897 7.222301167657078 8.304851787644644 7.4717041300791305 0 0 0
1584 0 2 0.5897 10.293722548738986 11.076692909872053 5.470894431144894 0 1 0
1582 0 1 -1.1794 9.887178775356976 10.197251253014832 5.305836312864127 0 1 0
1835 0 2 0.5897 7.2308938511313965 10.505273789203565 7.3662733777184135 0 -1 0
1834 0 1 -1.1794 8.141306279486773 10.216023456240654 7.514488063689684 0 -1 0
1836 0 2 0.5897 8.61184817454011 10.176687996320357 6.658711206654424 0 -1 0
1583 0 2 0.5897 10.61146616516195 9.602595722230305 5.327994449348905 0 1 0
295 0 1 -1.1794 6.175437530513699 12.110534680166763 4.874616698724934 0 1 0
628 0 1 -1.1794 2.559267092089065 12.354501739419376 4.184575519362803 0 0 0
729 0 2 0.5897 4.250325809576939 14.807997140336854 4.696825321560142 1 0 0
516 0 2 0.5897 1.3430277102163735 12.602725094355224 7.543122114037685 0 0 0
515 0 2 0.5897 1.8211340917334171 13.369144588305879 6.2076232963595 0 -1 0
514 0 1 -1.1794 1.9089059144805949 13.369693904511696 7.209456933118016 0 0 0
1148 0 2 0.5897 3.613473485656806 13.620645106448665 7.918444068068834 0 0 0
1490 0 2 0.5897 2.380635615894392 15.527227710253456 7.213118310578664 1 0 0
607 0 1 -1.1794 5.487243344422646 14.393278562366195 6.043700123632135 0 0 1
608 0 2 0.5897 5.410168314080939 14.31000847827301 7.014044954972463 0 0 1
296 0 2 0.5897 5.840792830885866 12.905964756823266 5.312627479934288 0 1 0
609 0 2 0.5897 6.26105558116708 14.971321048018659 5.89663819595687 0 0 1
1147 0 1 -1.1794 4.4666764814294435 13.587859662951386 8.29006281707929 0 0 0
2142 0 2 0.5897 10.915453029882537 15.406783100349717 4.470471089457998 0 0 1
1030 0 1 -1.1794 8.538534058869065 12.894434707113417 4.393909306389744 0 0 -1
1081 0 1 -1.1794 7.275631219725541 16.00914659521499 4.5782980925908445 0 0 0
1032 0 2 0.5897 7.78806856789368 12.345180585249507 4.626657531261793 0 1 -1
639 0 2 0.5897 10.006591222476505 13.586260747682228 7.273478078262669 0 0 -1
637 0 1 -1.1794 9.354192316501189 14.097740516948626 6.813979549989384 0 0 -1
638 0 2 0.5897 9.221928429783832 13.637427481219108 5.948844768531158 0 0 -1
2088 0 2 0.5897 11.93883021361664 15.490896208571778 6.73184981370911 0 0 0
1082 0 2 0.5897 8.104515584250665 15.760275465865904 4.197283651797131 0 0 0
1826 0 2 0.5897 9.213049519155865 15.856959696312682 6.867739291911265 0 0 -1
2141 0 2 0.5897 11.784209596927864 14.09719615580972 4.846188044867735 0 0 1
2140 0 1 -1.1794 11.805495076987429 15.102931820157638 4.810457154434292 0 0 1
22 0 1 -1.1794 11.914085108163942 12.341845980073083 5.164749700193833 0 1 1
352 0 1 -1.1794 4.368420585185703 20.005891453626564 4.202472319108553 0 0 0
1489 0 1 -1.1794 2.4351303926491115 16.23534815914706 6.591046956012278 1 0 0
1491 0 2 0.5897 3.3470116053572094 16.430750720865156 6.5674840156498915 1 0 0
1143 0 2 0.5897 5.042842889936244 17.404089670551514 7.264378105853887 0 0 0
1141 0 1 -1.1794 4.569878120991053 17.59381731737006 6.4549287308947845 0 0 0
1142 0 2 0.5897 5.298023591761327 17.65670427299413 5.7877397487751505 0 0 0
1089 0 2 0.5897 1.58594741362976 19.587519888135336 7.639427257884286 0 -2 0
849 0 2 0.5897 1.7188262990011651 17.394128770887445 7.831002016719748 0 -1 0
1344 0 2 0.5897 1.1338958037401896 19.97239360544151 4.19784190804662 0 0 0
1819 0 1 -1.1794 11.209698937108723 19.707410757379808 4.194159686751817 0 1 1
1773 0 2 0.5897 11.434936223295908 18.844658577095768 7.236539713942011 0 -1 1
1771 0 1 -1.1794 10.560054257587687 19.04163813976177 6.832179715276755 0 -1 1
1827 0 2 0.5897 9.812947353406317 17.326237954334054 7.070362641420071 0 0 -1
1772 0 2 0.5897 10.75806417281232 19.062333210767296 5.9148627390287345 0 -1 1
1825 0 1 -1.1794 9.03073228930021 16.736748961609276 7.143441141073946 0 0 -1
2241 0 2 0.5897 7.9518612065019125 18.00418428290533 6.0076267757099835 1 0 1
2239 0 1 -1.1794 7.608486145001068 18.72483438246552 5.451812065442384 1 0 1
2240 0 2 0.5897 7.6914327071185875 19.492646530944278 6.004921063996299 1 0 1
1820 0 2 0.5897 12.144107948958567 19.931343757744475 4.28743977298848 0 1 1
105 0 2 0.5897 5.60441835805424 1.0906870117815888 8.549748382367422 0 -1 1
1312 0 1 -1.1794 1.4699278895061654 0.5133010184393523 11.651038994224843 0 1 0
836 0 2 0.5897 2.3080046437023496 2.7517625601263793 9.947377383798377 0 0 0
835 0 1 -1.1794 3.2683089949533395 2.9316808076225587 9.859501672861875 0 0 0
837 0 2 0.5897 3.6784741382421404 2.315760595050899 10.517228459487153 0 0 0
874 0 1 -1.1794 4.86544683998401 2.023835899494323 11.833768590612687 0 2 0
875 0 2 0.5897 5.7596895558573245 2.0529869847959725 11.445409035452206 0 3 0
1313 0 2 0.5897 1.698078636317363 1.0531790664331435 12.450219668180665 0 1 0
1314 0 2 0.5897 1.001419188934238 1.1270507319801968 11.059187725796017 0 1 0
103 0 1 -1.1794 6.548477559258738 0.8639850393861602 8.781468516855051 0 -1 1
1098 0 2 0.5897 11.92735090861446 1.732205630029444 11.804739163909948 0 0 0
104 0 2 0.5897 6.93687961918114 1.6428943408954648 9.306304017306804 0 -1 1
1903 0 1 -1.1794 10.49889194326415 2.9333123477671976 8.78736128932064 0 0 0
1284 0 2 0.5897 7.977623270180926 2.2182486165614743 11.348951164583626 0 0 0
1793 0 2 0.5897 9.984557421035435 1.3454704181340522 9.386945027477534 0 0 1
1282 0 1 -1.1794 7.394130539076473 2.646454050524341 10.712004467031848 0 0 0
1905 0 2 0.5897 10.192560270134486 3.5062666430236558 9.538154489084805 0 0 0
16 0 1 -1.1794 8.888283243603768 1.104149631242547 12.358436774339793 0 1 -1
1794 0 2 0.5897 9.310710760149831 0.42723807874358033 10.528417544208166 0 0 1
1792 0 1 -1.1794 9.71571689590112 0.4261764118582411 9.639301073431492 0 0 1
1096 0 1 -1.1794 11.569840556919049 1.0749189408257136 12.429455874681826 0 0 0
1283 0 2 0.5897 7.538633887924782 3.5712752510668335 10.785319348443778 0 0 0
1097 0 2 0.5897 11.725163822330309 0.20099288343072627 12.005455362281701 0 0 0
1301 0 2 0.5897 4.02502181381046 6.732530996561291 8.515963404499766 0 1 0
346 0 1 -1.1794 1.319427180386734 4.753247856279603 11.943497140113276 0 2 1
347 0 2 0.5897 1.0898441143938806 5.078860735124508 11.048304338223225 0 2 0
1034 0 2 0.5897 3.873432767118056 4.493862934459371 9.904179075120606 0 -1 0
1033 0 1 -1.1794 4.298361098935219 5.367645819618641 9.77527131865609 0 -1 0
1035 0 2 0.5897 4.235445184759376 5.853502406264104 10.560147317546557 0 -1 0
349 0 1 -1.1794 4.206934488043981 7.491373383397646 11.79243624882632 0 0 0
348 0 2 0.5897 2.2190194765859177 4.391103087845203 11.940949797731177 0 2 0
1268 0 2 0.5897 1.4037471458498476 5.54281074315121 8.746100467962693 0 1 0
537 0 2 0.5897 6.200474346945362 5.451454016230047 9.337732152551816 0 0 -2
504 0 2 0.5897 1.955963187147988 7.773053959823815 11.78258884816113 1 0 -1
1267 0 1 -1.1794 1.0236086766870274 5.89008316319756 9.570117700773569 0 1 0
350 0 2 0.5897 5.036753780505848 7.665767829768024 12.34513535774521 0 0 0
1563 0 2 0.5897 5.647562484411363 5.311509985894397 12.139033799429644 0 2 0
1868 0 2 0.5897 12.069688094300309 4.307258543423392 8.708493692515644 0 0 0
57 0 2 0.5897 9.349981098044973 4.098300123651527 12.253561558843115 0 1 0
1812 0 2 0.5897 11.957777412852794 7.480921212793753 11.028471889517569 0 -1 0
1810 0 1 -1.1794 11.835970421226488 6.499836632326468 11.060124588500123 0 -1 0
1562 0 2 0.5897 6.968296814495099 6.195061978248336 12.044451049134693 0 2 0
535 0 1 -1.1794 7.017189948813738 5.597893244066153 8.913070666336289 0 0 -2
1561 0 1 -1.1794 6.591338189185843 5.285767563369521 12.234148307308848 0 2 0
77 0 2 0.5897 8.642066688627496 5.429876932804812 10.06987691506811 0 1 0
76 0 1 -1.1794 9.368775385796393 4.976135905463882 10.492943697396235 0 1 0
78 0 2 0.5897 10.124225644377056 5.560419784444608 10.608141448078886 0 1 0
89 0 2 0.5897 10.26075003197058 7.791633278712417 8.43252096627888 0 1 0
1849 0 1 -1.1794 7.777006278391503 7.756422039154838 11.333397383505597 0 -1 0
1851 0 2 0.5897 8.363410299606985 7.844079861877727 10.591009283236156 0 -1 0
503 0 2 0.5897 1.0711676501003735 9.06747645267542 12.184039288913048 1 0 -1
1541 0 2 0.5897 4.946843764152028 11.919996999499565 8.382857912760029 0 0 1
46 0 1 -1.1794 1.9401872528553739 9.217428250060207 8.968941944049345 0 0 1
47 0 2 0.5897 2.791754873353196 8.832420536833306 8.706986552015856 0 0 1
264 0 2 0.5897 5.583002096739904 9.967735907980016 9.64192490702035 1 -1 0
48 0 2 0.5897 1.8843851807779681 8.796887758425411 9.832380344986891 0 0 1
263 0 2 0.5897 5.196971368313875 10.455749423058037 10.960973533329708 0 -1 0
262 0 1 -1.1794 5.545702198743224 9.658926904832093 10.552992292749348 0 -1 0
1106 0 2 0.5897 1.8466744592710438 10.936478918222976 10.00090103986424 0 0 0
351 0 2 0.5897 4.391670206057526 8.232580056534683 11.166913238893542 0 0 0
502 0 1 -1.1794 1.3837239210955612 8.461494059609182 11.469495392954176 1 0 -1
1107 0 2 0.5897 2.6928873856433713 11.808758812694723 10.79308753280864 0 0 0
1105 0 1 -1.1794 1.8710300620966742 11.876078091858632 10.319202838154645 0 0 0
280 0 1 -1.1794 4.227619209725571 11.505660887309752 11.955149170604594 0 0 -1
281 0 2 0.5897 3.6319995881958644 11.01991816790499 12.503975596539307 0 0 -1
1528 0 1 -1.1794 12.088885963304808 9.211685610032474 10.216071595676873 0 1 0
90 0 2 0.5897 9.020437545337012 8.724460425884958 8.445115529182841 0 1 0
1850 0 2 0.5897 6.908825619225663 8.074687349879762 11.03644973382423 0 -1 0
88 0 1 -1.1794 9.528536008414902 8.22484946725572 9.08017301149464 0 1 0
317 0 2 0.5897 8.620893971240395 10.726011411897797 9.081882851600836 0 1 0
316 0 1 -1.1794 9.017622169833649 11.369417861687852 9.720133846652173 0 1 0
318 0 2 0.5897 9.284661775308392 10.874699228625566 10.486953207221827 0 1 0
1530 0 2 0.5897 11.29078073498233 9.399667394099191 9.729258925999018 0 1 0
859 0 1 -1.1794 10.13181499177133 10.540462975077165 12.19642389283745 0 2 0
1149 0 2 0.5897 4.437401431390391 13.76624244384024 9.237876904356776 0 0 0
1484 0 2 0.5897 1.0678377770004057 13.835600943380662 9.828013107367559 1 0 0
2039 0 2 0.5897 3.8142971553948066 15.181310087288377 11.195087629140133 0 2 0
2038 0 1 -1.1794 4.493907210911611 14.63219903535088 10.794770623705634 0 2 0
2040 0 2 0.5897 4.887179685595127 14.14776085610292 11.532759698793317 0 2 0
1483 0 1 -1.1794 1.0152612580613127 14.795380761734439 9.71374461797588 1 0 0
1362 0 2 0.5897 6.466596893769442 12.317388512887815 11.304190999158138 0 0 0
2093 0 2 0.5897 5.738321522259375 15.354850976498689 9.437022175351657 0 -1 1
2092 0 1 -1.1794 6.083039429831964 16.00223334312039 8.763412671830329 0 -1 1
1485 0 2 0.5897 1.330687712423327 15.170792276237679 10.574252748057042 1 0 0
1361 0 2 0.5897 7.632727500710662 12.194794706582572 10.323451639726722 0 0 0
335 0 2 0.5897 8.574322892152566 14.689131155820112 8.781178796096782 0 0 1
1299 0 2 0.5897 10.331842603459048 12.548445106676947 9.104504037110411 0 0 1
74 0 2 0.5897 11.946462970066348 13.465045060861272 11.731264778549066 0 0 0
1297 0 1 -1.1794 11.050990499296052 12.780627746492629 8.541559126438525 0 0 1
334 0 1 -1.1794 8.529903732543048 14.969989147252917 9.665264497435702 0 0 1
336 0 2 0.5897 7.924093307604719 14.329386252168307 10.093583291330496 0 0 1
590 0 2 0.5897 10.476394702418881 15.511870212730651 9.986220306953982 0 0 2
1360 0 1 -1.1794 6.990980734077838 12.809264383895364 10.655670692016484 0 0 0
1298 0 2 0.5897 11.682777622753642 13.172200461949043 9.157140004325344 0 0 1
591 0 2 0.5897 11.636975272699287 15.955092111090353 9.125620754184585 0 0 2
2159 0 2 0.5897 8.258538980119184 15.915424188228284 12.15909413110613 0 0 0
73 0 1 -1.1794 11.189179074829942 13.300577213309671 12.254818508130802 0 0 0
2052 0 2 0.5897 8.070668687363213 13.739138418798666 12.056940870968036 0 0 0
847 0 1 -1.1794 1.3991130423081013 18.10275945281022 8.391317141522572 0 -1 0
2096 0 2 0.5897 5.983451472763489 19.107361775646066 9.40443897102064 0 0 2
1074 0 2 0.5897 2.4380239607378797 19.277679270977462 11.097297863860861 0 0 0
1027 0 1 -1.1794 2.6526103225205633 16.11702178686556 12.225432901301053 0 0 0
1029 0 2 0.5897 1.6971893990118312 16.182305500428686 12.383503918480757 1 0 0
1028 0 2 0.5897 2.9408879867270743 17.004925634654203 11.975264767582715 0 0 0
848 0 2 0.5897 2.0467842953065087 18.085717873146965 9.100108635869649 0 -1 0
1073 0 2 0.5897 3.7017570657110554 18.71950566070346 10.36607331566249 0 0 0
1072 0 1 -1.1794 2.8721637967481417 18.44911506458011 10.780935251823998 0 0 0
294 0 2 0.5897 5.398205129223173 18.067806021377184 11.645196732022026 0 0 -1
2095 0 1 -1.1794 5.382134951899967 18.495522843228404 9.847180355483676 0 0 2
2097 0 2 0.5897 5.66793601749148 17.572207635612695 9.575704094324724 0 0 2
293 0 2 0.5897 6.419803577375292 17.291113209265905 12.461193930000839 0 0 0
252 0 2 0.5897 8.630599134208243 17.517900665942513 8.796784831773868 1 0 0
589 0 1 -1.1794 11.228008559416592 16.04203105510835 10.011338147871747 0 0 2
2094 0 2 0.5897 7.021399608986409 16.04726721854384 8.906723794310338 0 -1 1
2158 0 1 -1.1794 7.963925089093843 16.814839863088082 11.985982027119315 0 0 0
2160 0 2 0.5897 8.288007643024738 17.030899101973855 11.025132420226525 0 0 0
251 0 2 0.5897 8.70921383829221 18.991436860560484 9.270692763076461 1 0 0
250 0 1 -1.1794 8.502663528188652 18.122804798369607 9.566841332771228 1 0 0
1108 0 1 -1.1794 11.738452719111445 18.9384407729749 10.454875925301623 0 0 -1
1109 0 2 0.5897 11.396584885849052 18.013883420083104 10.512959994218921 0 0 -1
1110 0 2 0.5897 11.012936831337157 19.485793194148055 10.07660520937771 0 0 -1
876 0 2 0.5897 4.938771553408072 1.4005051498273027 12.595343199241334 0 2 0
2109 0 2 0.5897 3.554546918555347 1.5655903066511456 14.280865109562859 0 0 -1
2108 0 2 0.5897 2.2425771681244075 1.091154903345452 14.855631712899767 0 0 -1
2107 0 1 -1.1794 2.788722857564066 1.027346904732421 14.09144870559628 0 0 -1
581 0 2 0.5897 5.849735267230437 3.005550592078427 15.07842456418047 0 0 -1
580 0 1 -1.1794 5.100449262321765 2.3980731623754834 15.29818865012813 0 0 -1
582 0 2 0.5897 5.4844701018260515 1.7412970832364487 15.848942832130593 0 0 -1
322 0 1 -1.1794 6.538867460097584 0.12910909407127863 13.418675695006913 0 0 -1
323 0 2 0.5897 6.36791852814173 0.3058071969456857 14.365209811858966 0 0 -1
811 0 1 -1.1794 1.5622931842088539 1.3525275615250298 16.508434081158846 0 0 0
2121 0 2 0.5897 4.320698624660837 3.6066849582262512 12.723569970246848 0 1 0
18 0 2 0.5897 9.703354186582187 0.6250621531044092 12.53328073619923 0 1 -1
2260 0 1 -1.1794 6.6409511823948195 0.3966939834386429 16.35009521826249 1 1 0
17 0 2 0.5897 8.199642614110509 0.691358673154456 12.92873423325888 0 1 -1
56 0 2 0.5897 9.711078853796078 2.730218451058902 12.805146205247873 0 1 0
866 0 2 0.5897 9.531036044425832 1.6445595600137621 15.810478297443495 0 1 0
865 0 1 -1.1794 8.87493750216797 2.1098741876548757 16.378521665006122 0 1 0
867 0 2 0.5897 8.427045356206492 2.6848787309035225 15.694668102217731 0 1 0
1799 0 2 0.5897 11.178159305896958 0.8094815141106131 14.16529526398083 0 0 -1
1798 0 1 -1.1794 10.974554217917783 0.717304630473794 15.100993244512306 0 0 -1
2262 0 2 0.5897 7.390774552513527 0.990683361136565 16.674138358049415 1 1 0
55 0 1 -1.1794 9.783990932603453 3.686824171831481 13.0038116938672 0 1 0
532 0 1 -1.1794 7.293079214831282 3.966496024317807 14.92291455134485 0 1 1
380 0 2 0.5897 1.2658727821054914 4.3832853553503766 15.338440375204584 0 1 0
2119 0 1 -1.1794 3.8496825061857547 4.456998103275926 12.724942664002334 0 1 0
2120 0 2 0.5897 4.023237747647578 4.898108157383699 13.568099974996985 0 1 0
981 0 2 0.5897 1.5778651786714093 6.036446769264335 13.087162939033895 1 0 0
1864 0 1 -1.1794 4.102723360358347 5.71154589452841 15.248545562973336 0 0 0
1865 0 2 0.5897 4.908487103211466 6.0550178277813576 15.64620467862431 0 0 0
980 0 2 0.5897 2.6983437169166313 6.440847640461326 14.164534495201597 1 0 0
979 0 1 -1.1794 1.8611920435778868 6.706163518646641 13.765801764762228 1 0 0
1866 0 2 0.5897 3.6220637288556525 5.271774814829858 15.956422899532908 0 0 0
379 0 1 -1.1794 1.7194274000902623 4.111146729408407 16.129292538858657 0 1 0
93 0 2 0.5897 6.8788504866922295 7.877332129972496 13.674440605091258 0 1 0
1531 0 1 -1.1794 7.091693621739363 6.051645179476932 16.372454418735913 0 0 0