LAMMPS data file via write_data, version 23 Jun 2022, timestep = 7571000

2268 atoms
2 atom types

0.6942974835089863 46.75640151649455 xlo xhi
0 20.047001 ylo yhi
0 20.857 zlo zhi

Masses

1 1.008
2 15.999

Atoms # full

265 0 1 -1.1794 2.1315559982628116 0.9994570608274911 0.5845628343123953 0 1 0
1880 0 2 0.5897 2.2129057162934895 3.510195022901097 2.5895453855432247 0 0 0
1143 0 2 0.5897 4.171005798296532 1.669350079777523 2.4436702681631393 0 1 0
1141 0 1 -1.1794 4.670755176503201 0.8783451940276366 2.5576343836011333 0 1 0
1142 0 2 0.5897 4.313060347662731 0.19399460635445193 2.003918738758555 0 1 0
1314 0 2 0.5897 0.9003347746339746 2.0284542203541855 3.3686505641552227 0 1 1
267 0 2 0.5897 2.6658554305746467 1.8194751758046026 0.4190801515116701 0 1 0
1296 0 2 0.5897 5.364313088324938 3.8405758831677823 0.2959669441746687 0 0 0
1879 0 1 -1.1794 3.1760727808443634 3.6751288725676727 2.732751530268387 0 0 0
1647 0 2 0.5897 1.4283188420574615 0.27162999576503544 2.3272948997663114 0 0 -1
266 0 2 0.5897 2.7322928975122602 0.2894972211311872 0.4148719050206695 0 1 0
2112 0 2 0.5897 5.863979359145318 0.19117944060268757 4.080725123694582 0 1 1
1645 0 1 -1.1794 1.31995057746183 0.019526684251393235 3.257115578116975 0 0 -1
1295 0 2 0.5897 6.7880671569853055 3.653760526027573 0.6927462199703306 0 0 0
795 0 2 0.5897 6.644114593257812 2.7338312759204495 3.926477191079698 0 1 1
793 0 1 -1.1794 7.485153659973782 2.431904447639653 3.616389802850804 0 1 1
2103 0 2 0.5897 10.676275457694263 1.7042053276386544 3.1201867728637254 0 0 0
2031 0 2 0.5897 7.990297672632439 2.5186705233656292 2.0883648061709312 0 1 1
2030 0 2 0.5897 8.940930682372567 3.154309387472919 0.8343257395251733 0 1 1
1339 0 1 -1.1794 11.201367990953713 3.054043187284289 1.4142872483125755 0 0 1
1340 0 2 0.5897 10.760471384448849 3.8478688454422123 1.6940045712699272 0 0 1
2029 0 1 -1.1794 8.16089206903029 2.636736156240892 1.1035065347295059 0 1 1
1574 0 2 0.5897 10.517837436725424 1.1059766324475373 0.7611302221881185 0 0 -1
1341 0 2 0.5897 11.55289295546168 3.2345048624227846 0.5252953458586745 0 0 1
1575 0 2 0.5897 9.294034034191593 0.2938084104293717 1.3440582320550616 0 0 -1
1573 0 1 -1.1794 10.199255983756998 0.20745399685429758 0.8993992738490267 0 0 -1
2101 0 1 -1.1794 10.606473121879432 1.6242999603778716 4.0754076881683865 0 0 0
2102 0 2 0.5897 10.726862102000007 0.6864734711657884 4.1632201797814 0 0 0
729 0 2 0.5897 7.972090709554084 0.5196743370852398 3.3282723184860905 1 1 0
794 0 2 0.5897 8.194966261745165 2.8353817065599993 4.047325398313035 0 1 1
1294 0 1 -1.1794 6.0854888078146185 4.396181746906327 0.5647869968319026 0 0 0
1881 0 2 0.5897 3.3870840588686506 4.1406866903856745 1.9325453598575633 0 0 0
2080 0 1 -1.1794 5.01494510729627 7.36557317485063 1.1025001907350167 0 0 1
2081 0 2 0.5897 4.908922201654227 7.354413590450725 2.0663813795145156 0 0 1
2082 0 2 0.5897 5.961361431129185 7.375284964227501 0.8933078149799618 0 0 1
1008 0 2 0.5897 1.355138573409363 5.647994285059515 1.0762099803920198 1 0 0
66 0 2 0.5897 3.7261405180492684 6.230716290259826 0.2850360753484877 0 0 0
1007 0 2 0.5897 0.7472378251097586 6.571472354444543 2.038148443063139 1 0 0
1775 0 2 0.5897 6.429168660384033 5.298658577789974 2.137295042836325 0 0 0
1567 0 1 -1.1794 4.566478540810541 7.387611046903851 3.9669917167891975 0 -1 0
1776 0 2 0.5897 6.439253298648308 5.2285322184465395 3.609671069567274 0 1 0
2015 0 2 0.5897 1.944142680590902 5.335933648879039 4.093607169202987 1 0 1
1568 0 2 0.5897 3.743011838560808 6.834317912333147 4.0910918991159 0 -1 0
1774 0 1 -1.1794 6.893285835565126 5.686305244285209 2.9145189415922776 0 1 0
1850 0 2 0.5897 8.882195528463598 4.930550564513372 2.8802508276296614 0 -1 0
1849 0 1 -1.1794 9.651317909764458 4.400723000493785 3.1599686399616562 0 -1 0
1520 0 2 0.5897 6.8967557521553005 7.685979146538789 2.9316193544363127 0 0 1
754 0 1 -1.1794 7.6862218360756005 7.329581303721338 0.188682805344498 1 0 0
756 0 2 0.5897 8.097913932311798 6.423879778849537 0.28615535325116614 1 0 1
635 0 2 0.5897 11.608166544146044 6.7871382349240035 0.9950740584274596 0 1 1
1851 0 2 0.5897 10.202340290250463 4.974127594736429 3.7027761392882526 0 -1 0
858 0 2 0.5897 10.677207868239899 7.812500196531569 2.914303743582497 0 1 0
1839 0 2 0.5897 8.829217675958189 7.956591716928965 3.7223715227620784 0 1 1
634 0 1 -1.1794 12.015118376630632 6.09693385747221 0.4385368742029723 0 1 0
392 0 2 0.5897 10.266357564008624 5.348852846006412 0.05720063726259187 0 2 1
1589 0 2 0.5897 3.666462349941675 8.657151907498491 0.6459571280779765 0 -1 1
224 0 2 0.5897 1.8971693780051972 8.63251981796907 1.8854206249194567 1 0 0
804 0 2 0.5897 3.9808847838328267 10.858764585921419 3.623447780575086 0 0 1
802 0 1 -1.1794 4.588478444152205 10.277596437865972 3.13720399399772 0 0 1
803 0 2 0.5897 4.098510146393487 9.954064535479615 2.359408854267153 0 0 1
854 0 2 0.5897 5.905243695377301 11.347912318949392 2.633695420450597 0 -1 0
1588 0 1 -1.1794 3.1812073883057614 9.51939059292351 0.932152009560254 0 -1 1
1590 0 2 0.5897 2.7475357991692166 9.890842068162527 0.19515583592756372 0 -1 2
778 0 1 -1.1794 2.369580339957212 11.6935939932994 3.978213628653526 0 0 1
779 0 2 0.5897 1.6695788979468218 11.908798775258118 3.4078572618134846 0 0 1
882 0 2 0.5897 1.792854984855381 11.91668547306143 0.7498443909080381 0 -1 -1
1569 0 2 0.5897 4.180620256965982 8.312696640161489 3.8661884019331465 0 -1 0
223 0 1 -1.1794 1.11964141146044 8.397759851844329 2.4249900356789285 1 0 0
853 0 1 -1.1794 6.580554844923511 12.00597374572112 2.330164271069754 0 -1 0
1521 0 2 0.5897 6.8067149777427 9.150541960336755 3.4909848293811776 0 -1 1
1519 0 1 -1.1794 7.421087925901258 8.502897794613792 3.0823760479570415 0 0 1
856 0 1 -1.1794 11.331027734865197 8.04771276349261 2.1702824444643456 0 1 0
1106 0 2 0.5897 8.01254592772564 9.503386596446193 1.19465365321732 0 1 1
1107 0 2 0.5897 8.970138822545882 10.512679025612583 0.5455747316423227 0 1 1
1105 0 1 -1.1794 8.003324935576355 10.324853679499693 0.684160690652029 0 1 1
855 0 2 0.5897 7.108244321763553 11.480360116469521 1.7261011638105108 0 -1 0
1766 0 2 0.5897 11.227102206205364 11.451180720319444 0.6524999527929597 0 -1 0
1765 0 1 -1.1794 10.753822498764073 10.691936184668835 0.2552067659965884 0 -1 0
1767 0 2 0.5897 11.02596997949255 9.857305195653513 0.724602547691252 0 -1 0
857 0 2 0.5897 12.065172401861572 8.473485587241102 2.6467786488370177 0 1 0
1485 0 2 0.5897 5.974690813021932 14.582783001155564 2.481005270705981 1 0 0
1350 0 2 0.5897 4.004450127344935 13.59047456960743 4.067227607115511 0 0 0
2084 0 2 0.5897 1.8725135017951082 15.18423621848715 3.744599770588879 0 1 0
2083 0 1 -1.1794 1.612407461461573 15.232266291586797 2.7721572520699116 0 1 0
1348 0 1 -1.1794 4.849297032578456 14.001253811664533 3.993441664625911 0 0 0
1806 0 2 0.5897 5.500291849616406 12.486958345827222 0.8147933421590771 0 0 1
1483 0 1 -1.1794 6.391162630672424 15.198016410069988 1.8595378035182901 1 0 0
2085 0 2 0.5897 2.369858451768053 15.296836954841028 2.1972044071172276 0 1 0
334 0 1 -1.1794 3.6675042267911664 15.876938143813328 1.21928277459786 0 0 1
336 0 2 0.5897 4.557213297022511 15.43976191204928 1.1882892230812627 0 0 1
1029 0 2 0.5897 0.8432225068948378 13.727378483066458 2.306333277908771 1 0 0
1027 0 1 -1.1794 0.7947117101359473 12.789660896978342 2.0469393669560434 0 0 0
1804 0 1 -1.1794 5.044354153319883 12.867405314330444 0.06778755194473263 0 0 1
881 0 2 0.5897 3.2196753282872 12.16446074746609 0.23500500265487226 0 -1 -1
335 0 2 0.5897 3.263941038531264 15.699894584758667 0.32741040501044 0 0 1
1484 0 2 0.5897 6.913415388029368 14.662909461854039 1.2335628938026515 1 0 0
842 0 2 0.5897 11.91071631006099 14.775513379553244 1.8151392571903395 0 0 -1
513 0 2 0.5897 8.44788701887774 13.068645926968049 2.564228384511721 0 0 1
511 0 1 -1.1794 9.250467584367152 13.617904546057423 2.5872891786864045 0 0 1
512 0 2 0.5897 9.25420745972604 13.997432109396 1.6923663870000716 0 0 1
2108 0 2 0.5897 10.43958059940892 13.273701591400467 3.877055577267736 0 -1 0
42 0 2 0.5897 8.828123820753335 15.750675029711987 3.3906762510696784 0 -1 1
841 0 1 -1.1794 11.597899717006012 15.733981448912697 1.697296952310825 0 0 -1
843 0 2 0.5897 11.835057967394308 15.956964351077975 0.7476769890954577 0 0 -1
2038 0 1 -1.1794 8.064737992057818 14.472814540711784 0.17951316630975514 0 2 1
1646 0 2 0.5897 0.9963302431263736 19.17851714726791 3.185522621818301 0 -1 -1
783 0 2 0.5897 5.545197131927087 17.94242258440609 2.2465977166613325 0 -1 1
1826 0 2 0.5897 3.3680144628204145 18.989184081984444 4.090479354230833 0 0 -1
781 0 1 -1.1794 6.4126468980829445 17.854564024071724 2.616976938174094 0 -1 1
272 0 2 0.5897 3.5510092427361575 17.635385460448965 1.5104129778349134 0 0 2
271 0 1 -1.1794 3.7457810068308195 18.547748449978084 1.2060974084236276 0 0 2
273 0 2 0.5897 4.308883947762533 18.238993805737483 0.3935271396163777 0 0 2
782 0 2 0.5897 6.730607216361951 16.98406325992866 2.306251892820046 0 -1 1
41 0 2 0.5897 10.045678318068944 16.514005266334678 2.866981736122978 0 -1 1
40 0 1 -1.1794 9.122917171378205 16.57661429218236 3.006287830005858 0 -1 1
122 0 2 0.5897 8.71916357794221 17.013228474845516 1.3000561718678652 0 0 0
728 0 2 0.5897 7.501319452818803 19.225709097489098 2.790925056101699 1 0 0
727 0 1 -1.1794 8.27435887057251 19.84068377292294 2.75800078808655 1 0 0
799 0 1 -1.1794 10.988505051084854 18.80882216256339 3.4477774624034074 0 -1 0
800 0 2 0.5897 10.068436761476223 18.81264619077613 3.178563078162465 0 -1 0
572 0 2 0.5897 12.154305172250277 18.425565565809347 1.858995883239177 0 0 -1
1862 0 2 0.5897 6.963580562549818 18.032807689940704 0.01387806017587323 0 1 1
121 0 1 -1.1794 8.564291346749512 17.027867127874178 0.2927136108309747 0 0 0
2050 0 1 -1.1794 5.235906532952892 3.6154678408424705 4.648633177772565 0 0 0
2051 0 2 0.5897 4.404014437882339 3.5372483636893337 4.1815302558552 0 0 0
2052 0 2 0.5897 5.248047661826685 2.8986034799103515 5.318478163954687 0 0 0
2138 0 2 0.5897 6.223126354068782 1.758376125082325 7.2984382929804905 0 2 0
1333 0 1 -1.1794 3.195986643326688 1.073478170030583 5.5390424321905725 0 0 -1
2137 0 1 -1.1794 6.429285691785791 2.1297234701393095 6.424233993460314 0 2 0
1334 0 2 0.5897 2.5612644337844204 0.7772893818666986 4.818807319641309 0 0 -1
1335 0 2 0.5897 2.8922519680841208 1.949736146827128 5.802245794270209 0 0 -1
2091 0 2 0.5897 1.903894434734686 3.42232980804722 7.176813351137597 0 1 0
2089 0 1 -1.1794 2.6775996789934897 3.6370142933788885 6.661603981860238 0 1 0
630 0 2 0.5897 4.122717980027129 0.008486629151545452 6.8267324009624835 0 1 0
2111 0 2 0.5897 6.217946828799151 0.46106146013210486 5.5461263715430515 0 1 1
385 0 1 -1.1794 12.011441361822659 3.93384682644259 4.7523094459134665 0 1 2
2139 0 2 0.5897 7.283372356864324 2.5463071945158933 6.367258903106463 0 2 0
1045 0 1 -1.1794 8.975544803593243 3.273348093724249 6.077419071649668 0 0 0
1047 0 2 0.5897 9.33382025834337 2.4751133091201454 5.638164673651194 0 0 0
863 0 2 0.5897 10.565896439462692 0.3645515678801922 7.7994181088901335 0 0 0
387 0 2 0.5897 11.47056166862869 3.098802780016085 4.70590996106474 0 1 2
1036 0 1 -1.1794 9.373531987749795 0.5092118159057973 6.5914425847302045 0 0 0
1037 0 2 0.5897 8.543773620559598 0.15267486943797792 6.976747638556608 0 0 0
638 0 2 0.5897 8.890060628502791 2.857061729025389 8.049955090468872 0 0 0
2016 0 2 0.5897 1.2460932086924208 6.387814217805603 4.9435165893222655 1 0 1
320 0 2 0.5897 4.712087468205252 4.893481041306547 6.161370219744562 0 0 1
2090 0 2 0.5897 2.3971758910509773 4.341696909663228 6.061396411571139 0 1 0
2014 0 1 -1.1794 2.050871812268226 5.869541139707504 4.908173275024686 1 0 1
319 0 1 -1.1794 4.818116399818226 5.724083409020166 6.694230543235584 0 0 1
2119 0 1 -1.1794 3.2453727955574894 7.792973331292348 7.434831687853027 0 1 0
2121 0 2 0.5897 3.643676867149701 6.915951879051723 7.190351736009095 0 1 0
357 0 2 0.5897 6.188802699542949 5.480804100152204 7.8678737789766195 0 0 1
321 0 2 0.5897 5.206424449050616 6.387010757029771 6.055946335134195 0 0 1
260 0 2 0.5897 3.5616424484763254 4.092731473536481 8.26337572831446 0 0 0
1046 0 2 0.5897 9.542157426777507 4.04587766885617 6.065106176878831 0 0 0
784 0 1 -1.1794 7.388111300943408 7.6353579888184635 6.6537570705879885 0 0 1
785 0 2 0.5897 7.68606046698094 8.009762379689894 7.471545375370872 0 0 1
1838 0 2 0.5897 9.844024282245915 7.097885117948712 4.649677924730942 0 1 1
370 0 1 -1.1794 9.970025892577985 5.895031479497687 6.101652337359733 0 0 1
371 0 2 0.5897 9.290766069063558 6.417186125085367 6.5572232012567016 0 0 1
372 0 2 0.5897 10.842658627435151 6.254638347757963 6.2140523586769865 0 0 1
1837 0 1 -1.1794 9.716508421536169 7.949818787958823 4.214335448644381 0 1 1
386 0 2 0.5897 12.19231613271446 4.068233280024378 5.698569573731647 0 1 2
2120 0 2 0.5897 3.0782310253847713 8.1423193258622 6.575316456435929 0 1 0
771 0 2 0.5897 2.2020375423952334 9.81760916220716 4.423737466000913 0 0 1
770 0 2 0.5897 1.3448708480186138 8.683027506873469 4.4281305934446795 0 0 1
769 0 1 -1.1794 2.0623879522603517 9.03360742988204 4.965873418663218 0 0 1
348 0 2 0.5897 3.7000045416112286 10.941679661223029 6.972051619004821 0 2 0
346 0 1 -1.1794 4.6827387094472055 10.663128023981585 6.9356883642785006 0 2 1
347 0 2 0.5897 4.7116270448354935 9.870072522371323 7.515923160459914 0 2 0
1542 0 2 0.5897 5.829932626890421 10.334473430873443 5.431839089560522 0 0 1
1269 0 2 0.5897 1.6557473070254205 11.586046836843611 7.606827284965902 0 1 0
1268 0 2 0.5897 2.0075471583542908 10.321250775877235 6.781272043821145 0 1 0
1267 0 1 -1.1794 1.9919909212356088 11.259563490234969 6.777777622436535 0 1 0
780 0 2 0.5897 2.082579816290739 12.01270889890163 4.841617724374967 0 0 1
252 0 2 0.5897 1.8267125837564298 8.130461381312239 8.273263042109951 1 0 0
1379 0 2 0.5897 12.115535483888126 11.111303945840246 6.789216950611189 0 0 1
786 0 2 0.5897 7.491984882814691 8.363865153272497 5.998839819585802 0 0 1
503 0 2 0.5897 11.087868213474042 9.006545025257061 6.632358681172745 1 0 -1
1540 0 1 -1.1794 6.785568665713528 10.37598357562142 5.134578054645627 0 0 1
1541 0 2 0.5897 6.90723640403318 11.279584087311536 4.875874918909501 0 0 1
813 0 2 0.5897 10.780269442401448 11.055324753769847 4.576326435205013 0 -1 0
811 0 1 -1.1794 11.140302943230246 10.183520229747485 4.866023303878599 0 -1 0
812 0 2 0.5897 10.45142057457422 9.571786390360032 4.697554350974763 1 -1 0
504 0 2 0.5897 9.873831853274082 9.598057082580848 7.243949146062054 1 0 -1
1265 0 2 0.5897 9.017871405965344 11.414068608690913 7.481071802850305 0 -1 1
1264 0 1 -1.1794 8.497343024003122 10.596344800148723 7.296689031816767 0 -1 1
1266 0 2 0.5897 7.854698603005523 10.796332624556465 6.599625784509739 0 -1 1
502 0 1 -1.1794 10.660026819156114 9.145747737604783 7.511675261077553 1 0 -1
1349 0 2 0.5897 5.439982289377266 13.43932505297604 4.5453177726071035 0 0 0
1643 0 2 0.5897 5.116267265794355 12.19465487447211 8.113292540257792 0 0 0
55 0 1 -1.1794 1.7474144767666648 14.990221168104217 5.651472346194118 0 0 1
56 0 2 0.5897 2.3704292596736374 14.836770814447949 6.3265177149166485 0 0 1
1644 0 2 0.5897 4.751568998868221 13.645863816632472 8.101844253204842 0 0 0
283 0 1 -1.1794 3.089738321867569 14.521500222722754 7.803932683489484 0 0 0
1026 0 2 0.5897 5.189838895669595 15.715386004974322 4.837479167382244 0 0 1
284 0 2 0.5897 3.1539744407753405 15.441954756166835 8.161057332214698 0 0 0
1283 0 2 0.5897 6.213658444605092 12.915082572226208 6.686786973226081 0 -1 0
57 0 2 0.5897 1.3104976745195516 15.880258301649127 5.812555949988673 0 0 1
2109 0 2 0.5897 11.769022309003045 13.1358483358139 4.649286653206071 0 -1 0
2107 0 1 -1.1794 10.812748124373238 13.1399708354959 4.7786233845877675 0 -1 0
1282 0 1 -1.1794 6.688931029865853 12.937940057399897 5.885354766520184 0 -1 0
1549 0 1 -1.1794 10.294414746604144 12.589909493589401 7.433038761953449 0 1 1
376 0 1 -1.1794 10.99637372928182 15.576931108162306 6.647113695879585 0 0 0
1284 0 2 0.5897 7.313579759983991 13.621312039139545 6.14630810035592 0 -1 0
1551 0 2 0.5897 10.280231945908572 12.91177148759244 6.47630806332376 0 1 0
1550 0 2 0.5897 9.884189074477513 13.333219450128112 7.864654922530563 0 1 1
31 0 1 -1.1794 8.161588717027309 15.245097966454066 6.7573269055472895 0 0 1
377 0 2 0.5897 10.095222451920575 15.408241768466576 6.418416347007415 0 0 0
33 0 2 0.5897 7.906294816942183 15.353862154834589 7.66837265489929 0 0 2
32 0 2 0.5897 7.595963870355245 15.84696586760859 6.285702195947329 0 0 1
378 0 2 0.5897 11.433332955272682 15.526670229903939 5.780018077490892 0 0 0
888 0 2 0.5897 12.181318826938698 14.65882829999134 7.338587367628069 0 0 0
1896 0 2 0.5897 5.916461899984111 16.668430198741362 7.247340447164669 0 0 0
1894 0 1 -1.1794 6.4056466840032105 16.768133282149638 8.06312954188812 0 0 0
1825 0 1 -1.1794 3.321233486973336 18.114889553901644 4.427708512439287 0 0 -1
1827 0 2 0.5897 4.055381907713251 17.978552038103334 5.012434580688488 0 0 -1
1025 0 2 0.5897 6.0626086505893175 17.003530187459052 4.612250660442734 0 0 1
1024 0 1 -1.1794 5.505054200094652 16.54491801320277 5.281095791983766 0 0 1
628 0 1 -1.1794 4.4735693727978045 19.351909303349085 7.418088001011539 0 0 0
2110 0 1 -1.1794 6.227377188277487 19.766994477416162 4.8784739216392135 0 0 1
629 0 2 0.5897 5.466065674153413 19.351500110449 7.348387799980414 0 0 0
554 0 2 0.5897 1.8879388676929039 17.88101451140558 5.25934466117019 0 -1 1
553 0 1 -1.1794 1.003438110126575 17.83279860722403 5.727648907889277 0 -1 1
1652 0 2 0.5897 0.860859297572887 19.107202269458167 7.271924150870739 0 0 0
1905 0 2 0.5897 3.401037982971154 18.125365952062623 8.151805934914295 0 0 0
816 0 2 0.5897 8.540674432802913 17.619858677864592 4.652589538101092 0 0 0
801 0 2 0.5897 11.123107874327506 18.237365229590715 4.217218665631403 0 0 0
1038 0 2 0.5897 9.50731583165045 19.82296698723837 5.996744488562732 0 -1 0
1562 0 2 0.5897 11.250102513819707 18.144519077806745 6.867571049673405 0 1 0
814 0 1 -1.1794 8.147739563567935 18.030212781756536 5.461970217105306 0 0 0
815 0 2 0.5897 7.650105225334028 18.78263926019147 5.144143397776771 0 0 0
302 0 2 0.5897 7.376157449563865 18.534772928280262 7.797425807826891 0 1 2
509 0 2 0.5897 9.7309226532449 17.047093091503708 7.818458670809687 0 -1 1
301 0 1 -1.1794 7.151006379659278 19.46717773718548 7.860473203394237 0 1 2
1561 0 1 -1.1794 11.660476737363844 18.393030701122402 6.042634455838757 0 1 0
522 0 2 0.5897 4.637452169982669 2.1939055403743644 9.126351941448462 0 1 0
520 0 1 -1.1794 5.273967565922271 1.4526339865717848 9.044802532636197 0 1 0
108 0 2 0.5897 1.4250721680408183 0.8482182623639943 10.516307294192996 0 0 0
2134 0 1 -1.1794 3.0967562495344816 0.8980958705156925 11.350537454327368 0 0 -1
2135 0 2 0.5897 3.9333993706391865 0.6795530622338936 10.920764583727214 0 0 -1
2136 0 2 0.5897 2.9277081056121714 1.8839198789160116 11.33695816678605 0 0 -1
2065 0 1 -1.1794 2.3441836515908747 3.3640247221622466 11.194200189931546 0 1 0
2067 0 2 0.5897 2.4820610425595326 3.7813435754961193 12.030943740447391 0 1 0
2066 0 2 0.5897 2.9071474722177455 3.8745191380104775 10.581239577756808 0 1 0
259 0 1 -1.1794 3.8296073857276043 3.9349507700303255 9.157871127196689 0 0 0
521 0 2 0.5897 4.8155036899735135 0.7412990865587941 8.592434696371852 0 1 0
292 0 1 -1.1794 0.8122345955633309 3.400646775171446 8.611057465588908 0 1 0
293 0 2 0.5897 0.9982713106432965 2.6423960098202848 9.141934583081891 0 1 0
1101 0 2 0.5897 7.13564086212523 0.9127090881885634 10.45346631324869 0 0 0
1388 0 2 0.5897 11.654981005072036 1.3959678325043845 9.837771131505725 0 1 0
862 0 1 -1.1794 11.080312795101161 0.3189196002318533 8.623344015543239 0 0 0
639 0 2 0.5897 8.057707632681485 2.165058500806181 9.18211628903316 0 0 0
637 0 1 -1.1794 8.242236739340013 3.0012946824166926 8.756724398542154 0 0 0
1856 0 2 0.5897 9.621104513048035 3.150872485270797 11.626458195254935 0 -1 1
1099 0 1 -1.1794 7.914728436259549 0.45911660215575834 10.148780779087694 0 0 0
1857 0 2 0.5897 9.299387078715975 3.4221901887007635 10.249571901483966 0 -1 1
1389 0 2 0.5897 12.04965169554352 2.334065836709874 11.106357085426165 0 1 0
12 0 2 0.5897 10.925513557040787 0.021497715056337796 11.29555680933406 0 1 1
1855 0 1 -1.1794 9.731422200489911 3.82954489948161 11.003416441536606 0 -1 1
1387 0 1 -1.1794 12.155595689238485 1.4679324395406714 10.694607594512581 0 1 0
1100 0 2 0.5897 8.525104439942943 0.21811413901832466 10.879437687266805 0 0 0
2032 0 1 -1.1794 1.0830741821335674 5.938574484999913 9.4549712237393 0 0 0
355 0 1 -1.1794 6.443492242325543 5.1365748646566125 8.740560866295908 0 0 1
2033 0 2 0.5897 1.254900982476833 5.030180891365401 9.481552309379769 0 0 0
261 0 2 0.5897 4.728456801752735 4.285852747176553 9.179932813547628 0 0 0
251 0 2 0.5897 0.8333383955480975 7.85991043178065 9.325552792789145 1 0 0
507 0 2 0.5897 2.889352729921011 6.5402600805847735 10.054004975722771 0 0 0
505 0 1 -1.1794 3.6189147637151557 6.716223879562002 10.701129917232299 0 0 0
506 0 2 0.5897 3.953171181428895 5.830965663063632 10.859879203599464 0 0 0
567 0 2 0.5897 6.205563535287219 6.710534126926387 12.463467385940044 0 -1 -2
77 0 2 0.5897 3.272420856905242 7.133520046190579 12.401290219757634 0 1 0
1087 0 1 -1.1794 5.026182640018092 4.913597271937627 11.997402078536933 0 -1 0
1089 0 2 0.5897 5.372481000489758 4.038085679673355 12.139115142387697 0 -1 0
2034 0 2 0.5897 0.759736662763486 6.125539497037816 10.362376058622154 0 0 0
356 0 2 0.5897 6.942365251153112 4.373674596601977 8.558544481470442 0 0 1
565 0 1 -1.1794 6.793167322919186 7.414947027252886 12.273391818738276 0 -1 -1
566 0 2 0.5897 7.150299436978546 7.215063743401863 11.350557920094577 0 -1 -1
1743 0 2 0.5897 7.3130556390874215 6.482800221411973 9.320220770635304 1 0 1
1741 0 1 -1.1794 7.83688720611024 7.230727460937424 9.616733896144499 1 0 1
774 0 2 0.5897 11.655334932957931 4.572659197118843 10.579584484820634 0 1 -1
1742 0 2 0.5897 8.78325254562988 6.943049280015671 9.44519106692616 1 0 1
309 0 2 0.5897 11.02276411003475 6.399812062963543 9.25960554003615 0 0 0
307 0 1 -1.1794 10.421154827840242 7.140987084570536 9.123206016061236 0 0 0
308 0 2 0.5897 10.700413312528639 7.686939948281435 8.379667952392104 0 0 0
1298 0 2 0.5897 9.456431948145381 5.209546925088422 12.240631570099378 0 0 2
1536 0 2 0.5897 9.369072065801694 7.843547516515492 12.275084524612137 0 -1 -1
772 0 1 -1.1794 12.15371731147248 5.080992214615381 9.933934573879219 0 1 -1
245 0 2 0.5897 4.686686754051592 8.290409690689591 10.028875302112269 1 0 0
244 0 1 -1.1794 4.883211849683582 9.25142128084089 9.837914596914212 1 0 0
141 0 2 0.5897 1.8865008420354794 9.739592969404862 9.785619548214088 0 1 -1
139 0 1 -1.1794 2.4136374394974696 10.47365786874301 10.155268294646008 0 1 -1
246 0 2 0.5897 5.822843239985472 9.359861329076555 9.929383240243085 1 1 0
140 0 2 0.5897 3.394726482032623 10.266657145220805 10.073314167888723 0 1 -1
1361 0 2 0.5897 2.558920066353563 10.143053705608791 12.444800177708313 0 0 -1
250 0 1 -1.1794 1.1651669433781093 8.6055385354325 8.783476687683203 1 0 0
92 0 2 0.5897 1.9179415057423086 11.998508029705652 9.626507085144844 0 1 0
1506 0 2 0.5897 10.590989035240458 10.573039146658337 10.45721483203704 1 0 1
1535 0 2 0.5897 9.84513516654712 8.195346625118773 10.894598973354764 0 -1 -1
1505 0 2 0.5897 11.354804524578824 10.084884781441716 9.177163533733047 1 0 1
1504 0 1 -1.1794 11.451658331885373 10.328625831767203 10.070996848277188 1 0 1
82 0 1 -1.1794 7.53561785062876 10.109490491193712 9.901609691671416 0 0 -1
83 0 2 0.5897 7.937968239928454 9.279881361609169 10.145873035238743 0 0 -1
84 0 2 0.5897 7.738732798086649 10.231405164346429 8.990973035424547 0 0 -1
1534 0 1 -1.1794 9.389433587085666 8.605681083767161 11.666936627924755 0 -1 -1
1302 0 2 0.5897 7.8165032206273315 11.817349346915437 10.575553712410837 0 1 0
575 0 2 0.5897 9.509203468329238 10.212259488341918 12.50008209654922 0 0 -1
285 0 2 0.5897 2.550954214968296 14.049879252586045 8.456199641754019 0 0 0
1642 0 1 -1.1794 5.451012094859514 13.044773145716716 8.382559139542856 0 0 0
2075 0 2 0.5897 4.856494760502367 12.207641928219964 11.997261817295463 0 0 -1
93 0 2 0.5897 1.1282296249241694 13.254056445788905 9.772283268067564 0 1 0
277 0 1 -1.1794 5.554948359100878 14.19846695334851 11.116320035828746 0 1 0
278 0 2 0.5897 5.551021775217666 13.953486698581811 10.180845385548674 0 1 0
20 0 2 0.5897 3.8708470379881716 14.548447188374658 12.21280363369751 0 -1 -1
279 0 2 0.5897 6.445750589525005 13.858521244445654 11.317681650408604 0 1 0
91 0 1 -1.1794 1.6036394192428416 12.764466271711317 9.096006023306282 0 1 0
1301 0 2 0.5897 8.716983960512856 12.511783996366274 11.624228935908002 0 1 0
750 0 2 0.5897 8.353186381876142 13.855147054211399 9.746584330002998 0 0 -1
749 0 2 0.5897 9.66111483714455 14.7848198970149 10.073160402447117 1 0 -1
748 0 1 -1.1794 8.951587707683952 14.57350462040693 9.395158560613824 1 0 -1
1300 0 1 -1.1794 8.014948315979144 12.673755558255603 10.99977044510946 0 1 0
339 0 2 0.5897 11.013458339038056 14.5070458089906 12.04358807008205 0 -1 0
337 0 1 -1.1794 11.072246853915043 14.62467636213911 11.038395381797185 0 -1 0
338 0 2 0.5897 11.656454656993601 13.90341171588631 10.717285777835603 0 -1 0
2159 0 2 0.5897 8.144392656355066 16.0167053644611 10.292538970504646 0 0 1
1895 0 2 0.5897 5.877828149008362 17.047781702201046 8.836013613418915 0 0 0
581 0 2 0.5897 2.0541436949707967 16.385142497898723 11.446877158106538 0 -1 -1
1903 0 1 -1.1794 3.1280774146512256 17.439889019483005 8.738658185462569 0 0 0
580 0 1 -1.1794 1.5495873575366788 17.115723247934984 11.133797326801988 0 -1 -1
1904 0 2 0.5897 2.2895010253941126 17.656073841054795 9.042554696309995 0 0 0
582 0 2 0.5897 1.8910815216428454 17.854317195948006 11.658802368881764 0 -1 -1
1233 0 2 0.5897 4.3349350499905235 17.690135942347197 10.01991702238568 1 0 0
1232 0 2 0.5897 5.129093125241737 17.430932115892844 11.310565761958761 1 0 0
1231 0 1 -1.1794 5.245097973370543 17.627641391393105 10.383229608833442 1 0 0
303 0 2 0.5897 7.199198326812432 19.728703438597094 8.815347326273617 0 1 2
864 0 2 0.5897 10.527844263299986 19.81930601736578 9.194957647980916 0 -1 0
2087 0 2 0.5897 11.406362222655384 17.269915727996377 9.82315258518135 0 0 0
510 0 2 0.5897 9.200557559453317 17.42374632088937 9.200161892458416 0 -1 1
508 0 1 -1.1794 9.92136608464335 17.612045097567588 8.586505420709917 0 -1 1
10 0 1 -1.1794 10.257342978542578 19.3867284917907 11.06706540690814 0 0 1
2158 0 1 -1.1794 8.161049041398682 16.946462503953438 10.540192169804733 0 0 1
2160 0 2 0.5897 7.268484766108457 17.259742541399792 10.433340780834857 0 0 1
11 0 2 0.5897 10.577478428886279 18.55904711986756 11.477458233024914 0 0 0
1560 0 2 0.5897 8.37504316380925 17.267525713006314 12.206183412655639 0 0 1
2088 0 2 0.5897 11.649719382779264 16.237197301225372 10.920782207950806 0 0 0
2086 0 1 -1.1794 11.943431134151568 17.090241459876054 10.592934767455016 0 0 0
1543 0 1 -1.1794 1.3535882583886951 0.5132367473650237 16.097964236297205 0 2 -1
1843 0 1 -1.1794 3.1418662583803973 2.1866493312172497 14.870781569670463 0 1 0
1842 0 2 0.5897 2.9183077024992214 3.5369396799081714 14.104700126692117 0 0 0
1865 0 2 0.5897 4.47082277929055 2.0313882791494624 12.921908089717139 0 0 0
1864 0 1 -1.1794 5.394020398607436 2.3409734112264013 12.785796943278775 0 0 0
1866 0 2 0.5897 5.742797114618579 2.5601904423014163 13.694455260718636 0 0 0
1368 0 2 0.5897 5.679259877812893 3.1402999109695173 15.84703464406815 0 1 0
1845 0 2 0.5897 2.4463621286834 1.5501712876758316 15.160922920688353 0 1 0
1844 0 2 0.5897 3.9444126804456223 1.6941657237169838 15.04111696134972 0 1 0
1010 0 2 0.5897 5.982342066781551 0.21129078214373434 15.489105279449735 0 0 0
1116 0 2 0.5897 6.329891584586025 0.9331944975035031 12.837736747596553 0 1 -1
1366 0 1 -1.1794 6.362531863611753 3.0776848729355377 15.182010833479472 0 1 0
1009 0 1 -1.1794 5.067158221905171 0.11595535508825316 15.743566788741877 0 0 0
568 0 1 -1.1794 12.111066522601943 0.5291529650810249 14.01702577661167 0 0 1
570 0 2 0.5897 11.700580853491656 1.1151644534120877 13.407694649621718 0 0 1
1870 0 1 -1.1794 9.359350012717323 1.7830478999755213 12.896224060566025 0 1 1
1872 0 2 0.5897 8.574300141432051 1.2093230200113763 12.976956470536637 0 1 1
1871 0 2 0.5897 9.46729781288145 2.3241538026182536 13.680372309137285 0 1 1
1835 0 2 0.5897 10.542032195530819 2.5443301779199294 15.669733946001076 0 -1 0
1834 0 1 -1.1794 10.500654065338287 3.094991436517903 14.901025044941862 0 -1 0
1564 0 1 -1.1794 7.6535860653365555 0.5315581685582406 15.747494629761066 0 1 0
1367 0 2 0.5897 6.84612797862941 2.2882822099880693 15.509241933604166 0 1 0
95 0 2 0.5897 11.586666820081279 3.2254327532025653 13.481278674251977 0 1 0
1114 0 1 -1.1794 6.958892965781985 0.1443639500249294 12.803724708128083 0 1 -1
1565 0 2 0.5897 8.378508182244076 0.047255330089534316 15.261791859755775 0 1 0
1088 0 2 0.5897 4.418114801384153 4.930220480691207 12.767942607686459 0 -1 0
76 0 1 -1.1794 2.823327676195719 7.181741070215252 13.290484839888691 0 1 0
987 0 2 0.5897 1.1560300395511813 6.33177581864354 12.680516634357058 1 0 0
1840 0 1 -1.1794 2.795262207532881 4.377568878343455 13.588248274315335 0 0 0
1841 0 2 0.5897 2.0528264425065617 4.858101489447491 13.946387999358295 0 0 0
1092 0 2 0.5897 1.1855808473848604 6.615039974663936 15.482141126540142 0 -1 -1
867 0 2 0.5897 4.387059179924035 5.549371270707538 16.089204932217456 0 1 0
866 0 2 0.5897 5.398873044310168 5.8492034210353285 14.971157856196173 0 1 0
865 0 1 -1.1794 4.540149743655094 6.087742978242139 15.270303358430027 0 1 0
78 0 2 0.5897 3.3215267544250864 6.605567860175086 13.881408111445047 0 1 0
1090 0 1 -1.1794 1.0094652575585041 5.674913437809011 15.515445137632403 0 -1 -1
1032 0 2 0.5897 4.353245101626213 7.837194788431827 15.526842437250638 0 2 -1
1836 0 2 0.5897 10.419492628842688 4.039422882328753 15.165709883827002 0 -1 0