LAMMPS data file via write_data, version 23 Jun 2022, timestep = 18936000

2268 atoms
2 atom types

0.5959569448698581 46.85474205513637 xlo xhi
0 20.047001 ylo yhi
0 20.857 zlo zhi

Masses

1 1.008
2 15.999

Atoms # full

1300 0 1 -1.1794 3.011855295595797 2.1696011137813245 3.421890228429969 0 2 0
1302 0 2 0.5897 3.7178561937456336 1.5749561478657133 3.263360186652574 0 2 0
1301 0 2 0.5897 3.438145364254308 3.04248604474117 3.3292523043776874 0 2 0
1775 0 2 0.5897 6.027865850069795 3.2116502084653034 1.004307337017678 0 -1 0
1778 0 2 0.5897 0.9283983859325877 1.5744174884380044 3.157969503540039 0 0 0
1030 0 1 -1.1794 1.9156582351781621 2.9494376510266123 0.3507295939574234 0 1 0
2094 0 2 0.5897 3.6921025479544105 2.3387470874634966 0.1791077313346953 0 0 1
1031 0 2 0.5897 1.7298588346261516 3.824466086572141 0.6482567230781755 0 1 0
876 0 2 0.5897 5.895228900809661 0.2093216338535855 2.576362856529631 0 3 1
874 0 1 -1.1794 4.936893378335004 0.12937502275686075 2.8328827723001466 0 3 1
1032 0 2 0.5897 1.0285732017491387 2.4739657797329158 0.4122078520825114 0 2 0
1777 0 1 -1.1794 0.712525954668028 0.6824741760473332 2.84465227360328 0 0 0
1776 0 2 0.5897 7.455140782067042 3.5586149106714426 1.277660669677782 0 0 0
49 0 1 -1.1794 7.587544383476713 0.9665856726870573 2.377961267927953 0 0 1
51 0 2 0.5897 8.197544474545351 1.472201779922489 1.9611559707456665 0 0 1
50 0 2 0.5897 7.324141562675222 1.543583953756325 3.094146823669861 0 0 1
783 0 2 0.5897 9.544183523946064 3.6926547208350375 0.7714788785416115 0 -1 1
781 0 1 -1.1794 9.497908649699351 2.817683072997374 1.12533692094659 0 -1 1
782 0 2 0.5897 10.453955746891117 2.7034638018326165 1.4138180578526154 0 -1 1
2132 0 2 0.5897 11.46268562769953 0.6447646600686973 2.597086533940433 0 0 0
2131 0 1 -1.1794 11.275993129631573 0.17346394813891938 3.3945355431015933 0 0 0
1774 0 1 -1.1794 6.572381764125442 3.909905165873187 1.2990465166973617 0 0 0
2133 0 2 0.5897 11.1405241802404 0.7983896968349811 4.1455291856132845 0 0 0
1337 0 2 0.5897 1.5489359225687416 4.870651475559142 3.8507719299806173 0 0 0
1618 0 1 -1.1794 3.253378193135393 4.851261261560051 3.3718146862276375 0 -2 1
1620 0 2 0.5897 3.375903685570898 5.1781150661137225 2.466701297517409 0 -2 1
52 0 1 -1.1794 2.4647473958978114 5.62829561166505 0.6718272878408887 0 1 1
44 0 2 0.5897 4.352140593981987 6.12486370104516 1.0101824570021263 0 1 1
302 0 2 0.5897 5.362583817938307 7.068774799531671 3.738666533425438 0 2 3
1619 0 2 0.5897 4.14555585155521 4.807589123394571 3.7135155900343886 0 -2 1
43 0 1 -1.1794 5.2360429119208325 6.396463552094663 1.2662422272406382 0 1 1
45 0 2 0.5897 5.887833822934095 5.651780041392618 1.3239107995697168 0 1 1
53 0 2 0.5897 1.815509842225346 6.329567347361585 0.8562360194105799 0 1 1
1387 0 1 -1.1794 0.7509283926508011 7.573680851979762 1.2117172897916377 0 1 1
484 0 1 -1.1794 0.7490392467322164 7.66437460721298 3.798255938944512 1 0 0
1543 0 1 -1.1794 5.958925637346257 4.9430067939897775 3.9838297698944025 0 2 0
1389 0 2 0.5897 0.8013596639511124 7.863022110704777 2.200588238234078 0 1 1
2156 0 2 0.5897 11.298019310767971 4.978943469837479 2.7982526155769416 0 -1 0
1037 0 2 0.5897 9.226139568177853 5.468186816315683 2.8198347988219767 0 -1 0
1036 0 1 -1.1794 8.395743299857749 5.840054180513423 2.5390752708286914 0 -1 0
1545 0 2 0.5897 6.644496083107668 4.908350321340814 3.3006043126856177 0 2 0
1038 0 2 0.5897 8.450738590137409 6.749730782806285 2.8784563965480388 0 -1 0
1080 0 2 0.5897 8.365855033496455 5.858772816505573 0.8661232875407786 0 1 0
2155 0 1 -1.1794 10.69588089954045 5.039139449894296 3.5689456649332176 0 -1 0
2157 0 2 0.5897 10.924412325473238 5.94286010715775 3.8085940329128007 0 -1 0
1264 0 1 -1.1794 11.107356633402715 7.6511652687782075 4.014319252931897 0 -1 0
1078 0 1 -1.1794 8.579081337880035 5.431608216617889 0.041518718126338554 0 1 0
485 0 2 0.5897 1.5169076344613996 8.148711582335828 4.103115609267884 1 0 0
25 0 1 -1.1794 3.35720429796199 11.235836279800084 2.5541205332099377 0 0 2
27 0 2 0.5897 3.8089209987839667 10.57852304956332 1.9906711815671634 0 0 2
26 0 2 0.5897 3.145628890956333 10.613984944860018 3.294673224278137 0 0 2
542 0 2 0.5897 4.239169113113684 9.00217670623987 0.30257074749348245 0 -1 -1
541 0 1 -1.1794 4.738341433690098 9.384909105579045 1.0371762815942402 0 -1 -1
543 0 2 0.5897 5.077189344040317 8.657186954636991 1.569517733007647 0 -1 -1
1533 0 2 0.5897 11.513511700572389 8.144719237589948 0.7939283542820786 1 0 0
1009 0 1 -1.1794 8.782146368932343 8.547981416335688 3.082647076298928 0 0 1
1011 0 2 0.5897 8.871484324523305 9.102435908469532 2.2874324446955714 0 0 1
1868 0 2 0.5897 9.005422122444017 11.012997324786166 0.9423876950871192 0 0 0
1867 0 1 -1.1794 9.202577696099324 10.987041960081633 1.897751207469545 0 0 -1
1869 0 2 0.5897 8.445655917456772 11.45425144106035 2.2850862374502086 0 0 -1
1356 0 2 0.5897 11.042407542757964 11.42337962417489 2.4325590143883846 0 0 0
1542 0 2 0.5897 6.463390468587553 11.589035522692578 3.604313775229398 0 -1 1
1354 0 1 -1.1794 11.964012443306778 11.624074726103297 2.673040554880923 0 0 0
1010 0 2 0.5897 7.964453672957315 8.857850037192232 3.6016073606724124 0 0 1
1265 0 2 0.5897 10.303060944103445 8.157303879328161 3.78188115945275 0 -1 0
1266 0 2 0.5897 11.886459654033791 8.22711113583646 3.9521309291370343 0 -1 0
2024 0 2 0.5897 2.657786758644135 12.362320461183717 0.913712588012496 0 2 0
1092 0 2 0.5897 3.376324432297791 12.719105706207355 3.840099480319969 0 -1 -1
761 0 2 0.5897 2.5517918372222526 14.583533494633288 2.5775152203597202 0 0 2
760 0 1 -1.1794 3.2344887654636203 15.117063742227007 2.149162880324394 0 0 2
762 0 2 0.5897 3.777998661800948 14.450171245620515 1.679531421913512 0 0 2
1491 0 2 0.5897 4.273109710018765 15.462174383184712 3.712484627110046 1 -2 0
320 0 2 0.5897 5.59037087962218 12.928928296981356 1.6536785429790175 0 -1 1
319 0 1 -1.1794 5.066994547998415 13.43397761905767 1.007017641350053 0 -1 1
2025 0 2 0.5897 1.2903633395377232 12.548413221544209 0.23926666402806301 0 2 0
2023 0 1 -1.1794 2.2212111455041077 12.638045328495647 0.11596813960142206 0 2 0
1863 0 2 0.5897 6.304080660802211 14.536335323715129 0.3575996741765758 0 1 0
1111 0 1 -1.1794 0.9588140996607821 14.535098552170952 3.7601330727697944 0 -1 0
321 0 2 0.5897 5.1307845396206595 12.879837970403894 0.20738655017835514 0 -1 1
230 0 2 0.5897 11.89090101438216 12.49408442139485 0.22951878975724166 1 0 -1
1149 0 2 0.5897 11.742678945098756 14.870969945974386 2.9694528621473024 0 0 1
1355 0 2 0.5897 11.949844226903528 12.548901605048016 2.892860894357664 0 0 0
1541 0 2 0.5897 7.278516761763467 12.84889943930093 3.804752820583043 0 -1 1
1147 0 1 -1.1794 10.920016676915475 14.38379170919668 2.9595900251803764 0 0 1
1148 0 2 0.5897 10.274326715843568 15.07474311288993 2.849867036719501 0 0 1
1540 0 1 -1.1794 6.930465891292149 12.255361383050264 3.092687925854408 0 -1 1
1007 0 2 0.5897 9.81810793715112 14.114682997335056 1.0079923437346956 1 -1 1
1861 0 1 -1.1794 6.972974278779188 15.140006280500483 0.07871107472225364 0 1 0
818 0 2 0.5897 7.998784135763248 15.577063824220089 1.3713329159551533 0 -1 0
817 0 1 -1.1794 8.72789208516545 15.807249402582832 1.9773439320283097 0 -1 0
1349 0 2 0.5897 12.078784118415873 16.015801682032865 0.3131670914576189 0 1 0
1006 0 1 -1.1794 10.190921407427926 13.712899583001517 0.20169224939060473 1 -1 1
1589 0 2 0.5897 1.0853988925445308 16.28510973394934 3.472013264736321 0 -2 1
68 0 2 0.5897 2.2619155176397245 16.257872976126475 1.0462276277566855 0 -1 0
599 0 2 0.5897 1.913898768613053 19.52601364232463 2.1822222933363133 0 0 1
600 0 2 0.5897 3.412144304863454 19.523642888623773 1.9638913357950274 0 0 1
1590 0 2 0.5897 1.7054784102096732 17.675960277496486 3.165417685894782 0 -2 2
598 0 1 -1.1794 2.663278569664632 18.935099237662335 1.9566626216496992 0 0 1
875 0 2 0.5897 4.860400574836731 19.595826597926806 3.6456544494290974 0 3 1
69 0 2 0.5897 2.2584512692208394 17.61347217651037 0.5682723417024285 0 -1 0
1588 0 1 -1.1794 0.9830007974665133 17.227008890369905 3.6252584058666266 0 -2 1
1117 0 1 -1.1794 6.10693693336656 17.79001259081998 0.4032042687287477 0 0 1
119 0 2 0.5897 6.118335847352412 17.00586401057467 3.509752511606694 0 -1 0
67 0 1 -1.1794 2.0121991403168975 16.71770665536836 0.2092835141137601 0 -1 0
1118 0 2 0.5897 6.0543819611605105 17.90426286110624 1.3389607928461018 0 0 1
1119 0 2 0.5897 6.164825006282434 16.809837942608958 0.29965915275675387 0 0 1
1129 0 1 -1.1794 9.248569366248445 18.645763519590798 2.3077091487906545 0 0 1
1131 0 2 0.5897 8.547268280579754 19.3152704121178 2.140714648172993 0 0 1
1130 0 2 0.5897 9.921033612023324 19.11939603492073 2.7770896031425556 0 0 1
120 0 2 0.5897 7.562226108546826 17.083934127170313 2.897610808803086 0 -1 0
118 0 1 -1.1794 6.805124143708206 17.63753115070626 3.248973747856467 0 -1 0
819 0 2 0.5897 8.995055473725184 16.744444341372123 1.8583679409331957 0 -1 0
843 0 2 0.5897 11.838878146056363 17.27161565230479 3.0549273981616705 0 0 -2
842 0 2 0.5897 12.000500061356643 17.83733805593877 1.6064494200781552 0 0 -2
841 0 1 -1.1794 12.041044937825646 17.043986126758874 2.1485816142271927 0 0 -2
1314 0 2 0.5897 3.0520336712073233 2.1970758363688767 5.118269620863052 0 1 1
1312 0 1 -1.1794 2.8522902533449024 1.8623942576241694 6.000622004654045 0 1 1
1313 0 2 0.5897 3.68111973946547 1.7267823737724892 6.418287200097371 0 1 1
1280 0 2 0.5897 1.9487372010457678 3.0739221312861607 6.551921556997003 1 0 1
1279 0 1 -1.1794 1.4870460131609802 3.9022502830327315 6.704676489131575 0 1 1
254 0 2 0.5897 5.145324794875667 3.0138733672520774 7.679418148046665 0 -1 0
1762 0 1 -1.1794 5.492546853153568 1.4425150688092037 6.885772612333663 1 -1 0
1763 0 2 0.5897 5.684154596917571 0.4964127985867984 6.936518703150505 1 -1 0
1764 0 2 0.5897 5.938134871301975 1.8547174877244788 6.150947522347605 1 -1 0
1802 0 2 0.5897 2.1201994420272516 0.2955364339912251 5.815345599115431 0 3 -2
1049 0 2 0.5897 6.137704221526427 3.164818766569428 4.492041780700019 0 0 -1
253 0 1 -1.1794 4.923230712235536 3.9343265855495217 7.796568943562855 0 -1 0
1048 0 1 -1.1794 6.688438905364955 2.384750706848663 4.621513828680964 0 0 -1
1050 0 2 0.5897 7.605723942274401 2.7123350742193777 4.746839897599521 0 0 -1
346 0 1 -1.1794 9.371032058587645 3.0663943155776603 5.117728699937877 0 1 0
347 0 2 0.5897 10.187279527031095 2.630188042977209 5.371165640892032 0 1 -1
40 0 1 -1.1794 11.108100462484522 1.1903069748144028 5.817425731282335 0 -1 1
348 0 2 0.5897 9.78687699293142 3.881691969215989 4.742693773640101 0 1 -1
1328 0 2 0.5897 9.002501843849949 3.6282302440362657 7.094359763975559 0 -1 1
1327 0 1 -1.1794 8.978793487883442 3.4342305898083705 8.06226036038598 0 -1 1
42 0 2 0.5897 10.893208646554914 0.5941972094669554 6.503356120287298 0 -1 1
2045 0 2 0.5897 8.92074650450273 0.43841873001124226 8.256618784368547 0 -1 1
41 0 2 0.5897 11.99415541861295 1.3829691902639039 6.108923363948274 0 -1 1
301 0 1 -1.1794 5.115469006334508 7.613910749039998 4.504235303788115 0 2 3
1281 0 2 0.5897 1.7015141488046248 4.176599809956778 7.610960190972118 0 1 1
303 0 2 0.5897 4.6539905590232395 7.096369203643767 5.1548357747141 0 2 3
580 0 1 -1.1794 3.9875276261512242 6.032457899778054 6.343502680884008 0 -1 0
582 0 2 0.5897 4.122974475265445 5.106736829460266 6.59527049569486 0 -1 0
581 0 2 0.5897 3.0679978899535594 6.322344568563525 6.516697133290625 0 -1 0
1024 0 1 -1.1794 1.6178974870385658 7.095206158963214 6.780525860884635 0 0 1
830 0 2 0.5897 4.9572327543428 6.685964740237561 7.5334187530890375 0 1 -1
1026 0 2 0.5897 1.5585663011450328 7.870439890500967 6.236630764242896 0 0 1
255 0 2 0.5897 5.716231833235179 4.319908423089547 8.168256353491703 0 -1 0
1338 0 2 0.5897 1.0284964523413214 4.563080942898343 5.234287590311012 0 0 0
1336 0 1 -1.1794 0.7842921696990224 5.039776165149497 4.379260676340327 0 0 0
1025 0 2 0.5897 0.7628011042902123 6.609892910770824 6.663103608376764 0 0 1
829 0 1 -1.1794 5.1824449199027365 7.300541817507308 8.272025280452775 0 1 -1
486 0 2 0.5897 0.7617193233090663 6.746816759412546 4.19976185797347 1 0 0
1544 0 2 0.5897 6.395960100064056 5.354735436705627 4.735116698335884 0 2 0
897 0 2 0.5897 7.381924742432043 6.096995604698334 7.1538704010901215 0 -1 0
895 0 1 -1.1794 7.336267779884031 6.195794982633943 6.194211976291633 0 -1 0
896 0 2 0.5897 7.171727633359364 7.114782757682544 6.07363317747877 0 -1 0
74 0 2 0.5897 9.17189713982849 6.342267508127238 6.162894411838916 0 -1 1
73 0 1 -1.1794 10.02188406962216 6.7800999864678495 6.269523524485917 0 -1 1
75 0 2 0.5897 10.352702945897574 7.073126209650889 5.363335736268949 0 -1 1
2123 0 2 0.5897 11.481088623634038 5.63458327261675 6.80691679445201 0 -1 0
1052 0 2 0.5897 10.121915577866504 7.414187846882346 8.045140998635244 0 0 1
2122 0 1 -1.1794 11.776307644663015 4.770251927137727 7.111398581559241 0 -1 0
34 0 1 -1.1794 2.860299698642883 9.297311486965532 4.501627030213002 0 0 1
35 0 2 0.5897 3.746354985818696 8.836895873912416 4.506676681409202 0 0 1
36 0 2 0.5897 2.6237325035133616 9.693119460885875 5.385491486345946 0 0 1
2056 0 1 -1.1794 2.2162628424751234 10.516081191196163 6.969031938992469 0 0 2
2058 0 2 0.5897 3.0542159751717635 10.30363436939187 7.456546638118631 0 0 2
88 0 1 -1.1794 4.831354368198098 10.078756090340105 7.907223122525835 0 1 0
2057 0 2 0.5897 1.5274759994318363 10.258450925016417 7.6521569288126585 0 0 2
270 0 2 0.5897 5.739919252723796 11.339919249087544 6.6013995428090855 0 -1 -2
268 0 1 -1.1794 5.533157082772392 11.857176746677096 5.7943501871898135 0 -1 -2
12 0 2 0.5897 6.113314503235343 9.205869760608214 4.812645412253396 0 0 0
1580 0 2 0.5897 1.6151449907434128 11.842361410964312 4.623370832658436 0 -1 1
90 0 2 0.5897 4.909860080259654 9.135527629374785 7.804583910061755 0 1 0
1579 0 1 -1.1794 0.6519660853299319 11.683862710120044 4.572833584646658 0 -1 1
11 0 2 0.5897 7.229413069622087 10.084639231272531 5.509665050104633 0 0 -1
1044 0 2 0.5897 9.763004443035868 11.54360799553115 5.682282751408095 0 2 -1
10 0 1 -1.1794 7.004470386039442 9.58413304461458 4.75035989364763 0 0 0
46 0 1 -1.1794 8.179145303007878 10.958647284226407 7.07842581205229 0 -2 0
47 0 2 0.5897 7.695667005271772 11.58166811981319 7.698323262039673 0 -2 0
1561 0 1 -1.1794 10.845760709223821 9.976200383772973 7.73330855721316 0 2 0
1563 0 2 0.5897 9.957436894373032 10.381832690933503 7.657042940557766 0 2 0
48 0 2 0.5897 8.032486774870353 10.115415655654946 7.551954993308811 0 -2 0
1043 0 2 0.5897 10.951456222642493 11.614701448571465 4.665096249018259 0 2 -1
1042 0 1 -1.1794 10.610982348433703 11.938383261255392 5.467431001944789 0 2 -1
1767 0 2 0.5897 12.064431390981552 8.388791532297274 7.215234967246342 0 -1 0
1489 0 1 -1.1794 4.667274598349894 15.762074808078788 4.573240982093376 1 -2 0
96 0 2 0.5897 2.11188858589128 12.298303871463837 7.62506489492205 0 2 0
269 0 2 0.5897 6.12662226688301 12.616194978897006 5.81020962430627 0 -1 -2
1091 0 2 0.5897 3.9551822892688375 12.694561385708887 5.301831336499911 0 -1 -1
1090 0 1 -1.1794 3.190933066937054 12.992999113691162 4.751785605898311 0 -1 -1
290 0 2 0.5897 3.6539490392631637 14.980412420314126 6.007797105119338 0 1 1
291 0 2 0.5897 4.2105275847655514 15.412046622152447 7.305156196712686 0 1 1
289 0 1 -1.1794 3.4147443404660445 15.034605125239944 6.91693303205455 0 1 1
95 0 2 0.5897 2.5817527800415903 13.80395130139885 7.622053709939169 0 2 0
94 0 1 -1.1794 2.351541728377706 13.038463844066056 8.15967905347517 0 2 0
1112 0 2 0.5897 1.1630505969726683 13.66955953978386 4.230678049652295 0 -1 0
93 0 2 0.5897 6.3953114606562265 14.959743109984561 4.615182763707381 0 1 0
91 0 1 -1.1794 6.961587222748941 14.306766068814685 5.01193830733714 0 1 0
864 0 2 0.5897 11.162102020743019 12.620938961171634 7.364524764251553 0 -1 0
92 0 2 0.5897 7.658503902663913 14.760508069727539 5.459968274375378 0 1 0
345 0 2 0.5897 10.358569823261668 15.220935556978276 5.195471799235524 0 -1 1
344 0 2 0.5897 9.909093049547547 13.747063419032258 5.13650696689595 0 -1 1
343 0 1 -1.1794 9.657847448179062 14.639154139532398 5.465272308946975 0 -1 1
759 0 2 0.5897 9.405960419169736 15.352899374114488 7.770039962049289 0 -1 1
1088 0 2 0.5897 6.424885846387553 15.871668046010056 7.811653278211057 0 -1 0
862 0 1 -1.1794 11.144957419439786 13.002646258919121 8.238777820998404 0 -1 0
863 0 2 0.5897 10.636211426761829 13.827881306590164 8.11755899148019 0 -1 0
224 0 2 0.5897 2.0006405089780555 16.288608154243875 6.774078004348173 1 0 0
1490 0 2 0.5897 4.4272871035819845 16.680709118995654 4.720567982938642 1 -2 0
1803 0 2 0.5897 1.452496268404989 19.950391925432925 4.458100388371717 0 2 -2
223 0 1 -1.1794 1.1612942020232468 16.758478158600866 6.621171177619632 1 0 0
225 0 2 0.5897 1.2235640727887849 17.09565943385102 5.718363855283051 1 0 0
1801 0 1 -1.1794 1.6764540868063016 19.550589644412856 5.357008116379149 0 2 -2
881 0 2 0.5897 4.509693175534613 18.68652917768736 5.819954856566082 0 -1 -2
880 0 1 -1.1794 4.12404761285074 18.365575616290002 4.980824549526117 0 -1 -2
882 0 2 0.5897 3.1873682569519786 18.602210336889836 4.993821045221478 0 -1 -2
1115 0 2 0.5897 2.1234365936923734 18.17664405756318 7.650561452797129 0 0 -2
532 0 1 -1.1794 5.319690076706175 18.892174035255277 7.369305794071909 0 1 1
534 0 2 0.5897 4.495626827229234 18.913903965462502 7.865597410922609 0 1 1
533 0 2 0.5897 5.956272296618024 18.194427140545656 7.60407707813446 0 1 1
1114 0 1 -1.1794 2.621715494353743 18.81201426238291 8.258207477287657 0 0 -2
557 0 2 0.5897 10.902921345594432 18.291746649056584 7.788792060039152 0 -1 0
556 0 1 -1.1794 11.458433499266407 17.589821768556916 8.12018728488817 0 -1 0
144 0 2 0.5897 8.117902536244795 18.252083557615773 4.603620285464839 0 -1 0
1889 0 2 0.5897 12.043268861916228 17.11878581616922 5.290660253568509 0 1 1
1890 0 2 0.5897 10.617000907225911 17.364546810880157 5.088714924536114 0 1 1
2044 0 1 -1.1794 9.562761916554349 19.94227621385007 7.797624291222815 0 -2 1
143 0 2 0.5897 8.981353918760412 19.31743889157449 5.211513648846799 0 -1 0
142 0 1 -1.1794 8.86538564731088 18.34107592634309 5.227349004274359 0 -1 0
1373 0 2 0.5897 8.256774061193092 17.62524882077213 6.796372251376802 0 -1 1
1372 0 1 -1.1794 7.680650777816587 17.185002492300555 7.426806467242575 0 -1 1
1888 0 1 -1.1794 11.292206104016978 16.767557297473125 4.857344173866232 0 1 1
1374 0 2 0.5897 7.861521279875291 17.614173034528527 8.269733305320102 0 -1 1
2050 0 1 -1.1794 1.0347980603547997 2.955992169332367 10.994967021618715 0 0 -1
2051 0 2 0.5897 0.8318422623430584 1.996150026874569 11.163843669068347 0 0 -1
1381 0 1 -1.1794 1.1992486272957121 0.25250355963302795 10.369670419094154 0 1 -1
1514 0 2 0.5897 3.7396632398318936 1.9912407870694817 11.04805533393476 0 0 0
1513 0 1 -1.1794 3.8668246180184416 1.580148480305047 10.177423959643907 0 0 0
336 0 2 0.5897 5.124306454900216 2.8473106918394424 12.488833802872053 0 0 0
1515 0 2 0.5897 3.0030579000088697 1.2108837417405431 9.967556944046612 0 0 0
2052 0 2 0.5897 0.9172485073794225 3.4821975248083104 11.779112444433284 0 0 -1
797 0 2 0.5897 4.7308736205386275 0.02249770956943778 10.586001107851711 0 1 -2
1797 0 2 0.5897 6.284210999553085 1.4325981031387822 8.85938333158204 0 0 0
102 0 2 0.5897 3.5092996997417463 3.905454734256064 8.989820078653992 0 1 -1
101 0 2 0.5897 2.214266470591136 3.8316168731075333 9.9135083855136 0 1 -1
1329 0 2 0.5897 9.812108444901432 3.730972648350147 8.40294507062526 0 -1 1
1796 0 2 0.5897 7.624187612646123 2.1435997210047977 8.899730801143198 0 0 0
2110 0 1 -1.1794 11.484003930573227 2.539860819828198 9.999910051724651 0 0 0
1795 0 1 -1.1794 7.089419664705184 1.482201762115176 9.401502285263975 0 0 0
132 0 2 0.5897 7.29354710477607 1.6255469916411933 11.192778696628558 0 2 0
2112 0 2 0.5897 10.973957510503734 1.8446256036786153 10.420488790029069 0 0 0
130 0 1 -1.1794 7.097272389421342 1.7626750289764936 12.19595115940857 0 2 0
1799 0 2 0.5897 9.70333002203877 0.61258529427418 11.809064604024258 0 0 0
1798 0 1 -1.1794 9.876973308850932 0.48737620488935957 10.857056655084119 0 0 0
2046 0 2 0.5897 10.339530957786968 0.012813647735431033 8.364495928476751 0 -1 1
2111 0 2 0.5897 11.981201974090979 1.9995488296501431 9.352212674788346 0 0 0
1378 0 1 -1.1794 0.794089968674189 7.19060943472663 9.61907763950338 0 0 1
831 0 2 0.5897 6.169839487216168 7.350973139497547 8.353840821082407 0 1 -1
100 0 1 -1.1794 2.6768951109856376 4.358163695439015 9.158852816858612 0 1 -1
813 0 2 0.5897 4.236624696219758 6.884979370005945 9.584894277651328 0 -1 -1
812 0 2 0.5897 3.292500263053909 5.7265286626982315 10.102738933040518 1 -1 -1
811 0 1 -1.1794 3.6656654810506977 6.597148510628931 10.361989308600018 0 -1 -1
1290 0 2 0.5897 5.500660068465428 6.198561519956221 11.114491033424397 0 1 1
893 0 2 0.5897 3.009197871396918 7.244935147805719 12.117227852881006 0 0 0
1380 0 2 0.5897 1.0087207119784636 7.293908344775092 8.651552618268486 0 0 1
1379 0 2 0.5897 1.5896364552542628 7.252000393346984 10.138535648821465 0 0 1
1575 0 2 0.5897 1.1043843284850003 5.9140100789731616 12.500307085990542 0 0 -2
260 0 2 0.5897 11.018591559718471 4.308505170864561 10.157732538506671 0 -1 0
1288 0 1 -1.1794 6.474011737458096 6.215315684566767 11.207908299976344 0 1 1
1289 0 2 0.5897 6.541440668543311 5.547901180775594 11.918988317248468 0 1 1
259 0 1 -1.1794 10.298270965009717 4.981823133818601 10.119366975166164 0 -1 0
605 0 2 0.5897 7.194158102298301 5.730628342772222 9.660733516319489 0 2 0
261 0 2 0.5897 10.07540972521926 5.2001452998095985 11.048623056311277 0 -1 0
606 0 2 0.5897 7.963270924923887 4.734267054557266 8.651951791745091 0 2 0
604 0 1 -1.1794 7.297678130771404 5.421761887415858 8.728654509285057 0 2 0
1053 0 2 0.5897 10.049540404035985 6.5195429807932825 9.221274254247348 0 0 1
1051 0 1 -1.1794 9.925510116823729 7.400876260640288 8.977549668325778 0 0 1
89 0 2 0.5897 4.750556848716903 10.250663580902273 8.868916939092129 0 1 0
526 0 1 -1.1794 4.205240633911 10.100003872472305 10.72917081916666 0 0 0
63 0 2 0.5897 1.0615512039822401 9.205137431760717 12.0206200637851 0 1 1
62 0 2 0.5897 0.9487259509345807 10.719947003422028 11.946333228426733 0 1 1
61 0 1 -1.1794 0.7019476510277317 9.9275133111033 11.495828316146632 0 1 1
527 0 2 0.5897 4.955235295606455 9.720894025547988 11.239845448118322 0 0 0
528 0 2 0.5897 3.4021436034510444 9.748066926321265 11.076947577388195 0 0 0
98 0 2 0.5897 6.034921698559686 8.037461165961727 12.409776468744738 0 0 0
2064 0 2 0.5897 4.233650393973746 11.862203616406028 10.273680884309243 0 0 0
981 0 2 0.5897 8.418227843594597 8.024537324232664 8.902177421937731 1 0 -1
245 0 2 0.5897 10.313350446950395 8.807948510723609 10.226424912340098 1 0 0
979 0 1 -1.1794 7.549381023424686 8.480138748741139 8.672442633305788 1 0 -1
244 0 1 -1.1794 10.782870613727308 9.648190218305288 10.46940837822215 1 0 0
980 0 2 0.5897 7.204817673494277 8.957981536445418 9.434047137476002 1 0 -1
246 0 2 0.5897 10.832439859593109 9.558960825603993 11.449783219375373 1 1 0
1562 0 2 0.5897 10.983203959709405 9.932106930112637 8.680933137830337 0 2 0
127 0 1 -1.1794 7.420685717636514 10.106469901559226 11.21756748549119 0 2 -1
129 0 2 0.5897 7.975518121412535 9.425171067063816 11.715129320489314 0 2 -1
353 0 2 0.5897 8.85439430276441 11.607847854451395 10.814669086147143 0 0 -1
128 0 2 0.5897 7.2201957234982865 10.791642253584502 11.829992502437246 0 2 -1
564 0 2 0.5897 1.3352522783718304 13.555066886309783 9.373219205627786 0 -1 -2
562 0 1 -1.1794 0.8759272785501645 13.620500549389195 10.264603136290683 0 -1 -2
1087 0 1 -1.1794 5.842961271360088 15.352571755353418 8.393463946415258 0 -1 0
2026 0 1 -1.1794 1.5324054316946396 12.30194344010751 12.488170983091655 0 0 0
2062 0 1 -1.1794 4.310904126195473 12.710498479984542 9.804752663396185 0 0 0
2063 0 2 0.5897 3.6262209521675746 12.734268730903219 9.110690897914472 0 0 0
79 0 1 -1.1794 4.9054587624205475 14.36931509326431 11.945782990533607 0 0 1
80 0 2 0.5897 4.489620343820439 13.821114828005937 11.225065023240708 0 0 1
1298 0 2 0.5897 1.2319182976264789 15.201366804508956 10.489856520787146 0 -1 2
2261 0 2 0.5897 5.965415474567464 12.639182626038135 9.122955328268096 1 0 -2
2028 0 2 0.5897 1.3126166543806619 12.953945202873268 11.786570102060692 0 0 0
1089 0 2 0.5897 6.121964451954278 14.472856860199368 8.347330524692493 0 -1 0
81 0 2 0.5897 4.080089992093176 14.555681338187053 12.434817291193529 0 0 1
2136 0 2 0.5897 11.623630525507727 15.703546688509613 10.849069514872841 0 -1 0
2135 0 2 0.5897 11.785960225292303 14.212395853093316 10.321413443962937 0 -1 0
2260 0 1 -1.1794 6.82682226252947 12.830834860017475 8.732188622706047 1 0 -2
757 0 1 -1.1794 9.886939346189811 15.416953480353266 8.595191338277383 0 -1 1
758 0 2 0.5897 9.129161313194263 15.474885310026599 9.203200839495134 0 -1 1
352 0 1 -1.1794 9.112024141020697 12.520265480720695 10.532400049030512 0 0 -1
354 0 2 0.5897 9.713266591886288 12.371880243831738 9.795608675411133 0 0 -1
2262 0 2 0.5897 7.427566821292904 12.862372193410287 9.563976849174814 1 0 -2
1064 0 2 0.5897 6.872325284755621 15.564179209825458 10.086818481991903 0 0 1
546 0 2 0.5897 9.966071801820172 13.449143850289225 12.124363719120687 0 0 1
1065 0 2 0.5897 7.814394796604246 15.359121523415604 11.371387990041226 0 0 1
1063 0 1 -1.1794 7.760295093374371 15.636428735382378 10.452897303261159 0 0 1
1382 0 2 0.5897 1.1815743578349007 19.501698395839977 10.942539486922787 0 0 -1
1106 0 2 0.5897 4.588559236260412 16.11999047114299 9.465229212746673 0 0 0
1116 0 2 0.5897 1.9746971210832225 19.222326245833173 8.880127097899674 0 0 -2
1105 0 1 -1.1794 4.089641845105728 16.665128762180135 10.120735516059806 0 0 0
377 0 2 0.5897 5.2445778808884045 17.063679733442708 11.944272673224475 0 1 1
1297 0 1 -1.1794 1.4138498766645902 16.199856919721707 10.684262324108628 0 -1 2
798 0 2 0.5897 5.1000341568405805 19.194232297016256 11.732255712239123 0 0 -2
796 0 1 -1.1794 4.9080669188761625 19.176358241453716 10.804659746500233 0 0 -2
1107 0 2 0.5897 4.108986512844284 17.565684265649697 9.683486383477488 0 0 0
1299 0 2 0.5897 2.274361688960359 16.38272023805866 10.283551547197298 0 -1 2
1295 0 2 0.5897 1.7554194614031289 17.65654328011424 11.940198931940586 0 0 -1
558 0 2 0.5897 10.843017827764328 16.907201766912113 8.532815688890405 0 -1 0
477 0 2 0.5897 7.04700272294937 18.721701521641922 9.989054739237805 1 -1 0
476 0 2 0.5897 7.898751488969932 17.449402665606815 10.496577496180803 1 -1 0
475 0 1 -1.1794 7.916051549617452 18.366389651542505 10.209466747617673 1 -1 0
1800 0 2 0.5897 9.189483419315989 19.842188017798847 10.675253926900961 0 -1 0
539 0 2 0.5897 11.030828463505271 18.010929298692513 11.170500592630066 0 -1 -1
538 0 1 -1.1794 10.611437911405165 17.134319401495265 11.129987917222666 0 -1 -1
540 0 2 0.5897 10.474274105584948 16.84451318091645 12.01403111507781 0 -1 -1
334 0 1 -1.1794 4.432343236829997 3.3235337520543915 12.97178381364141 0 0 0
1268 0 2 0.5897 6.177403857292319 0.2563650435090906 13.164862361532284 0 2 0
1653 0 2 0.5897 3.0105672163188593 2.463319115857094 13.749582058130903 0 1 -1
1651 0 1 -1.1794 2.225387360843381 2.0561807794044964 14.185967185655882 0 1 -1
1652 0 2 0.5897 2.4930355098719192 1.1779866278799649 14.44267160204671 0 1 -1
1232 0 2 0.5897 5.7151591521794 2.242860578099958 15.840273242667736 1 0 -1
1033 0 1 -1.1794 5.891908056918283 0.5872798173189087 16.20024504600353 0 -2 -1
1231 0 1 -1.1794 5.787527978338586 3.195339573217887 15.891008500336289 1 0 -1
1233 0 2 0.5897 5.0487576673430326 3.548979165791034 15.411998025035851 1 0 -1
323 0 2 0.5897 1.573868755002727 0.001405764386610997 16.197466234230568 0 -1 -1
1035 0 2 0.5897 5.709343298395503 0.2976160109584928 15.261557588637116 0 -2 -1
131 0 2 0.5897 7.919797485561172 1.5951339162019826 12.714857776180011 0 2 0
1136 0 2 0.5897 9.98700405401337 2.2813833349334516 13.842492295586803 0 1 0
1135 0 1 -1.1794 9.328577344228604 1.6223214299714592 13.643517337252744 0 1 0
1137 0 2 0.5897 9.139536517253516 1.10352492707921 14.465627305299268 0 1 0
1099 0 1 -1.1794 8.700750215510602 0.5265107756788622 16.295768133588705 0 -1 -1
1101 0 2 0.5897 7.739416428724586 0.6020105308402871 16.213019981760674 0 -1 -1
1811 0 2 0.5897 11.722792872755821 0.619200946660818 15.10392321735575 0 -1 0
1893 0 2 0.5897 7.371864874690737 3.2955305423409236 13.008846267335622 0 0 0
1555 0 1 -1.1794 11.099615450804333 3.918139686425713 14.303407535361416 0 -1 -1
822 0 2 0.5897 9.125034642572437 3.468873833941551 16.567017418667564 0 -1 0
821 0 2 0.5897 7.647939873293472 3.8332186609838477 16.251082268836953 0 -1 0
1810 0 1 -1.1794 12.085642491110859 1.333380795836496 15.637910972554963 0 -1 0
335 0 2 0.5897 4.75860368782131 4.202510513951426 13.17553281720939 0 0 0
892 0 1 -1.1794 2.219131912593125 7.517106229200291 12.623698054794591 0 0 0
1573 0 1 -1.1794 0.7968819229726163 5.053634883253922 12.742352992392583 0 0 -2
2240 0 2 0.5897 5.064676997778736 6.599539185191305 13.92205787565955 1 1 -1
1368 0 2 0.5897 1.6856354614670728 5.795770948677581 15.623177500464337 0 1 1
2241 0 2 0.5897 3.9543531487401236 5.803338070335202 14.491166882384807 1 1 -1
2239 0 1 -1.1794 4.832108344411447 5.740924531731171 14.20276056759981 1 1 -1
1366 0 1 -1.1794 2.335851833581188 5.249249063397537 15.158806732344193 0 1 1
1367 0 2 0.5897 1.8676786806841374 4.971837843549966 14.3332527791573 0 1 1
386 0 2 0.5897 5.9021362024132005 6.379469940025299 15.921601583722817 0 1 0
1556 0 2 0.5897 11.704708266195485 4.238317007595024 13.596879541776284 0 -1 -1
1892 0 2 0.5897 7.015982552621459 4.094886053186872 14.241338692921882 0 0 0
820 0 1 -1.1794 8.516361945824688 4.179046927966245 16.487372614740842 0 -1 0
1891 0 1 -1.1794 7.240669558647081 4.193880910407991 13.299600529983925 0 0 0
1557 0 2 0.5897 11.0506747237676 4.596132339440684 14.981789159890104 0 -1 -1
385 0 1 -1.1794 6.4787885173326245 6.655107145613452 16.622574371785266 0 1 0
1530 0 2 0.5897 9.284380119422764 7.551624155906725 12.707984263305214 0 1 2