LAMMPS data file via write_data, version 23 Jun 2022, timestep = 22705000

2268 atoms
2 atom types

0.8221604837712206 46.62853851622924 xlo xhi
0 20.047001 ylo yhi
0 20.857 zlo zhi

Masses

1 1.008
2 15.999

Atoms # full

566 0 2 0.5897 2.293537320372641 2.861042693050187 0.7229547346336581 0 -3 -1
383 0 2 0.5897 5.413022085883009 2.6742380373994865 3.157820749370291 0 0 0
1031 0 2 0.5897 6.444804919594954 2.764283476164581 0.6421143846695578 0 1 0
831 0 2 0.5897 5.094251344485414 0.8316809654508833 1.002858220444744 0 2 -1
1302 0 2 0.5897 2.058569577059676 0.7160209634734127 3.4921482043596206 0 2 0
69 0 2 0.5897 1.3870988557350805 3.263584890221886 2.945384558048263 0 0 0
382 0 1 -1.1794 5.466597133616659 1.8104510903433007 3.602715279970705 0 0 0
384 0 2 0.5897 6.418287709244682 1.6804074809537315 3.7237200872135037 0 0 0
1032 0 2 0.5897 4.882152667028166 2.854813897336173 0.47901287926778113 0 2 0
1030 0 1 -1.1794 5.69636864494681 2.5283861854404694 0.07373418798125252 0 1 0
1301 0 2 0.5897 3.551023823924423 1.2532610461254279 3.949588315898847 0 2 0
68 0 2 0.5897 0.9039226981831612 1.955548868382129 2.4493254684082517 0 0 0
67 0 1 -1.1794 1.1303626022104492 2.8272653030393364 2.1330242617001813 0 0 0
1836 0 2 0.5897 8.011109968237903 3.814256189075029 2.2803559016820674 0 -2 1
1834 0 1 -1.1794 7.847015062307893 2.898639944591253 1.8854681843072487 0 -2 1
1835 0 2 0.5897 8.159179748400142 2.1833956354909305 2.468018316089857 0 -2 1
860 0 2 0.5897 10.9933587105418 3.235975061149338 2.6643807350448547 0 3 1
758 0 2 0.5897 9.564543484484988 3.005085015779768 1.0100628167562244 0 -1 1
757 0 1 -1.1794 10.47858420889534 3.316177947484805 0.9044720628084342 0 -1 1
859 0 1 -1.1794 10.827921233456749 3.0787779533989053 3.610544639966942 0 3 1
290 0 2 0.5897 8.728128160680624 0.28038905292433425 3.7382004487553604 0 2 1
289 0 1 -1.1794 7.99506932789241 0.22300399119209266 3.0662347040930498 0 2 1
861 0 2 0.5897 11.67650797574668 3.2615481808377713 4.0827858281908584 0 3 1
1895 0 2 0.5897 12.198901197183703 0.768768790934713 0.09470861690029103 0 1 2
1833 0 2 0.5897 10.77821607293168 1.2750653053062777 4.02791360884015 0 2 1
759 0 2 0.5897 11.01605121689094 2.529113257435305 0.566310476035697 0 -1 1
895 0 1 -1.1794 4.1910443867151415 4.590702741884306 3.3094046579558207 0 -1 1
897 0 2 0.5897 3.221865465704636 4.589545300071825 3.431323299231144 0 -1 1
896 0 2 0.5897 4.4469652207545565 5.077743390701231 2.534217147236912 0 -1 1
1079 0 2 0.5897 2.400415537571481 5.774525109247447 0.369987951902291 0 1 0
327 0 2 0.5897 4.692328432903997 5.8839920369862995 0.6337741526912959 0 0 1
325 0 1 -1.1794 5.354745510182024 5.988070740451865 1.3456955333368863 0 0 1
599 0 2 0.5897 5.237304793826091 7.243072734373606 3.7039427712846633 0 1 1
2073 0 2 0.5897 1.3193405164058163 7.664741768083442 1.558378433900263 0 -1 0
326 0 2 0.5897 6.275717542659997 5.717837632140725 1.016638173651902 0 0 1
598 0 1 -1.1794 4.734904310745525 8.01105897827549 3.664450403169881 0 1 1
2071 0 1 -1.1794 1.1167621218100758 6.71246481953879 1.469727582698805 0 -1 0
1241 0 2 0.5897 8.661853506856836 5.7486675964890965 2.0509323213967927 1 -1 0
1240 0 1 -1.1794 8.462446737770863 5.352734201118422 2.8930224565182106 1 -1 0
1038 0 2 0.5897 10.48237568452331 5.702763987898289 0.6132698829332595 0 -1 1
1037 0 2 0.5897 10.476674302277285 7.104753168169302 1.4800986661456361 0 -1 1
1036 0 1 -1.1794 10.969915522933151 6.498545764275325 0.9524419095065026 0 -1 1
1242 0 2 0.5897 9.28363241493214 5.3365686495699585 3.387124397991488 1 -1 0
1136 0 2 0.5897 7.059679829698892 5.725675775361026 3.975533546143065 0 1 1
1387 0 1 -1.1794 7.939513158729758 5.8778193721407295 0.4124896720562627 0 2 1
1388 0 2 0.5897 8.122393804105538 6.737101529128943 0.005380706913069133 0 2 1
1815 0 2 0.5897 5.588951719917533 8.26093426722922 0.553050443014646 0 -1 0
1814 0 2 0.5897 4.519897570216349 9.301281310344201 0.47241218238623056 0 -1 0
600 0 2 0.5897 4.718884176396076 8.222107106753462 2.720477026200943 0 1 1
54 0 2 0.5897 2.52142112730676 9.850916080448469 1.3044196318565906 0 1 1
1580 0 2 0.5897 6.176741116987918 10.55736838822748 1.361487561644305 0 -1 1
1813 0 1 -1.1794 5.194276803154403 8.963360946781785 1.065633606616211 0 -1 0
53 0 2 0.5897 1.8103253640051866 10.256280621285715 2.6403671206565797 0 1 1
52 0 1 -1.1794 1.7829197889874342 9.662732114230595 1.9222478587779628 0 1 1
1024 0 1 -1.1794 1.9085481766898849 11.613097686473772 3.7591585766789493 0 0 1
2 0 2 0.5897 6.205740807573416 11.915096782481381 3.038939417779999 0 -2 1
275 0 2 0.5897 8.928745651236133 8.310843061990804 3.352392268069618 0 0 0
1579 0 1 -1.1794 6.648123488115779 11.396817438415715 1.5323317676726405 0 -1 1
274 0 1 -1.1794 9.450066396717336 8.48841182778363 2.5519426139465495 0 0 0
1842 0 2 0.5897 10.707703083757197 9.370036779050514 3.468423109889064 0 -1 1
276 0 2 0.5897 8.871270088092464 8.896771647262222 1.8675961732703708 0 0 0
231 0 2 0.5897 9.230638121128775 11.505586266070601 2.4324654222984097 1 0 -1
1840 0 1 -1.1794 11.357602608741873 9.680524174920057 4.102878017307838 0 -1 1
841 0 1 -1.1794 8.781239523450063 10.145595709097657 0.380632458738125 0 0 -2
842 0 2 0.5897 8.005812929494091 10.766260695606581 0.6176527574206891 0 0 -2
1581 0 2 0.5897 6.319877569493389 12.138925046347698 0.9651286842676411 0 -1 1
1026 0 2 0.5897 1.8045726293292195 12.360479734468166 3.0819340083454354 0 0 1
1819 0 1 -1.1794 4.438092335806616 14.440092918302872 2.7770818084267552 0 1 2
2057 0 2 0.5897 5.0464566018149455 15.683392147777486 1.762898147375339 0 0 2
1821 0 2 0.5897 4.920416650325491 13.762266355700326 3.275147146513034 0 1 2
1324 0 1 -1.1794 1.28102254950719 13.408095716225203 1.8996768372177668 0 -2 1
584 0 2 0.5897 2.3685534820907246 13.094632431006767 0.34125060149756065 0 0 1
1820 0 2 0.5897 3.793536015154602 14.825067098462643 3.3507165978616005 0 1 2
1 0 1 -1.1794 5.831766610518522 12.514350238022095 3.7619026011804264 0 -2 1
1326 0 2 0.5897 1.2480428920524576 14.427733385429319 1.93476230753119 0 -2 1
2050 0 1 -1.1794 5.925407506289165 13.309074939830698 0.07417283339256134 0 0 0
585 0 2 0.5897 3.900039603723483 12.924365444084593 0.14736667382727853 0 0 1
2052 0 2 0.5897 6.382015399487025 13.906625731170246 0.6534640472535989 0 0 0
230 0 2 0.5897 9.43947457573579 12.15808134730614 3.795529265133618 1 0 -1
1232 0 2 0.5897 11.568922858040755 12.505008441995447 2.0397837577498845 1 0 0
229 0 1 -1.1794 9.541537519197117 12.259767910664442 2.848325675207302 1 0 -1
2064 0 2 0.5897 8.0946983071224 15.15358600690597 2.619356325367365 0 0 0
2063 0 2 0.5897 8.438512447204317 13.683591681504987 2.3946365920062513 0 0 0
2062 0 1 -1.1794 7.958115114140692 14.420069822288438 1.9938984970039946 0 0 0
1084 0 1 -1.1794 11.253159367688795 15.629768446647462 2.2215779948682446 0 -1 -1
1283 0 2 0.5897 9.116654831206347 14.682178197792151 0.5725073973030715 0 0 1
1086 0 2 0.5897 10.810260561970871 15.253841563246798 1.3962555103093257 0 -1 -1
375 0 2 0.5897 11.038819996409126 14.865083543749087 3.894974610634806 0 0 -1
1085 0 2 0.5897 12.148325197700018 15.29048756612989 2.0648778000392496 0 -1 -1
517 0 1 -1.1794 0.9434700337978822 19.903502736208747 2.3832415495076718 0 -2 0
518 0 2 0.5897 1.5732034596054056 19.753057977764943 1.6688949213358586 0 -2 0
519 0 2 0.5897 1.1590006497787186 19.081504016578826 2.9262460435833506 0 -2 0
2058 0 2 0.5897 5.940970415424767 16.251512728047963 0.6451096608318714 0 0 2
829 0 1 -1.1794 4.996092484835551 19.941541406018363 0.9006495914373162 0 1 -1
1585 0 1 -1.1794 1.1380931771777134 16.172079632134 1.8638747527093216 0 -1 1
2056 0 1 -1.1794 5.276621011313795 16.501462449328795 1.3073468502054002 0 0 2
830 0 2 0.5897 5.350225758177943 19.403435742038184 1.637185769789721 0 1 -1
1586 0 2 0.5897 1.7880395312235033 16.397822189175507 1.2000106958316439 0 -1 1
365 0 2 0.5897 5.820083635671419 17.731939357222767 2.554304988927055 0 0 2
364 0 1 -1.1794 6.149574116063081 18.51733669129696 2.9777795227997266 0 0 2
366 0 2 0.5897 5.65195355919364 18.552805179430337 3.8822939776045775 0 0 2
331 0 1 -1.1794 1.7151856708960413 17.874882016573345 3.9121884846025536 0 -2 1
333 0 2 0.5897 1.4673321067718397 17.178945356821814 3.2608112559519125 0 -2 1
764 0 2 0.5897 3.468364583127811 19.586437829515788 0.29799762419073855 0 1 0
12 0 2 0.5897 3.7911316092755167 16.893936574786295 0.3418432295892452 0 0 0
763 0 1 -1.1794 2.4970744013510506 19.49033576925314 0.13476696246220238 0 1 0
123 0 2 0.5897 8.557985537054137 19.697251694229394 1.3335442125029524 0 0 0
122 0 2 0.5897 10.177006686182002 19.612702749640537 1.133176824299754 0 0 0
121 0 1 -1.1794 9.28610151599076 19.50008808406124 0.7137332031829208 0 0 0
1888 0 1 -1.1794 8.116755818211075 16.614470522749503 3.7426443479571794 0 2 1
291 0 2 0.5897 7.392304480262524 19.585024498984186 3.3566967179411664 0 1 1
2067 0 2 0.5897 10.886338005206873 17.138767567486532 2.8655673024231794 0 1 1
2065 0 1 -1.1794 10.738257336859652 17.8689943581397 3.4650243370418226 0 1 1
2066 0 2 0.5897 10.809556436640495 18.733644133551604 3.1111056003507214 0 1 1
1889 0 2 0.5897 8.885865164231895 17.139276470728497 3.8301146907779313 0 2 1
1890 0 2 0.5897 7.401589584519982 17.256896499486146 3.5387026384082496 0 2 1
1333 0 1 -1.1794 11.992575885152073 19.700168519869223 1.5060534778546357 0 -2 0
1801 0 1 -1.1794 1.7645707007648066 3.785550881444778 4.540426848123084 0 3 -2
1803 0 2 0.5897 1.911610198624221 2.851182233512585 4.808523797052715 0 3 -2
1300 0 1 -1.1794 2.647868632630871 1.0332088575329021 4.2017198874294515 0 2 0
1107 0 2 0.5897 4.6358697203701045 2.904483422753349 5.301820426215286 0 1 0
1105 0 1 -1.1794 4.4610489829785624 3.200793064004558 6.197975958188752 0 1 0
1898 0 2 0.5897 4.663278848555272 1.2153327981590727 6.690185898043941 0 1 0
1897 0 1 -1.1794 4.654544565160281 0.298254370178406 6.80158726279658 0 1 0
881 0 2 0.5897 2.0511637947265564 0.4889393001752653 8.281973386052773 0 0 -2
362 0 2 0.5897 3.2011931649056784 2.8403866007060135 7.64444187708441 0 0 1
1106 0 2 0.5897 5.27415084141205 3.54607652916725 6.567450026279611 0 1 0
1899 0 2 0.5897 4.479393907926365 0.13841310110237257 7.7331462762304755 0 1 0
361 0 1 -1.1794 2.7255992759781957 2.3408001824987994 8.32747236959707 0 0 1
1343 0 2 0.5897 0.9934095070554005 1.0884136553925892 5.463044072226338 0 1 0
1239 0 2 0.5897 9.252562797149094 3.377438310703854 4.584874345825961 1 1 0
1831 0 1 -1.1794 10.452186114597223 0.40871949216034514 4.205190998781269 0 2 1
1238 0 2 0.5897 8.149845800995966 2.4164025737333246 5.288699873854453 1 1 0
1237 0 1 -1.1794 8.398924279857432 3.335537807771121 5.131652081355462 1 1 0
320 0 2 0.5897 11.153678096012792 2.07998911786232 6.888356171839432 0 0 1
2008 0 1 -1.1794 8.16786790150697 1.1829058389952973 6.8113790398388865 1 2 1
319 0 1 -1.1794 11.29393649947132 1.1854722628208834 7.102612142265094 0 0 1
2010 0 2 0.5897 9.138968464289938 1.0018437374962421 6.967871958450116 0 2 1
321 0 2 0.5897 11.760708338224868 1.147821135423618 7.972142416872657 0 0 1
2009 0 2 0.5897 7.785029151096897 0.26215622907981123 6.761427444738159 1 2 1
1345 0 1 -1.1794 11.027073877736822 3.8696800760143377 7.043425957599187 0 -1 1
96 0 2 0.5897 7.461180784315885 3.842536658481536 6.792520409078285 0 3 0
1832 0 2 0.5897 10.476757631933133 0.33899420107050166 5.192759645335277 0 2 1
2027 0 2 0.5897 7.377239753066857 1.4556793818652947 8.208605999068945 0 0 0
1137 0 2 0.5897 5.582153123761322 5.221325565934731 4.2320511252507975 0 1 1
1800 0 2 0.5897 3.1131245151325984 7.731134228033394 4.43336378802418 0 0 0
1135 0 1 -1.1794 6.274501576871423 5.84047668096453 4.566996878328456 0 1 1
1373 0 2 0.5897 3.4235657022622132 5.068143220911499 6.233425730837998 0 -1 1
1374 0 2 0.5897 2.914991646335028 6.451920793328134 5.8757984252538575 0 -1 1
1372 0 1 -1.1794 3.151169871694783 5.89171481048919 6.653548829330021 0 -1 1
1253 0 2 0.5897 1.6580104671265024 5.623417218136163 8.22582666497959 1 0 0
1098 0 2 0.5897 3.8936212548047062 6.136125871123041 8.33910432958757 0 0 1
536 0 2 0.5897 5.653559041541312 7.191308735508327 6.646112416659562 0 0 0
1798 0 1 -1.1794 2.3791735416748265 8.00127615847981 5.011240672691416 0 0 0
1799 0 2 0.5897 1.4978462483227173 7.83466444099377 4.585649221645746 0 0 0
535 0 1 -1.1794 6.4579359542438715 7.669625159239132 6.708670608954011 0 0 0
347 0 2 0.5897 11.303781865321945 5.678836682960196 4.350330152856004 0 1 -1
346 0 1 -1.1794 10.452714844831148 5.64419081349553 4.791167742034246 0 1 0
1346 0 2 0.5897 10.787968719024327 4.253604717094228 6.227569101944734 0 -1 1
95 0 2 0.5897 6.696888326657614 4.823431093503426 6.0581155285391155 0 3 0
1347 0 2 0.5897 11.763185926901638 4.361163548928312 7.373267965336771 0 -1 1
94 0 1 -1.1794 6.727785315566258 4.431903065158541 6.952693391155871 0 3 0
348 0 2 0.5897 10.03323352926166 6.483931295140371 4.722882382745746 0 1 -1
2054 0 2 0.5897 11.670159371327223 6.9732443353979034 8.113950579893896 0 1 1
254 0 2 0.5897 7.2617713904780885 5.805209268302345 8.24180630011307 0 -1 0
484 0 1 -1.1794 8.638031713572472 7.918354930512399 5.2783857446533125 1 0 0
485 0 2 0.5897 8.008404670812851 7.3765663757739155 5.69028054591726 1 0 0
537 0 2 0.5897 6.156501322523888 8.535609738260908 6.744723846453315 0 0 0
1575 0 2 0.5897 4.811106150533812 9.462319309134896 4.783923335657113 0 0 -2
1573 0 1 -1.1794 5.059928222133654 10.295695459496446 5.191229663349083 0 0 -2
1574 0 2 0.5897 4.777122003417989 10.129504914179584 6.090029375421659 0 0 -2
2089 0 1 -1.1794 3.4345180682963625 9.094381368125546 7.458788799813565 0 1 -2
2090 0 2 0.5897 2.974412442286493 8.73152413164197 6.680501948059766 0 1 -2
2091 0 2 0.5897 2.769545885137716 9.402653790647799 8.08726587049086 0 1 -2
3 0 2 0.5897 5.575163529471867 11.838760217105728 4.451191484725113 0 -2 1
760 0 1 -1.1794 6.97014551787134 10.258679580928927 7.829947603677803 0 1 2
2088 0 2 0.5897 6.951088870624911 10.519248671206316 4.889436504844779 0 0 0
2086 0 1 -1.1794 7.9119952043126744 10.58167294314864 5.2132126773371965 0 0 0
2045 0 2 0.5897 11.801900136145512 9.971325089791621 7.538329306526219 0 -2 1
486 0 2 0.5897 8.239855679671596 8.837564308396866 5.325404267164508 1 0 0
813 0 2 0.5897 9.688212639881408 8.579922641554472 6.725425274720777 0 -1 -1
811 0 1 -1.1794 10.207753018906422 8.861394540141346 7.442302192288179 0 -1 -1
2087 0 2 0.5897 7.830291936931604 10.756990452589527 6.172889740045353 0 0 0
812 0 2 0.5897 9.620456352493665 8.660010322986489 8.206092197400057 1 -1 -1
1295 0 2 0.5897 10.801627271221058 11.20975966169498 5.070878263378302 0 1 -1
1294 0 1 -1.1794 10.778515394542637 11.99389768809566 5.6096903150124025 0 1 -1
1296 0 2 0.5897 10.211004637999208 11.778038855688468 6.407493328585199 0 1 -1
631 0 1 -1.1794 9.50771260948571 11.591699449374742 7.954543915490982 0 -1 -1
632 0 2 0.5897 9.329095162024938 10.66985816720412 8.12520130435874 0 -1 -1
1841 0 2 0.5897 11.780111517554577 8.892889612109874 4.492125686382612 0 -1 1
1025 0 2 0.5897 2.511652870917925 12.084995115474804 4.409621610508656 0 0 1
1259 0 2 0.5897 2.169305704896194 12.731303147706406 7.355844149320838 1 0 0
2014 0 1 -1.1794 3.1839013046693796 12.868849560015017 5.824140805359864 1 -1 2
2016 0 2 0.5897 3.1537271803063565 13.815365187633805 5.816747138412821 1 -1 2
2104 0 1 -1.1794 2.6810042193435253 15.625768461708736 5.181589619471468 0 0 1
2015 0 2 0.5897 3.9185531564675014 12.74601254223797 6.402960012760038 1 -1 2
2106 0 2 0.5897 1.8772883155324782 15.110852545229399 4.948606632455839 0 1 1
1258 0 1 -1.1794 1.5608392031756124 12.796031130560195 8.12973727401105 1 0 0
1808 0 2 0.5897 5.587979184666044 15.593580995561284 6.44785005434565 0 -3 0
1264 0 1 -1.1794 4.842869446552457 13.697255459472347 8.146012554066273 0 -1 0
1383 0 2 0.5897 6.60025788712073 13.739081608799243 8.116168419155542 0 0 -1
1839 0 2 0.5897 7.006137037869964 13.859621380612973 4.45735031112492 0 0 1
1837 0 1 -1.1794 7.170062535215821 14.51908887171853 5.160835347719098 0 0 1
1838 0 2 0.5897 7.3091338449318854 15.323339487853715 4.667645940551957 0 0 1
633 0 2 0.5897 8.636580599201752 12.030155175796322 8.062037527961033 0 -1 -1
374 0 2 0.5897 10.945213949577242 13.628042388596974 5.047227429697602 0 0 -1
260 0 2 0.5897 11.69786841628955 15.227002944073535 6.567156341015671 0 -1 0
1382 0 2 0.5897 7.328978198409593 14.26873723608173 6.890403280422134 0 0 -1
259 0 1 -1.1794 11.745923880685632 15.46649456564653 7.495021048752001 0 -1 0
1381 0 1 -1.1794 7.519579151302735 13.94765148949414 7.788630355331566 0 0 -1
373 0 1 -1.1794 11.406520238468474 14.48490237630993 4.746158879658228 0 0 -1
261 0 2 0.5897 10.858295211369521 15.457121984859223 7.829780243979299 0 -1 0
2105 0 2 0.5897 2.2913025479165716 16.358103773149153 5.648503034568331 0 0 1
387 0 2 0.5897 3.611516076874903 18.311965227053328 4.275525529934271 0 0 1
385 0 1 -1.1794 4.413255656632861 18.379138091396975 4.842785813622663 0 0 1
386 0 2 0.5897 4.2724897237833535 19.179042777986872 5.465880749657922 0 0 1
1809 0 2 0.5897 4.873706409086004 16.898314098464958 5.7510806660086935 0 -3 0
1807 0 1 -1.1794 5.254583699299506 16.4971309826502 6.570869960614994 0 -3 0
1090 0 1 -1.1794 2.401059693747174 17.600847247738045 7.421468792699373 0 -1 -1
1091 0 2 0.5897 3.319450676732157 17.498405780451378 7.218749866971988 0 -1 -1
882 0 2 0.5897 1.8763371831563198 19.024869200077354 8.182477670140939 0 -1 -2
1092 0 2 0.5897 2.198592468215244 16.92326953674869 8.061521569106594 0 -1 -1
332 0 2 0.5897 0.9767810434713613 17.794788117282618 4.58031569801239 0 -2 1
2145 0 2 0.5897 6.591653650469352 18.049314283593603 6.543158420937913 0 1 1
311 0 2 0.5897 10.906251741994415 18.59785695653134 6.925616982116189 0 0 0
312 0 2 0.5897 10.62077424970895 18.155180297209817 5.439280451790779 0 0 0
310 0 1 -1.1794 10.2218212329924 18.490859816923525 6.28342839622765 0 0 0
2144 0 2 0.5897 8.278348477803668 18.147378238061034 6.441379175189803 0 1 1
2143 0 1 -1.1794 7.426736503033612 18.496675875005145 6.75851496072712 0 1 1
269 0 2 0.5897 7.811334207247689 18.53344627820643 8.336066794529982 0 -1 -2
363 0 2 0.5897 3.439168528165846 2.0521763889390985 8.951476045335276 0 0 1
1115 0 2 0.5897 2.8526506815158563 0.6099103264709128 11.656474591136726 0 1 -2
1805 0 2 0.5897 4.277215644043771 2.2407814290666095 11.518033946339743 0 0 1
1804 0 1 -1.1794 3.7713696623021513 1.9254498371685167 12.284546177077386 0 0 1
1529 0 2 0.5897 5.646693463294016 2.837290590960211 9.541449860629863 0 1 2
282 0 2 0.5897 1.3392482948747717 2.9400050219865363 9.310346086699541 0 1 0
1528 0 1 -1.1794 4.943619181186872 3.3580897391331117 9.889556679641428 0 1 2
1312 0 1 -1.1794 4.445419749561616 0.2663541506821013 9.602042094296051 0 1 1
1314 0 2 0.5897 5.399093312632961 0.5243041804974727 9.545952555370006 0 1 1
2026 0 1 -1.1794 6.912679805754695 1.6583377298362922 9.038675164357478 0 0 0
2028 0 2 0.5897 7.42198682456537 1.3000373618109613 9.79913258437514 0 0 0
1390 0 1 -1.1794 11.865639778864406 3.5944496551170526 11.927580486057929 0 1 1
1391 0 2 0.5897 10.900827967405728 3.457847973619558 11.69303469537803 0 1 1
61 0 1 -1.1794 9.275000515553508 2.462973784276653 10.991288377542189 0 1 1
62 0 2 0.5897 9.074348234521871 3.032256385896563 10.216341665880357 0 1 1
63 0 2 0.5897 9.501662903808034 1.5593028138223504 10.774720235367365 0 1 1
2111 0 2 0.5897 7.647517787752761 2.762487152993501 11.95515660782378 0 0 0
2110 0 1 -1.1794 6.788968670204408 2.2969218162117575 12.07468736914981 0 0 0
611 0 2 0.5897 6.709240529422529 0.4982538131887254 11.797125380704015 0 0 0
1252 0 1 -1.1794 1.0619048448471242 5.977597199042571 8.939978870998031 1 0 0
1097 0 2 0.5897 5.239972998784406 6.537259143141969 9.053985340606697 0 0 1
1096 0 1 -1.1794 4.293055682138361 6.282849985957033 9.208920383977537 0 0 1
1818 0 2 0.5897 1.8849183369330615 6.8076511043056245 10.35755735056849 0 0 0
1530 0 2 0.5897 5.025666847707444 4.210830373813834 9.491836411409839 0 1 2
1490 0 2 0.5897 5.417672676518135 4.309922305642375 11.57617282606786 1 -1 -1
1816 0 1 -1.1794 2.225100583954566 7.2917398197460175 11.116945123733064 0 0 0
1489 0 1 -1.1794 5.434924459855806 4.7767175680822485 12.441644680242662 1 -1 -1
1254 0 2 0.5897 0.8304877830166205 5.155919959674441 9.454494405836753 1 0 0
1620 0 2 0.5897 5.752310795654881 6.551995663166574 12.059802033317762 0 -1 0
1817 0 2 0.5897 2.8707542603634373 7.900310066451214 10.745587205500387 0 0 0
1618 0 1 -1.1794 5.957288626939572 7.482178886498824 12.180151173849506 0 -1 0
863 0 2 0.5897 10.031683102386005 4.298492115534536 8.525977284311164 0 0 0
862 0 1 -1.1794 9.670052078267766 4.640552278561724 9.334137693865797 0 0 0
2053 0 1 -1.1794 11.666554311994863 6.748759027108315 9.06090183896588 0 1 1
864 0 2 0.5897 10.079354551337586 5.512306375231267 9.381391734242277 0 0 0
250 0 1 -1.1794 8.517368653458082 6.751238750869853 11.613189085589418 1 2 -1
251 0 2 0.5897 9.359233266159807 7.148556532920243 11.55987017424028 1 2 -1
253 0 1 -1.1794 7.24676487240118 6.259460316205313 9.12969705663913 0 -1 0
252 0 2 0.5897 8.597151341857309 6.066767577467029 12.33873414293388 1 2 -1
255 0 2 0.5897 7.906166135015882 5.789958774033168 9.604726417381643 0 -1 0
37 0 1 -1.1794 11.15354248103044 7.9393404053664804 11.283214199868143 0 0 0
38 0 2 0.5897 11.361324997499292 7.8580106460813015 10.340324875884146 0 0 0
801 0 2 0.5897 11.726487843513569 6.540823443947655 12.074586475372113 0 0 -1
104 0 2 0.5897 7.805833577839048 7.858929617977815 9.366139870783535 0 -1 -1
1619 0 2 0.5897 6.925701599992614 7.49609140385382 12.11707510979213 0 -1 0
2055 0 2 0.5897 12.156133418145066 5.929914468761991 9.157277669132805 0 1 0
762 0 2 0.5897 6.5243638502815156 10.865133625268253 8.423601791462241 0 1 2
1053 0 2 0.5897 4.887154327526395 8.53228354527229 11.091612114264347 0 0 1
1052 0 2 0.5897 4.5146569325914925 8.582536606638856 9.629712912859056 0 0 1
1051 0 1 -1.1794 4.368715093993481 9.051972557099875 10.46514168773369 0 0 1
359 0 2 0.5897 4.798845946630399 10.675954289362247 9.772750982368875 0 2 1
358 0 1 -1.1794 5.156814522967562 11.570866395817779 9.61087894807338 0 2 1
360 0 2 0.5897 5.32315159858189 11.89665637840056 10.519620931637315 0 2 1
604 0 1 -1.1794 2.093980386857714 10.405936989155764 11.761844125645004 0 2 0
606 0 2 0.5897 2.703570874808358 10.8620431582092 11.212611541678912 0 2 0
582 0 2 0.5897 1.1893319805183602 9.825177828977099 10.219637151436343 0 -1 0
1009 0 1 -1.1794 5.973856549416205 11.939064114255075 12.362141373570363 0 0 0
580 0 1 -1.1794 1.2011685976115993 9.766679893334615 9.224622373788291 0 -1 0
1260 0 2 0.5897 1.4481705058198782 11.82273105718166 8.45714244036263 1 0 0
605 0 2 0.5897 2.542165373440786 9.8732924193065 12.441290040510662 0 2 0
761 0 2 0.5897 7.34917146490072 9.627398204085129 8.406517182039991 0 1 2
103 0 1 -1.1794 8.320451750507786 8.702765059338622 9.392090639231132 0 -1 -1
105 0 2 0.5897 8.217306864285934 8.998434136713808 10.299625593769859 0 -1 -1
39 0 2 0.5897 10.985109912844878 8.858659851898866 11.50680932996639 0 0 0
1764 0 2 0.5897 7.395068476522841 10.937452843079237 11.869588604755045 1 -1 -1
1762 0 1 -1.1794 8.097996193473518 10.309135362788199 11.713671770623884 1 -1 -1
1763 0 2 0.5897 8.859462219950085 10.850159850528124 11.599529984561228 1 -1 -1
1348 0 1 -1.1794 10.719158877390672 10.509417432640811 11.757298780453436 0 1 -1
1349 0 2 0.5897 11.317497834271615 11.073676037797803 11.25162971870833 0 1 -1
562 0 1 -1.1794 1.563359688809322 15.548090301837265 9.106284618215964 0 -1 -2
1265 0 2 0.5897 4.8096274221291875 12.977054332799494 8.831128753009928 0 -1 0
563 0 2 0.5897 1.7875349995345446 14.653208767408312 8.881949402702007 0 -1 -2
1266 0 2 0.5897 4.513168497531407 14.526918433240075 8.6170492102954 0 -1 0
1566 0 2 0.5897 3.077910236506572 14.04141993678343 11.264852388306602 0 1 -1
1565 0 2 0.5897 1.5186523198106623 13.845054690159062 11.190535987434414 0 1 -1
1564 0 1 -1.1794 2.350129944785876 13.44704604718294 11.585290815445088 0 1 -1
884 0 2 0.5897 5.301329757998734 14.964311811225741 11.053686724732877 0 -1 -1
883 0 1 -1.1794 4.54463386474687 15.21318574389045 10.4694453866187 0 -1 -1
564 0 2 0.5897 1.880683479012015 15.73463174578292 9.974638874856218 0 -1 -2
528 0 2 0.5897 10.515730338928655 12.347227293875585 9.198393485379624 0 0 0
526 0 1 -1.1794 11.170778531326716 12.638978923110455 9.904999469882918 0 0 0
118 0 1 -1.1794 6.759730490879961 14.847434368612728 12.2853039269686 0 -1 0
120 0 2 0.5897 7.5179239303352094 14.570876580710511 11.767472826931506 0 -1 0
529 0 1 -1.1794 11.417069655791197 15.566438871218388 11.009555286673718 0 0 -1
530 0 2 0.5897 10.690220411909705 15.396003614773093 10.374258531885603 0 0 0
1064 0 2 0.5897 8.647886506337759 14.945346569445514 8.68994491064298 0 1 1
1063 0 1 -1.1794 9.359926799480363 15.624665857820098 8.858409952627357 0 1 1
839 0 2 0.5897 9.963981756890984 12.965561182629664 11.380558552698773 0 0 0
838 0 1 -1.1794 9.197057698365878 13.025140701074159 11.990052651347984 0 0 0
527 0 2 0.5897 11.836793137806094 13.113287133572195 9.456925638225707 0 0 0
880 0 1 -1.1794 1.474135768228416 19.8090588793274 8.535833726323288 0 -1 -2
1114 0 1 -1.1794 2.1377651809349443 20.033590520395798 11.474361640624279 0 0 -2
1116 0 2 0.5897 2.2812626145867227 19.80754324451294 10.572397866331869 0 0 -2
885 0 2 0.5897 4.666501270432075 16.144704626646778 10.318154767951151 0 -1 -1
767 0 2 0.5897 2.205458155023848 16.389316910564553 12.291837348549873 0 -1 0
1313 0 2 0.5897 4.470040936041389 19.476716670976487 10.14879374767621 0 0 1
246 0 2 0.5897 5.339176756654982 18.166468908405246 11.541764292135237 1 1 0
244 0 1 -1.1794 4.671613142239316 18.014969534983482 10.90991302383468 1 0 0
245 0 2 0.5897 3.863943958825507 17.657720299007813 11.319400448762499 1 0 0
766 0 1 -1.1794 2.1965171709794946 16.915991771378156 11.459591867730957 0 -1 0
768 0 2 0.5897 1.4337165836405548 17.483326969348195 11.670598175308971 0 -1 0
531 0 2 0.5897 11.16002231070024 16.30254591094195 11.597407273455595 0 0 0
1143 0 2 0.5897 11.322144481067324 19.996107148526878 10.256875333648056 0 0 0
610 0 1 -1.1794 6.671362291207559 19.571840077168456 11.597743162710344 0 -1 0
1065 0 2 0.5897 8.93004978057819 16.426975270474053 9.137212553362959 0 1 1
1141 0 1 -1.1794 10.4290971403776 19.910304681768864 10.622086201208216 0 0 0
1142 0 2 0.5897 9.893447330984847 19.392655166870245 10.008093141404087 0 0 0
270 0 2 0.5897 7.784997210439823 18.694233532144334 9.955175414316395 0 -1 -2
268 0 1 -1.1794 8.227228422934761 18.311112502272522 9.222917511256185 0 -1 -2
612 0 2 0.5897 6.919854406580737 19.210467374908337 12.479554833249685 0 -1 0
267 0 2 0.5897 10.651323390154504 18.56485117734264 11.873419661886809 0 1 -1
265 0 1 -1.1794 10.569215259890635 17.76478145218025 12.392875034190029 0 1 -1
1806 0 2 0.5897 4.37408526769881 1.3530873138578141 12.836279275087676 0 0 1
2099 0 2 0.5897 2.805141059165617 2.878924135121558 13.359526801299928 0 1 -1
1653 0 2 0.5897 1.8859062979959302 2.622742389345335 15.522456018795951 0 2 -1
1379 0 2 0.5897 4.1232822333265915 1.16488250751597 16.001492838544724 0 1 1
1075 0 1 -1.1794 4.474405379320013 0.5093514082205591 14.400528521279437 0 0 1
143 0 2 0.5897 5.6547622199052565 3.6303372687536686 15.033048188354362 0 0 0
2098 0 1 -1.1794 2.2798297448120217 3.345191074190911 14.006499786589027 0 1 -1
2112 0 2 0.5897 6.491776793665601 2.681873046199407 12.911492087286337 0 0 0
2120 0 2 0.5897 1.2065407686914469 0.5778860944881484 15.891938173155566 0 2 -1
142 0 1 -1.1794 6.289619593837973 2.9061325823377437 14.896403405973077 0 0 0
1077 0 2 0.5897 5.414246810544244 0.36215811641955054 14.658794660680677 0 0 1
1651 0 1 -1.1794 1.3126357223758542 2.4142229849071297 16.309245739392182 0 2 -1
1577 0 2 0.5897 10.015286829300589 0.43523874481931674 12.749546323386705 0 -1 0
1104 0 2 0.5897 11.041831797081715 3.039155141207974 14.877243956416553 0 3 0
1278 0 2 0.5897 9.117736116919351 1.9776140943392146 14.098318076219494 0 0 -1
1276 0 1 -1.1794 9.085492300840341 2.804630184560403 14.603867378040487 0 0 -1
144 0 2 0.5897 7.11607748846131 3.2846983596846204 15.157011226245746 0 0 0
1277 0 2 0.5897 8.937745241428965 3.5888386086953603 14.062336674900216 0 0 -1
278 0 2 0.5897 7.057209674864095 1.1174569557793197 15.061131866274541 0 2 -1
1576 0 1 -1.1794 9.822956766934253 0.45889080135358384 13.662803295110391 0 -1 0
513 0 2 0.5897 9.863791237122062 1.899154608193182 16.162773333177228 0 0 2
277 0 1 -1.1794 7.311900325394936 0.19555183045009508 14.866581451474719 0 2 -1
1320 0 2 0.5897 11.786076537957587 0.7296923070699854 15.658227147183954 0 1 -1
1102 0 1 -1.1794 11.979506413645618 3.399820796487841 15.046438877012571 0 3 0
770 0 2 0.5897 2.675955696675985 6.645353862670239 12.651865371301128 0 1 0
1491 0 2 0.5897 4.519838750590179 4.993237170931528 12.692723847940128 1 -1 -1
2100 0 2 0.5897 2.862788898168089 4.024724293211942 14.351586447838532 0 1 -1
1864 0 1 -1.1794 1.2325677852368053 6.098602634085533 15.511510472105096 0 0 0
769 0 1 -1.1794 3.039167931890264 6.2350157946296605 13.455853848706363 0 1 0
1865 0 2 0.5897 1.351110135484391 5.557866790951203 16.340297162623333 0 0 0
1117 0 1 -1.1794 4.155940273141669 4.60576750607262 15.396417926060128 0 1 0
1118 0 2 0.5897 4.587380833528424 5.438163561981676 15.16893591319763 0 1 0
771 0 2 0.5897 2.3705896734719905 6.182799741473251 14.179437848514505 0 1 0
1867 0 1 -1.1794 5.536825411621816 7.302750402506794 15.07745090945457 0 0 -1
1869 0 2 0.5897 5.78679201199244 7.516134408648841 14.160277084858203 0 0 -1
1119 0 2 0.5897 4.215104959311343 4.592143969627053 16.368026320694987 0 1 0
1868 0 2 0.5897 6.334809271887006 6.853615372407121 15.490432174720885 0 0 0
2033 0 2 0.5897 0.9173630631203175 7.940808866514886 16.230033631558747 0 0 -1
32 0 2 0.5897 10.94379220109583 4.519821997657394 16.398588342804555 0 1 1
1035 0 2 0.5897 10.856090779870764 6.8175706627193335 14.029885236256082 0 -3 -1
1400 0 2 0.5897 6.985592127439826 4.858288128086301 13.26995507835629 0 1 1