LAMMPS data file via write_data, version 23 Jun 2022, timestep = 11365000

2268 atoms
2 atom types

0.4769595367794963 46.97373946323121 xlo xhi
0 20.047001 ylo yhi
0 20.857 zlo zhi

Masses

1 1.008
2 15.999

Atoms # full

1389 0 2 0.5897 4.4155156731559195 2.8285487026848655 1.1300564701942852 0 1 1
811 0 1 -1.1794 6.133666191953426 2.3482837583763665 0.2697748145589404 0 -1 0
1880 0 2 0.5897 2.2435211611177586 2.5966482453909463 2.5691008623189946 0 0 0
812 0 2 0.5897 5.883985429865042 1.4219133675899898 0.23220882084650735 1 -1 0
1388 0 2 0.5897 3.0906962986303292 3.291181484156767 0.5338035925829716 0 1 1
1764 0 2 0.5897 5.437345154687458 1.0520582164662522 2.888125379465024 1 0 1
1387 0 1 -1.1794 3.7286635698316326 3.477187596440545 1.2624290810404801 0 1 1
2036 0 2 0.5897 3.3459219266107327 0.3682250227740248 1.4461870739495342 0 -2 1
2035 0 1 -1.1794 2.6415003992070236 0.20147069982801477 0.7785209404470319 0 -2 1
1762 0 1 -1.1794 4.779111710710246 0.4804614199089322 2.419565929187446 1 0 1
1879 0 1 -1.1794 2.041449668483761 2.6792293483518788 3.508099174253883 0 0 0
1881 0 2 0.5897 1.0874333945295396 2.5654142539220546 3.5408065722314537 0 0 0
813 0 2 0.5897 7.077550114070205 2.309706524561684 0.42334771380285613 0 -1 0
1034 0 2 0.5897 9.157107117075231 1.6172372581922208 1.1033055238924074 0 -2 -1
1033 0 1 -1.1794 8.783457791352967 2.5132866541554235 1.1974671738732527 0 -2 -1
632 0 2 0.5897 10.662167076077646 0.23459650621553227 0.447032836144766 0 0 0
631 0 1 -1.1794 9.723493183791035 0.015413684928662115 0.3833574779077882 0 0 0
258 0 2 0.5897 10.231706071478703 2.6941272057244845 2.932439260587458 0 0 0
256 0 1 -1.1794 11.084321141727004 2.9891513882684326 3.3298151225886783 0 0 0
1035 0 2 0.5897 9.397667904148346 3.069802956396998 0.6825093671628673 0 -2 -1
257 0 2 0.5897 11.431697044439028 2.1537357008969003 3.801491763914885 0 0 0
2143 0 1 -1.1794 6.845845895993011 2.050648511268952 3.6350410046886097 0 2 0
2144 0 2 0.5897 6.987851012342141 2.9663962982882532 3.4763145456906472 0 2 0
2102 0 2 0.5897 8.223306634918746 0.9098759943769559 3.698001434092641 0 0 -1
2101 0 1 -1.1794 8.894052665016375 0.24156478276450674 4.088245505147582 0 0 -1
1638 0 2 0.5897 3.179303139223555 4.99514255102941 2.1623757838476436 0 0 1
1636 0 1 -1.1794 2.757709079209823 5.869375731792315 2.3594005864934204 0 0 1
1637 0 2 0.5897 1.9725826912184987 5.64960893521923 2.8618497080206695 0 0 1
2136 0 2 0.5897 3.5017429819236936 7.6546119540392805 1.499146462728586 0 0 0
1589 0 2 0.5897 4.278550466407742 6.6704440486329855 3.6211890951672916 0 -1 1
1588 0 1 -1.1794 5.2393870192939325 6.974684377489475 3.7281188847333326 0 -1 1
1590 0 2 0.5897 5.671970173374553 6.1822498431875434 3.3015560296301936 0 -1 2
2064 0 2 0.5897 6.232517623034766 4.3170548753561535 1.67878170661987 0 0 0
2062 0 1 -1.1794 6.588255330523793 4.67785237962795 2.501226978716453 0 0 0
2063 0 2 0.5897 7.466323918353088 5.076378994822427 2.3468279665190863 0 0 0
380 0 2 0.5897 9.343047960595948 5.848854034020382 1.8375674603372503 0 0 0
381 0 2 0.5897 9.063689459006392 6.907530191401097 2.8391681920738407 0 0 0
379 0 1 -1.1794 9.058394111929985 5.9526194879229095 2.7548509161936976 0 0 0
2095 0 1 -1.1794 10.038571213002637 5.895203584535034 0.0752875815629845 0 0 2
887 0 2 0.5897 11.541011293375037 5.204623414915513 1.024839745905366 0 0 0
888 0 2 0.5897 12.01460533427204 4.316417534900393 2.2169732530568127 0 0 0
772 0 1 -1.1794 11.958386460414328 7.810828271565114 3.1457751461524004 0 1 -1
774 0 2 0.5897 12.098953544252677 6.870271238872327 3.4152354205858497 0 1 -1
2134 0 1 -1.1794 3.7106379210414073 8.165740381978743 0.6764707082958089 0 0 0
2135 0 2 0.5897 4.6494427086684675 8.101289929854397 0.5927279234642847 0 0 0
1825 0 1 -1.1794 2.4422873247840045 10.1802025817503 1.8104253700467494 0 0 -1
1827 0 2 0.5897 2.9156793470207725 9.792838685872223 1.0190238893548593 0 0 -1
1826 0 2 0.5897 2.458633185259294 11.116267940673477 1.556203098049281 0 0 -1
1026 0 2 0.5897 1.3234021052614184 9.296048641401331 3.3160115583453535 0 0 1
1325 0 2 0.5897 3.6924418407701136 10.50888723296885 3.0794864111328653 0 -2 1
1024 0 1 -1.1794 0.6388087072623987 9.134012084734174 3.919172776602195 0 0 1
1326 0 2 0.5897 5.109964884048233 10.085627710114977 3.5903458766749123 0 -2 1
1324 0 1 -1.1794 4.283915703084313 10.461179088355651 3.869479835775061 0 -2 1
1868 0 2 0.5897 6.473567550731121 8.501572191991333 3.1651992546943126 0 0 0
283 0 1 -1.1794 6.487846102856788 11.08394661817976 0.905872447805871 0 0 0
284 0 2 0.5897 6.565170064651233 10.50539552163521 1.6528421235105064 0 0 0
1867 0 1 -1.1794 6.932373082114551 9.343573328040158 2.994027751385253 0 0 -1
1264 0 1 -1.1794 9.39475121984171 9.911507033967183 1.2280137698279294 0 -1 1
1779 0 2 0.5897 10.210887636288776 8.215089789045221 3.7461684786795715 0 0 0
1265 0 2 0.5897 10.064392895980367 9.342111656712808 0.7943542369587793 0 -1 1
18 0 2 0.5897 9.103077571231633 11.713549017831106 2.469117999907787 0 0 0
1266 0 2 0.5897 8.489780327496616 9.543231749275447 1.3217255602053781 0 -1 1
1869 0 2 0.5897 7.838532964522855 9.241052721759566 3.3972865295719976 0 0 -1
285 0 2 0.5897 6.545921092788094 12.01047950004301 1.162749031379978 0 0 0
1777 0 1 -1.1794 9.30892084253884 8.389491511071789 4.127673391507685 0 0 0
1818 0 2 0.5897 9.367495144519484 11.64855087023583 0.23112682111556757 0 -1 0
2038 0 1 -1.1794 6.555781456819448 8.121549949887708 0.37749279587458495 0 2 1
1290 0 2 0.5897 12.098221940559553 8.371224028683661 0.003720611794523876 0 1 1
885 0 2 0.5897 4.838927803131204 15.502842436471365 3.1453738230288386 0 -1 0
613 0 1 -1.1794 2.645591602312743 12.964435559276033 1.7294458417598777 0 0 -1
614 0 2 0.5897 2.338018303444268 13.11895916691203 0.8355124300152539 0 0 -1
615 0 2 0.5897 3.1105450648678192 13.83343194102895 1.9529079211784288 0 0 -1
273 0 2 0.5897 1.0992626644643955 13.02399830699481 2.7491618552013097 0 0 2
883 0 1 -1.1794 4.551992998000701 14.642695035504431 2.9440936288574546 0 -1 0
884 0 2 0.5897 4.506248733071044 14.134065899212814 3.7669756200171323 0 -1 0
269 0 2 0.5897 5.709570742470842 14.065363130597493 1.5844140696537807 0 -1 -1
736 0 1 -1.1794 2.3480997559369374 15.350712955419572 0.13534056854013374 1 0 0
737 0 2 0.5897 1.447166569268418 15.074043409432411 0.0934907428092201 1 0 0
16 0 1 -1.1794 9.51976494445025 12.372534897166867 3.0739916720012457 0 0 0
17 0 2 0.5897 8.683646780143594 12.7152351028045 3.5034040840362524 0 0 0
268 0 1 -1.1794 6.398506393923381 13.676088976959642 1.0408678783603236 0 -1 -1
270 0 2 0.5897 7.189349439499692 14.261119574453147 1.0300446466872302 0 -1 -1
526 0 1 -1.1794 8.670786687330573 14.990033416825062 1.028959559844358 0 -1 0
1374 0 2 0.5897 10.975003641287087 13.197257229396849 2.519088719645201 0 -1 1
528 0 2 0.5897 8.905035129873614 15.128337170453218 1.9776813016855737 0 -1 0
527 0 2 0.5897 9.093442043399218 14.167692812195464 0.7424418044303669 0 -1 0
1097 0 2 0.5897 11.673361989046112 15.513703954477702 1.886989094150962 0 -1 1
1372 0 1 -1.1794 11.699106670534432 13.809106012799328 2.2693321875145003 0 -1 1
1282 0 1 -1.1794 9.571238675602709 15.407681834750667 3.6687462389624974 0 -1 0
867 0 2 0.5897 6.677659106804895 13.361135172049302 3.4904982290751745 0 1 0
2078 0 2 0.5897 12.053425661007784 13.005909521128103 0.7920814171077346 0 -1 -1
65 0 2 0.5897 1.427232702721112 19.778286718538123 2.450626626380921 0 -1 0
738 0 2 0.5897 2.366011678872743 16.17835731365342 0.6040097539946145 1 0 0
1763 0 2 0.5897 4.698299728193428 19.843144714043405 3.0910911973818336 1 -1 1
64 0 1 -1.1794 0.9303247031456376 19.299987004604944 3.1037870739135376 0 -1 0
1114 0 1 -1.1794 5.072574566103446 17.504299847015776 3.080151266839183 0 0 -1
1116 0 2 0.5897 4.199119928320089 17.713528824613206 2.688744606403939 0 0 -1
842 0 2 0.5897 1.9245126271294146 17.875222495793484 2.0475550686551323 0 0 -1
841 0 1 -1.1794 2.76966629767358 17.681333117539175 1.6000554009460695 0 0 -1
843 0 2 0.5897 2.876472159752403 18.475874965159186 1.0189995230523914 0 0 -1
1115 0 2 0.5897 4.916869132817304 17.58411033919009 4.049608007645404 0 0 -1
1542 0 2 0.5897 6.205183619327442 19.321901528155337 0.3404117265090538 0 -1 1
1037 0 2 0.5897 0.6913471351942964 16.054976788295008 3.5840027258748535 0 -2 0
633 0 2 0.5897 9.677691499545897 19.328435561699035 0.9868268309972602 0 -1 0
2082 0 2 0.5897 6.38359467968631 17.933994051096445 1.9129756150146882 0 -1 0
2103 0 2 0.5897 8.996826758894702 19.57458541052047 3.4133804546550786 0 -1 -1
2081 0 2 0.5897 7.036959935208195 17.28654843498537 0.6608309345145725 0 -1 0
2080 0 1 -1.1794 7.179448638762636 17.962058114577086 1.3163083340630128 0 -1 0
2160 0 2 0.5897 9.67980021103288 17.202760290346383 2.9633168088390875 0 0 1
2159 0 2 0.5897 8.545273486941468 17.89933971101067 2.088084065093019 0 0 1
2158 0 1 -1.1794 9.45136112492633 17.992303911059675 2.470200595403968 0 0 1
1096 0 1 -1.1794 11.837693532834765 16.406078388019154 1.5110783338125813 0 -1 1
1098 0 2 0.5897 11.145604954823298 16.620664993391877 0.870915970791049 0 -1 1
507 0 2 0.5897 3.0679899100252643 1.6063634699880085 4.618956744262004 0 0 0
14 0 2 0.5897 4.92510078173312 1.5803851886690532 5.845224664221626 0 -1 -1
107 0 2 0.5897 2.3058129727365846 1.6975557182894223 6.861292928485916 0 0 0
505 0 1 -1.1794 3.296237384408908 1.0409697963928028 5.373774400258054 0 0 0
13 0 1 -1.1794 5.638798161338071 2.1905116121045305 6.052867211653281 0 -1 -1
506 0 2 0.5897 2.7690287230388786 0.18717677415693357 5.270738686154174 0 0 0
252 0 2 0.5897 4.895879202178575 3.372160994375102 7.241538096360706 1 0 0
106 0 1 -1.1794 1.9593312538082606 2.205277916787981 7.661439140650512 0 0 0
15 0 2 0.5897 6.173442051509199 1.8410521945863974 6.817362565911098 0 -1 -1
1286 0 2 0.5897 6.258985487954839 0.03936218942398067 5.0823321316523264 0 1 2
2145 0 2 0.5897 6.500625350888815 2.1334715278448453 4.534047915005957 0 2 0
92 0 2 0.5897 11.172534608806812 1.1318425149857532 5.9957091618959515 0 1 0
91 0 1 -1.1794 11.38641624593488 0.7463867059472763 5.137050371988609 0 1 0
93 0 2 0.5897 10.59097368603592 0.5452980357375735 4.6910550611519835 0 1 0
771 0 2 0.5897 10.338000373399979 3.011971635682121 7.455134207154151 0 0 1
770 0 2 0.5897 8.847804084474014 2.7979594453127365 7.7100536722965325 0 0 1
634 0 1 -1.1794 11.889983470537326 2.288590170481362 7.443549059230431 0 1 -1
769 0 1 -1.1794 9.481392439917258 3.4749208446277535 7.424091893888592 0 0 1
1567 0 1 -1.1794 7.515296333232426 1.8733364063873346 8.10540628074002 0 -1 0
2156 0 2 0.5897 2.640593030985758 4.078829750110393 4.869868120445125 0 0 -1
2155 0 1 -1.1794 2.836147508287435 4.6769866315197755 5.5860055211409145 0 0 -1
2157 0 2 0.5897 2.9227430561797956 4.140194300161798 6.37071107195296 0 0 -1
77 0 2 0.5897 1.8361440503536395 6.207242320026029 5.946649914297052 0 1 0
76 0 1 -1.1794 1.4788430769633805 7.074242259139514 5.7853857220045795 0 1 0
2123 0 2 0.5897 5.665344746188741 5.81358382683696 5.4137444226321145 0 0 0
78 0 2 0.5897 0.8358451440560309 7.308741172567001 6.414430805291752 0 1 0
251 0 2 0.5897 5.188882830184975 4.887056579624834 7.466707666891051 1 0 0
293 0 2 0.5897 2.4776916753066556 4.181949208770717 8.330230101854564 0 1 0
250 0 1 -1.1794 4.813074554744468 4.10552047695144 7.885243507786642 1 0 0
2122 0 1 -1.1794 6.3408337449698635 5.74152806875707 6.130760238018974 0 0 0
2124 0 2 0.5897 6.939872374786027 5.054353599607283 5.887996718689841 0 0 0
729 0 2 0.5897 8.968638001721633 4.157072157531176 5.806079639604785 1 0 0
728 0 2 0.5897 8.861508511965734 5.067693700862193 4.522391272747686 1 0 0
1485 0 2 0.5897 11.407373898397159 4.908938575145077 4.265343339482807 1 0 -1
727 0 1 -1.1794 8.411355095682415 4.47355355906747 5.107180153332318 1 0 0
1484 0 2 0.5897 11.09522080291268 6.088472022538834 5.383969488768722 1 0 -1
1820 0 2 0.5897 10.13068691880716 6.669613267984025 7.291984424579577 0 1 1
1483 0 1 -1.1794 11.797045653460948 5.5869509934278945 4.8287738026093585 1 0 -1
1819 0 1 -1.1794 10.371728782717271 7.302168767533514 6.579166108166474 0 1 1
1778 0 2 0.5897 9.36364727363113 7.952247488820099 5.001541923468005 0 0 0
567 0 2 0.5897 6.319863011189121 7.60900878036825 6.670381466110166 0 -2 -2
1821 0 2 0.5897 10.719977077110833 7.990885459668198 7.132951617621613 0 1 1
1025 0 2 0.5897 0.9471031211148206 8.319761320640627 4.294900562360603 0 0 1
290 0 2 0.5897 2.747124807350688 8.120823758323379 6.0214558503401925 0 1 1
289 0 1 -1.1794 3.3578694310672894 8.881073152895592 6.246563987770056 0 1 1
291 0 2 0.5897 3.3764494451872014 9.350564262292412 5.383754277186817 0 1 1
1119 0 2 0.5897 2.118956952208519 9.810533890750616 7.567540888617289 0 0 0
566 0 2 0.5897 5.189938166079488 8.590028537576057 6.31692121586699 0 -2 -1
565 0 1 -1.1794 6.086744613287326 8.542038914685156 6.670636543041794 0 -2 -1
1898 0 2 0.5897 4.829391359156888 11.937530424476115 8.175077399839925 0 1 0
2151 0 2 0.5897 5.5164033095136205 9.469349468394853 8.107224583230472 0 0 2
1028 0 2 0.5897 11.990967686730851 9.752582596764837 5.360006792318648 0 0 0
1788 0 2 0.5897 10.24640663640887 11.336469224121126 4.286390062906539 0 -1 0
72 0 2 0.5897 6.897738273228871 10.008451316983646 5.592554631528442 0 0 0
70 0 1 -1.1794 7.31605417044575 10.91542264413374 5.600823168506072 0 0 0
71 0 2 0.5897 7.647529732557082 11.205975020379679 6.469684653722182 0 0 0
1787 0 2 0.5897 9.84257415995082 10.361625991354495 5.396447333741145 0 -1 0
1786 0 1 -1.1794 10.64094885602583 10.743127632917098 5.0220872051970895 0 -1 0
1333 0 1 -1.1794 11.117726856976907 9.581784183068105 8.120951049322976 0 -1 -1
543 0 2 0.5897 11.798922529646 11.65134026700594 6.1256079659813345 0 -1 -1
1036 0 1 -1.1794 1.137141569510526 15.774916057079864 4.3848731770478615 0 -2 0
1038 0 2 0.5897 1.0536251211107244 14.810736443581062 4.279714384771154 0 -2 0
1905 0 2 0.5897 4.357163755933787 12.072893204644897 4.720339284915852 0 0 0
2093 0 2 0.5897 2.842101657938524 13.477871815603713 6.118924109294648 0 -1 1
2092 0 1 -1.1794 2.0365047916397176 13.590156152741503 6.615037918175012 0 -1 1
1903 0 1 -1.1794 4.288324030210848 12.999796744494567 5.083884610110585 0 0 0
2094 0 2 0.5897 1.4203606062402003 12.901929424153826 6.2923022701350195 0 -1 1
24 0 2 0.5897 4.878869336846675 14.43254930263932 7.852233271373301 0 0 0
22 0 1 -1.1794 4.484247776638957 15.347934941196248 7.827993992886137 0 0 0
1904 0 2 0.5897 4.796303291880124 12.946672037816366 5.890781944399798 0 0 0
1897 0 1 -1.1794 5.141798621203023 12.703794876790466 7.72600851582793 0 1 0
882 0 2 0.5897 2.125373871867651 13.126395734650433 8.21183517483438 0 -1 -2
1016 0 2 0.5897 3.758028003585818 15.994149462206533 6.388061780092984 0 0 0
1899 0 2 0.5897 6.113343496507571 12.71230503038057 7.88935871856633 0 1 0
23 0 2 0.5897 5.220373059745456 15.987270331494289 7.919710143993883 0 0 0
1283 0 2 0.5897 10.267746628416031 15.248312900589413 4.26338126473059 0 -1 0
1284 0 2 0.5897 8.821138000790643 15.65596789461885 4.1800663275655126 0 -1 0
866 0 2 0.5897 6.99234038686278 12.295944221899042 4.544873835414747 0 1 0
865 0 1 -1.1794 7.314281813026646 13.172864394904735 4.218779183401234 0 1 0
1124 0 2 0.5897 7.7124082321791105 14.120288765452795 6.10388137909129 0 1 0
1125 0 2 0.5897 8.86887388704777 14.9997629402322 6.8251257336934685 0 1 0
1888 0 1 -1.1794 10.807369930943826 14.662543364381477 6.010222530470823 0 1 1
1123 0 1 -1.1794 8.000130805510409 14.59104569957803 6.876112593894095 0 1 0
1889 0 2 0.5897 11.547606040738852 14.125340644196429 6.216256736089057 0 1 1
1890 0 2 0.5897 11.14769652992132 15.631602780776674 6.168604991648127 0 1 1
1360 0 1 -1.1794 7.75607468922311 12.031293730152685 8.282394736183171 0 0 -1
588 0 2 0.5897 10.93824040815982 12.660741186238367 8.091063948832266 0 2 -1
1361 0 2 0.5897 8.53760413341547 12.613382503201604 8.024127962299938 0 0 -1
819 0 2 0.5897 0.6005416898463161 16.306976490668028 5.74880270612576 0 -1 0
1017 0 2 0.5897 2.908655387646541 16.058872409647172 5.095572541240358 0 0 0
2138 0 2 0.5897 1.5369661163100936 16.169292905981365 8.012465378947356 0 1 0
1279 0 1 -1.1794 5.135705351536382 19.51602759753023 7.9838283518913675 0 0 1
1015 0 1 -1.1794 3.637191275813999 16.481297784415524 5.56908166955321 0 0 0
33 0 2 0.5897 1.3854280956893015 18.703375154666833 4.767560845450297 0 0 2
32 0 2 0.5897 2.450636754188033 17.97402843243503 5.67926635482761 0 0 1
31 0 1 -1.1794 1.8708543631676156 18.759346859408744 5.5997392170539975 0 0 1
1580 0 2 0.5897 1.8606203995860329 18.91798876550539 7.608619028783247 0 -1 1
1287 0 2 0.5897 5.47993865382123 19.311869575785135 6.184738735622815 0 0 2
1285 0 1 -1.1794 5.822480886123489 19.243705363457035 5.249441966454352 0 0 2
1281 0 2 0.5897 4.208114338269757 19.36427251691296 8.196635504449809 0 0 1
245 0 2 0.5897 6.201686565250176 18.09684504306649 7.951700461499607 1 -1 0
1544 0 2 0.5897 12.013156870021954 17.480540717143853 7.77609699335482 0 1 -1
855 0 2 0.5897 7.137650791427723 16.596991678752076 6.082472222081409 0 -2 0
244 0 1 -1.1794 6.597818139091638 17.15802090201562 8.016493137392173 1 -1 0
854 0 2 0.5897 6.859997988270517 17.501048603130098 4.973215432754854 0 -2 0
1851 0 2 0.5897 10.5422119804944 18.09927207533288 6.3779891482293305 0 -1 0
853 0 1 -1.1794 7.473749538071898 16.802579248228458 5.176085369523745 0 -2 0
1652 0 2 0.5897 8.424366343381667 17.97806917069426 6.3432585627875655 0 0 -1
1651 0 1 -1.1794 8.99144216860997 18.769561101843784 6.445753915616726 0 0 -1
1653 0 2 0.5897 8.941498572012794 19.37916695458768 5.659847861222723 0 0 -1
1849 0 1 -1.1794 11.378685132598198 17.58673365670079 6.315651518497887 0 -1 0
129 0 2 0.5897 8.854487274437812 19.40376165226697 8.145659337533468 0 1 -1
1850 0 2 0.5897 11.905600955767392 17.980625161307806 5.55419084028377 0 -1 0
108 0 2 0.5897 2.58957809456767 1.8670741166725602 8.373291542258572 0 0 0
1280 0 2 0.5897 5.396145343999548 0.2549310325401545 8.452395260507442 1 0 1
1087 0 1 -1.1794 3.7282252429854417 1.3876529176542887 9.67082568555878 0 -1 0
1088 0 2 0.5897 3.7949484767432367 2.2030115400040526 10.19369700162429 0 -1 0
1089 0 2 0.5897 3.6853546815744975 0.7499614520373102 10.447810498508765 0 -1 0
2067 0 2 0.5897 1.6194891655039798 3.4634431342550127 10.700300176382648 0 1 0
610 0 1 -1.1794 3.9214500997226827 3.307616558884387 11.788491961736913 0 0 -1
797 0 2 0.5897 0.9718499229402814 0.8506361765174666 10.450111517838327 0 1 -2
612 0 2 0.5897 4.782233154710671 3.4231916525556683 12.148146089873267 0 0 -1
2065 0 1 -1.1794 1.0815578156173715 2.679718828483927 10.871401491536144 0 1 0
611 0 2 0.5897 3.384019022184423 3.8857193592149306 12.324128141375503 0 0 -1
359 0 2 0.5897 5.72462900442711 3.9006967932389007 9.395669723312617 0 2 0
1506 0 2 0.5897 4.684539527239441 0.867115183093246 12.275950857962044 1 1 1
1307 0 2 0.5897 11.618678704404491 0.5344506581454241 10.140068474906556 0 0 2
1569 0 2 0.5897 7.889935697244327 1.090771767455738 8.5118665854882 0 -1 0
1568 0 2 0.5897 7.105356182811955 2.4853418499747093 8.797055953557178 0 -1 0
277 0 1 -1.1794 6.390841352031598 1.3306853846946527 11.963661577014143 0 1 -1
278 0 2 0.5897 6.498611781834988 2.217705623568716 11.606650070544118 0 1 -1
581 0 2 0.5897 9.662414652128582 0.5956076443142432 10.201239859373297 0 -1 -1
580 0 1 -1.1794 10.048472620319734 1.0054690931029944 11.003524229485208 0 -1 -1
582 0 2 0.5897 9.553493103895455 1.8175551768332006 11.171998564407035 0 -1 -1
358 0 1 -1.1794 6.479492934705765 3.6321647558249994 9.90199859125875 0 2 0
294 0 2 0.5897 3.0995972502545226 5.5036829596809005 8.815327986062098 0 1 -1
292 0 1 -1.1794 2.2830271254263472 4.987610654894056 8.78244923178701 0 1 0
1231 0 1 -1.1794 4.4128830227015605 7.0681069878381715 9.335102205361327 1 0 0
1856 0 2 0.5897 1.4927648403243652 6.215925704195431 9.91196498199545 0 -1 1
2110 0 1 -1.1794 4.513843999549572 7.2634716080926855 12.152036262789448 0 0 0
2111 0 2 0.5897 4.239479272052366 7.258899674388516 11.251982932997358 0 0 0
1857 0 2 0.5897 1.0021537976575543 7.569766107550418 10.53838573730639 0 -1 1
1855 0 1 -1.1794 0.9954843854218116 6.61737737195728 10.651260920123065 0 -1 1
1233 0 2 0.5897 5.3706668197709 6.989935290895028 9.508593818095422 1 0 0
1866 0 2 0.5897 1.5849986742301605 5.706479695444657 12.203865153898503 0 0 0
1232 0 2 0.5897 4.3296635164496555 7.856115963796397 8.779437760145008 1 0 0
1563 0 2 0.5897 9.27383139019861 4.793733292702497 8.370377984935754 0 2 -1
1561 0 1 -1.1794 9.17168272682059 5.767128417152526 8.589137657031163 0 2 -1
360 0 2 0.5897 6.996507962284385 4.386064522133921 10.239793678835547 0 2 0
11 0 2 0.5897 11.536735194798945 7.013607156605634 9.88144001993961 0 0 -1
1562 0 2 0.5897 9.745142503225177 6.022132341603905 9.309048867193145 0 2 -1
1536 0 2 0.5897 7.740849514535083 6.58491711477361 9.24006567772663 0 -1 -1
10 0 1 -1.1794 10.838319974132759 7.130298618858892 10.574490396730488 0 0 0
897 0 2 0.5897 10.950746901618947 5.908713776899547 11.80847193749526 0 0 0
604 0 1 -1.1794 7.578886732598587 7.2690953061808665 12.268358447182347 0 2 -1
1535 0 2 0.5897 7.344592923078009 7.116323321879599 10.615569273262045 0 -1 -1
1534 0 1 -1.1794 7.057394921972029 7.115212508416868 9.693273550385832 0 -1 -1
896 0 2 0.5897 10.4907908342401 4.424769475959257 12.281812511771987 0 0 0
895 0 1 -1.1794 11.174669739887715 5.13581969950162 12.365891166567074 0 0 0
1118 0 2 0.5897 3.0389412104261884 9.943985226197217 8.747890772677287 0 0 0
1117 0 1 -1.1794 2.062714423797197 9.89276993476377 8.551538713249034 0 0 0
2149 0 1 -1.1794 4.928484612348747 9.871444956715765 8.774367705528162 0 0 2
2034 0 2 0.5897 1.6069032025452852 9.722282551141376 10.44810527396468 0 0 0
2032 0 1 -1.1794 1.425712561032098 9.404567596035783 11.329318407245191 0 0 0
2033 0 2 0.5897 1.5587765593528633 10.162599596908667 11.901389297948828 0 0 0
386 0 2 0.5897 5.359061081277088 9.032045905876032 11.63863690898331 0 0 1
385 0 1 -1.1794 5.780631464390343 9.844698092158072 11.434362484103573 0 0 1
387 0 2 0.5897 5.157498126784326 10.548226203773275 11.774666341173766 0 0 1
2150 0 2 0.5897 5.288785644200256 9.882217486845713 9.68905343910612 0 0 2
881 0 2 0.5897 1.9966671656500754 11.6807498082059 8.792047801591469 0 -1 -2
1335 0 2 0.5897 11.8304617074617 9.925005259162377 8.736299405040315 0 -1 -1
12 0 2 0.5897 10.965265701734847 8.032758159940787 10.855708505717988 0 0 0
1334 0 2 0.5897 10.303966603346119 9.531333921572159 8.638183142885843 0 -1 -1
104 0 2 0.5897 8.223838048264973 9.05822774783917 9.446052500770982 0 -1 0
105 0 2 0.5897 8.950657880351713 9.963863712066576 10.429056225417897 0 -1 0
103 0 1 -1.1794 8.798912424763355 9.77411511258414 9.517187531589247 0 -1 0
1362 0 2 0.5897 8.215434134124411 11.303648051852303 8.726154832548902 0 0 -1
1395 0 2 0.5897 9.518922175268829 11.719481342731134 11.681233613173628 0 0 -1
1312 0 1 -1.1794 8.58445419472474 10.22897914026511 12.266421142622834 0 1 1
1313 0 2 0.5897 7.634399533463325 10.052814593192792 12.117921004656706 0 1 1
319 0 1 -1.1794 0.5375635719878619 13.04103552524352 11.009101958034934 0 -1 1
1861 0 1 -1.1794 0.7198738438313996 15.696496884519705 11.398305273055154 0 1 0
880 0 1 -1.1794 2.2288335064826437 12.597353387647969 9.040829591409631 0 -1 -2
391 0 1 -1.1794 4.3461974531248195 13.289124796500532 10.512045973502998 0 2 -1
392 0 2 0.5897 3.7799383504265767 13.08283267453697 9.791473353883505 0 2 -1
393 0 2 0.5897 5.259781413922131 13.4331268332809 10.245996278460662 0 2 -1
321 0 2 0.5897 1.0627553322049506 12.923937533863734 10.186127694273967 0 -1 1
1521 0 2 0.5897 4.141183059546206 15.160674152617966 11.070354820465413 0 -2 0
2139 0 2 0.5897 2.861818434826913 15.757670106288424 8.579544175277896 0 1 0
1601 0 2 0.5897 4.223941370948462 12.325870192685985 12.096692349117768 0 -1 -1
1519 0 1 -1.1794 3.9147602065655724 15.806269710167394 11.781179772757055 0 -1 0
320 0 2 0.5897 0.9556719551218249 12.418127115438661 11.659488550653641 0 -1 1
1863 0 2 0.5897 1.3391480716869921 15.861890648589359 10.662757767162306 0 1 0
1520 0 2 0.5897 4.634230769456823 15.612690554097533 12.462777182485581 0 -1 0
1862 0 2 0.5897 0.6863588452429996 14.711606982029181 11.424119833666438 0 1 0
1394 0 2 0.5897 10.885244452595035 12.189926564575606 11.471515062241822 0 0 -1
1393 0 1 -1.1794 10.102401911014951 12.148332416767484 10.978820337790506 0 0 -1
831 0 2 0.5897 11.01723707663851 14.718671513135902 9.277664677779601 0 1 0
586 0 1 -1.1794 10.255998855391423 13.209718448591968 8.50952359144175 0 2 -1
1328 0 2 0.5897 7.460914075627234 13.213676962805463 9.585536260405384 0 -1 0
1327 0 1 -1.1794 6.979253089824801 13.86204303377315 10.133012530218284 0 -1 0
1329 0 2 0.5897 7.336153813258294 14.778451595940787 10.030955812095913 0 -1 0
587 0 2 0.5897 10.362513131683531 12.943273821900608 9.463146865610828 0 2 -1
755 0 2 0.5897 7.153459832897599 14.099017974147516 12.065469937354008 1 -1 1
829 0 1 -1.1794 11.063473358561481 15.36791262496321 9.956348369145392 0 1 0
796 0 1 -1.1794 0.9402504721385234 19.933181900627368 10.545396096347243 0 0 -2
2137 0 1 -1.1794 2.034728705198207 16.164753291713687 8.837922238626597 0 1 0
1579 0 1 -1.1794 2.3540817861732846 18.830495947736452 8.451225273430095 0 -1 1
1581 0 2 0.5897 2.3195985832729606 17.866012998043747 8.744252424388863 0 -1 1
798 0 2 0.5897 1.4750076225745268 19.58270350202414 9.82227087219387 0 0 -2
1130 0 2 0.5897 4.257576837904466 17.442079589500203 11.039000350472135 0 0 0
1129 0 1 -1.1794 4.224325407780599 18.3997229666936 10.872054628230766 0 0 0
1131 0 2 0.5897 3.985247599992873 18.91064389215502 11.685065596295107 0 0 0
1269 0 2 0.5897 5.826643696339927 18.607400185908894 10.597284709608086 0 1 0
282 0 2 0.5897 1.4398098914004862 18.559121053719583 11.779887473366744 0 0 0
281 0 2 0.5897 1.2800609541078276 17.007991244300563 12.091314137898939 0 0 -1
280 0 1 -1.1794 1.4575513854814521 17.878904297835444 12.510734254597805 0 0 -1
73 0 1 -1.1794 11.817515055972628 18.00693678940217 12.155726129356868 0 -1 1
1545 0 2 0.5897 12.058151336063633 18.246666940672103 9.080518088959806 0 1 -1
127 0 1 -1.1794 8.689091737401258 19.7197559629538 9.0584545936713 0 1 -1
1268 0 2 0.5897 6.901887926059718 19.28496381617802 11.422204277588383 0 1 0
128 0 2 0.5897 7.981495177224104 19.099668155242135 9.439186512162095 0 1 -1
1267 0 1 -1.1794 6.798417095171232 18.64054038127364 10.697900473906847 0 1 0
2030 0 2 0.5897 9.389440493156544 16.127273270493102 10.068297600434878 0 0 0
830 0 2 0.5897 11.441875799898835 16.150275209773355 9.546328760998588 0 1 0
2029 0 1 -1.1794 8.625994156412812 16.668488655570737 9.913668344946391 0 0 0
2031 0 2 0.5897 8.555009890302413 17.225589553158418 10.698742508063765 0 0 0
246 0 2 0.5897 7.116536632079214 17.1046514717341 8.810409208022376 1 0 0
75 0 2 0.5897 10.940370524162024 17.593188579460527 12.038489790353646 0 -1 1
1092 0 2 0.5897 8.960284681862877 20.043385899534464 12.360766603831246 0 -2 -1
89 0 2 0.5897 1.0897419470209355 1.4285682845168821 13.812689628984609 0 1 0
90 0 2 0.5897 1.4789504592897338 2.4736783338351827 12.792941186426777 0 1 0
1504 0 1 -1.1794 4.067423294344748 0.23403049986779187 12.681061442232359 1 1 1
1505 0 2 0.5897 3.3508626129157237 0.7065928486727441 13.040927428555467 1 1 1
88 0 1 -1.1794 1.816390914699746 1.9530186296331005 13.529048948197062 0 1 0
1805 0 2 0.5897 2.607650515867402 3.167810297347433 14.747981288741839 0 0 0
1804 0 1 -1.1794 3.094800912166039 3.4749268238563595 15.519876251532365 0 0 0
2129 0 2 0.5897 3.520000455024064 1.5223052297735837 15.510114642179474 0 1 -1
2128 0 1 -1.1794 3.8876422308283525 0.8127257969867699 16.031406950690595 0 1 -1
267 0 2 0.5897 5.70034742692827 1.2087750140321774 15.216652084283771 0 1 -1
1008 0 2 0.5897 5.071366943026269 3.435247436600039 16.366587867348663 1 0 -1
2052 0 2 0.5897 6.281448236740006 3.396258622256552 14.375453353287323 0 0 -1
2050 0 1 -1.1794 6.307070755373358 3.9262016618780975 13.554673799354239 0 0 -1
279 0 2 0.5897 6.384536053262227 1.38574150140885 12.9219279834837 0 1 -1
265 0 1 -1.1794 6.4560837064373615 1.5302902511249958 14.71408601645336 0 1 -1
274 0 1 -1.1794 8.952436738076038 3.461286111618249 12.632691518411283 0 0 -1
276 0 2 0.5897 8.017168563939832 3.6837903888821097 12.715361673600022 0 0 -1
1834 0 1 -1.1794 9.913556450052042 2.109597254203418 15.052657220300047 0 -1 0
275 0 2 0.5897 9.26598330787091 3.086204592945162 13.480554557449345 0 0 -1
1836 0 2 0.5897 9.399911371863144 1.6126827342544026 15.681938860521585 0 -1 0
266 0 2 0.5897 7.151024287869927 1.310980278902894 15.365907226589615 0 1 -1
45 0 2 0.5897 11.016914306399658 0.7659766533821067 14.377536024895251 0 1 0
1835 0 2 0.5897 10.439620126077006 2.7175048817365695 15.567153287461489 0 -1 0
118 0 1 -1.1794 11.61141153691528 3.98241771899646 16.136978631721046 0 0 -1
308 0 2 0.5897 7.469412848557213 3.914109285341691 16.67498119535273 0 1 0
856 0 1 -1.1794 8.516417892526741 0.048646404029417376 16.308322020341905 0 1 -1
2112 0 2 0.5897 3.7524329156615965 7.554002777632989 12.701181297199827 0 0 0
1806 0 2 0.5897 3.170775423340286 4.441300686798128 15.450991955882216 0 0 0
1864 0 1 -1.1794 1.891607661560083 5.122918754800737 12.901302609156392 0 0 0
1865 0 2 0.5897 2.234498817577271 5.678035501042156 13.626610753451992 0 0 0
1378 0 1 -1.1794 3.143289123078863 6.017940309601258 15.609979526726818 0 0 1
1379 0 2 0.5897 4.041921166506118 6.120081866957801 15.958681861762727 0 0 1
599 0 2 0.5897 5.803647631204908 7.095351920232547 14.963722249159483 0 1 0
598 0 1 -1.1794 6.0913039096399295 6.176421650019641 15.20628286518226 0 1 0
1380 0 2 0.5897 2.4868481381605085 6.308177169577724 16.271726540242227 0 0 1
987 0 2 0.5897 0.8157123372353682 7.559076824230643 14.372024013479392 1 0 0
605 0 2 0.5897 6.73598953665132 7.076570837682242 12.665490904521855 0 2 -1
2051 0 2 0.5897 6.406284310307789 4.836470409981898 13.9717720604234 0 0 -1
606 0 2 0.5897 8.237894352315216 6.838528454625916 12.858646542670376 0 2 -1
600 0 2 0.5897 6.68326781620151 6.2505089385506825 15.984308612485819 0 1 0