LAMMPS (23 Jun 2022)
echo both

include		in.partitions
variable        pid world 0
include		in.temp
variable	temperature equal 250.0
variable        tempDamp equal 0.100 # this is 0.1 ps
include		in.pressure
variable        pressure equal 5066.25
variable        pressureDamp equal 1.0 #this is 1ps
include		in.seed
variable        seed world 745823

units           metal
atom_style	full
read_restart	restart.lmp.${pid}
read_restart	restart.lmp.0
Reading restart file ...
  restart file = 23 Jun 2022, LAMMPS = 23 Jun 2022
  restoring atom style full from restart
  orthogonal box = (0.60120867 0 0) to (46.84949 20.047001 20.857)
  4 by 1 by 1 MPI processor grid
Summary of lammps deepmd module ...
  >>> Info of deepmd-kit:
  installed to:       /u/sigbjobo/software/DEEPMD_FROM_SOURCE/deepmd-kit/install
  source:             v2.1.3
  source branch:       master
  source commit:      5a32c49
  source commit at:   2022-07-01 09:52:58 +0800
  surpport model ver.:1.1 
  build float prec:   double
  build with tf inc:  /u/sigbjobo/software/DEEPMD_FROM_SOURCE/tensorflow/install/include;/u/sigbjobo/software/DEEPMD_FROM_SOURCE/tensorflow/install/include
  build with tf lib:  /u/sigbjobo/software/DEEPMD_FROM_SOURCE/tensorflow/install/lib/libtensorflow_cc.so;/u/sigbjobo/software/DEEPMD_FROM_SOURCE/tensorflow/install/lib/libtensorflow_framework.so
  set tf intra_op_parallelism_threads: 0
  set tf inter_op_parallelism_threads: 0
  >>> Info of lammps module:
  use deepmd-kit at:  /u/sigbjobo/software/DEEPMD_FROM_SOURCE/deepmd-kit/install
  source:             v2.1.3
  source branch:      master
  source commit:      5a32c49
  source commit at:   2022-07-01 09:52:58 +0800
  build float prec:   double
  build with tf inc:  /u/sigbjobo/software/DEEPMD_FROM_SOURCE/tensorflow/install/include;/u/sigbjobo/software/DEEPMD_FROM_SOURCE/tensorflow/install/include
  build with tf lib:  /u/sigbjobo/software/DEEPMD_FROM_SOURCE/tensorflow/install/lib/libtensorflow_cc.so;/u/sigbjobo/software/DEEPMD_FROM_SOURCE/tensorflow/install/lib/libtensorflow_framework.so
  restoring pair style deepmd from restart
  2268 atoms
Finding 1-2 1-3 1-4 neighbors ...
  special bond factors lj:    0        0        0       
  special bond factors coul:  0        0        0       
     0 = max # of 1-2 neighbors
     0 = max # of 1-3 neighbors
     0 = max # of 1-4 neighbors
     1 = max # of special neighbors
  special bonds CPU = 0.000 seconds
  read_restart CPU = 0.098 seconds
include 	in.setup
variable	out_freq equal 500
variable	out_freq2 equal 1000
variable	out_freq3 equal 5000

timestep        0.0005

neigh_modify    delay 7 every 1

include         in.deepmd
# This is deepMD model

# create groups ###
#group ox type 2
#group hy type 1

mass 2 15.999
mass 1 1.008

pair_style      deepmd ../graph.pb
pair_coeff      * *

bond_style      none
angle_style     none
dihedral_style  none
improper_style  none
neigh_modify exclude none


neighbor        2.0 bin
neigh_modify    every 10 delay 0 check no

thermo          ${out_freq}
thermo          500
thermo_style 	custom step temp pe etotal epair emol press lx ly lz vol pxx pyy pzz pxy pxz pyz
#thermo_modify	flush yes
restart 	${out_freq} restart.lmp.${pid} restart2.lmp.${pid}
restart 	500 restart.lmp.${pid} restart2.lmp.${pid}
restart 	500 restart.lmp.0 restart2.lmp.${pid}
restart 	500 restart.lmp.0 restart2.lmp.0

include		in.dump
dump            myDump all atom ${out_freq3} dump.water.${pid}
dump            myDump all atom 5000 dump.water.${pid}
dump            myDump all atom 5000 dump.water.0
dump            myDump2 all dcd ${out_freq2} dump.dcd.${pid}
dump            myDump2 all dcd 1000 dump.dcd.${pid}
dump            myDump2 all dcd 1000 dump.dcd.0
dump_modify     myDump append yes
dump_modify     myDump2 append yes


timer           timeout 23:50:00 every 1000
New timer settings: style=normal  mode=nosync  timeout=23:50:00

fix             1 all plumed plumedfile plumed.dat outfile plumed.out
fix             3 all nph x ${pressure} ${pressure} ${pressureDamp}
fix             3 all nph x 5066.25 ${pressure} ${pressureDamp}
fix             3 all nph x 5066.25 5066.25 ${pressureDamp}
fix             3 all nph x 5066.25 5066.25 1
Resetting global fix info from restart file:
  fix style: nph, fix ID: 3
fix             4 all temp/csvr ${temperature} ${temperature} ${tempDamp} ${seed}
fix             4 all temp/csvr 250 ${temperature} ${tempDamp} ${seed}
fix             4 all temp/csvr 250 250 ${tempDamp} ${seed}
fix             4 all temp/csvr 250 250 0.1 ${seed}
fix             4 all temp/csvr 250 250 0.1 745823
Resetting global fix info from restart file:
  fix style: temp/csvr, fix ID: 4

run             40000000 upto

CITE-CITE-CITE-CITE-CITE-CITE-CITE-CITE-CITE-CITE-CITE-CITE-CITE

Your simulation uses code contributions which should be cited:

- USER-DEEPMD package:

@article{Wang_ComputPhysCommun_2018_v228_p178,
  author = {Wang, Han and Zhang, Linfeng and Han, Jiequn and E, Weinan},
  doi = {10.1016/j.cpc.2018.03.016},
  url = {https://doi.org/10.1016/j.cpc.2018.03.016},
  year = 2018,
  month = {jul},
  publisher = {Elsevier {BV}},
  volume = 228,
  journal = {Comput. Phys. Commun.},
  title = {{DeePMD-kit: A deep learning package for many-body potential energy representation and molecular dynamics}},
  pages = {178--184}
}

CITE-CITE-CITE-CITE-CITE-CITE-CITE-CITE-CITE-CITE-CITE-CITE-CITE

Generated 0 of 1 mixed pair_coeff terms from geometric mixing rule
All restart file global fix info was re-assigned
Neighbor list info ...
  update every 10 steps, delay 0 steps, check no
  max neighbors/atom: 2000, page size: 100000
  master list distance cutoff = 8
  ghost atom cutoff = 8
  binsize = 4, bins = 12 6 6
  1 neighbor lists, perpetual/occasional/extra = 1 0 0
  (1) pair deepmd, perpetual
      attributes: full, newton on
      pair build: full/bin
      stencil: full/bin/3d
      bin: standard
Per MPI rank memory allocation (min/avg/max) = 6.19 | 6.191 | 6.193 Mbytes
   Step          Temp          PotEng         TotEng         E_pair         E_mol          Press            Lx             Ly             Lz           Volume          Pxx            Pyy            Pzz            Pxy            Pxz            Pyz      
  25784000   245.18405     -362.35347     -290.50652     -362.35347      0              3488.4775      46.248282      20.047001      20.857         19337.345      4548.3094      1983.2532      3933.8699     -971.25094      988.10373      1562.443     
  25784500   252.80634     -359.27867     -285.19814     -359.26894      0              5522.6206      46.245365      20.047001      20.857         19336.126      8397.0845      4776.8448      3393.9324     -1031.9823     -232.49433     -456.96717    
  25785000   246.33386     -358.14278     -285.95889     -358.13492      0              5546.512       46.452404      20.047001      20.857         19422.693      7218.4915      3272.6076      6148.4369     -551.49069      327.29681     -418.66755    
  25785500   251.74294     -358.00106     -284.23214     -357.99828      0              4846.0902      46.544992      20.047001      20.857         19461.406      3631.4042      6156.4142      4750.4524     -512.55356     -1270.9015      40.555835    
  25786000   252.21668     -356.34547     -282.43773     -356.34436      0              3974.6546      46.119887      20.047001      20.857         19283.661      5306.2623      2455.4724      4162.2291     -1164.8426     -1477.7707      923.99166    
  25786500   247.6473      -358.1807      -285.61193     -358.18247      0              4203.0544      46.105476      20.047001      20.857         19277.635      5643.7554      4325.8004      2639.6074      1353.4337      1683.1634     -89.790948    
  25787000   244.19        -357.7957      -286.24004     -357.79542      0              4058.1924      46.510814      20.047001      20.857         19447.116      2440.4546      5699.2295      4034.8931     -427.53957      740.97159      1651.4136    
  25787500   244.99136     -358.68237     -286.89188     -358.68089      0              1929.1234      46.345851      20.047001      20.857         19378.141      1942.2535      3499.4826      345.63427     -1882.8941     -1518.2597      405.78744    
  25788000   245.45484     -358.37966     -286.45335     -358.37736      0              2973.0309      46.00941       20.047001      20.857         19237.468      5361.575       1787.8281      1769.6896      79.899422     -716.32779      716.10737    
  25788500   249.17267     -357.28211     -284.26636     -357.27461      0              4463.5886      46.178232      20.047001      20.857         19308.056      6902.1269      3732.0029      2756.6359     -42.953947     -1198.4245      547.84345    
  25789000   254.815       -359.92352     -285.25438     -359.91576      0              3406.1659      46.602452      20.047001      20.857         19485.431      3566.681       3784.4888      2867.328      -397.11852     -1032.7424     -541.43799    
  25789500   247.30935     -358.3247      -285.85496     -358.31681      0              3253.6263      46.376173      20.047001      20.857         19390.82       3422.6897      2566.3167      3771.8724     -1576.0756     -85.351938     -1990.5015    
  25790000   248.20726     -356.05944     -283.32658     -356.0451       0              5624.49        46.157804      20.047001      20.857         19299.515      7164.6293      3855.1939      5853.6469     -1285.5592      390.15107     -296.03998    
  25790500   250.40302     -358.31443     -284.93815     -358.30351      0              3222.4497      46.266463      20.047001      20.857         19344.947      6284.4146      1622.1675      1760.7669      107.62089     -484.08624     -637.15196    
  25791000   252.9627      -360.33267     -286.20632     -360.31939      0              3461.1848      46.289747      20.047001      20.857         19354.683      4345.1586      1638.7801      4399.6158     -1883.2548     -291.84563     -507.41103    
  25791500   242.82767     -356.22868     -285.07222     -356.21519      0              4167.8053      46.344561      20.047001      20.857         19377.602      6710.7799      3303.5305      2489.1054     -1156.606      -650.97369     -747.16229    
  25792000   256.12966     -353.00338     -277.949       -352.9949       0              4432.1187      46.152862      20.047001      20.857         19297.448      5623.1351      3304.254       4368.967       922.54424     -2783.9294     -814.34715    
  25792500   257.42702     -356.63482     -281.20027     -356.62105      0              5804.089       46.193833      20.047001      20.857         19314.579      7395.0515      5071.0861      4946.1294      492.74117     -50.713461     -677.75618    
  25793000   251.89608     -354.609       -280.7952      -354.59959      0              1819.4703      46.516251      20.047001      20.857         19449.389      2058.5367      2219.0921      1180.7822      282.09866     -428.47964     -507.74067    
  25793500   249.2438      -358.24862     -285.21203     -358.23511      0              3619.1193      46.337973      20.047001      20.857         19374.847      4745.9344      3021.6721      3089.7515     -213.51333      1290.4986     -1183.0873    
  25794000   244.41029     -357.77887     -286.15865     -357.7702       0              4081.4754      46.064441      20.047001      20.857         19260.478      4702.2063      3729.666       3812.5538     -544.10975      1243.9978     -2106.8493    
  25794500   249.16987     -357.0788      -284.06387     -357.06607      0              4456.5197      46.166317      20.047001      20.857         19303.075      6776.8177      2898.9187      3693.8225     -1101.012      -49.530699     -235.14664    
  25795000   247.57908     -360.48298     -287.9342      -360.47525      0              5850.7346      46.568244      20.047001      20.857         19471.128      7231.6855      5985.6138      4334.9044     -299.92527      91.257943     -759.55044    
  25795500   249.45786     -359.37272     -286.27339     -359.36387      0              3560.0339      46.537186      20.047001      20.857         19458.142      3037.4107      5046.9119      2595.779       228.33035      837.0418      -1519.3794    
  25796000   244.37733     -358.92717     -287.3166      -358.91344      0              5792.786       46.151909      20.047001      20.857         19297.05       6450.4141      5636.6073      5291.3366     -805.98554      729.57553     -1662.3564    
  25796500   258.72893     -359.62533     -283.80928     -359.6172       0              6077.3163      46.215259      20.047001      20.857         19323.538      7881.3153      5786.7303      4563.9034      64.91272       438.49474     -175.38321    
  25797000   251.85966     -357.69078     -283.88765     -357.68177      0              3830.0907      46.629087      20.047001      20.857         19496.568      5506.6156      3285.9014      2697.755       858.92619     -632.2386       132.45482    
  25797500   248.12046     -357.90785     -285.20043     -357.896        0              4651.8229      46.54088       20.047001      20.857         19459.687      6404.0141      3010.3071      4541.1474     -564.38946     -2008.9482     -154.69134    
  25798000   244.94425     -359.83462     -288.05793     -359.82639      0              4091.3755      46.387765      20.047001      20.857         19395.666      6216.2569      2060.9209      3996.9486      150.2904       12.62137       976.07824    
  25798500   253.80573     -359.0569      -284.68351     -359.04831      0              4038.8297      46.120297      20.047001      20.857         19283.832      5869.0074      4107.0662      2140.4156      1041.9086     -3.7627172      928.49976    
  25799000   256.21533     -358.02649     -282.94701     -358.01308      0              4524.6017      46.401968      20.047001      20.857         19401.605      7226.4139      3757.7838      2589.6076      618.88286     -40.572853     -1793.1795    
  25799500   255.47728     -356.323       -281.45979     -356.31025      0              2762.9921      46.703147      20.047001      20.857         19527.534      3762.9633      4467.3499      58.662959      806.47275     -176.4325      -140.76238    
  25800000   247.39467     -355.12855     -282.63381     -355.12068      0              3521.2548      46.419648      20.047001      20.857         19408.997      3794.1343      1549.4221      5220.2078     -546.22687      799.0956      -1014.9163    
  25800500   247.60966     -355.12177     -282.56403     -355.10924      0              5407.1688      46.386622      20.047001      20.857         19395.188      8654.2743      3888.5459      3678.6863     -409.16538     -1333.6859     -639.11623    
  25801000   249.12179     -359.21246     -286.21162     -359.19894      0              4171.7162      46.390476      20.047001      20.857         19396.8        3177.2564      6402.205       2935.6873     -728.88929     -31.647162     -1260.7515    
  25801500   253.98982     -354.88211     -280.45478     -354.86975      0              3345.1488      46.175651      20.047001      20.857         19306.977      2057.0961      3277.1791      4701.1711      997.98718     -94.4757        1221.1478    
  25802000   253.19016     -356.27995     -282.08694     -356.26659      0              5629.3024      46.098606      20.047001      20.857         19274.763      5801.2588      6643.1133      4443.5352      512.29035     -860.53701     -439.87576    
  25802500   248.80185     -355.09992     -282.19283     -355.09094      0              3344.7064      46.290961      20.047001      20.857         19355.191      5398.9134      2249.9808      2385.2248     -636.45574      937.06333     -2342.891     
  25803000   250.9146      -355.38188     -281.85568     -355.36866      0              3796.9356      46.441292      20.047001      20.857         19418.047      4834.5735      3527.2163      3029.017      -99.914203     -630.8438       2161.0959    
  25803500   246.6258      -356.67584     -284.4064      -356.66574      0              5164.6809      46.323442      20.047001      20.857         19368.772      6107.1709      5063.6098      4323.262      -1270.6058     -187.34424     -1240.2533    
  25804000   253.10968     -357.62244     -283.45301     -357.60863      0              4714.8878      46.273552      20.047001      20.857         19347.911      4945.7004      4358.5617      4840.4012     -18.052296      1034.7268      978.04188    
  25804500   251.24897     -361.07715     -287.45297     -361.0677       0              3509.2161      46.206393      20.047001      20.857         19319.831      3037.385       4498.46        2991.8034     -513.6909      -36.586921     -1437.1503    
  25805000   251.38714     -359.1436      -285.47894     -359.14288      0              5581.6073      46.127499      20.047001      20.857         19286.844      6433.5336      6585.9025      3725.3858      1785.1709      782.05453      924.8279     
  25805500   252.15778     -358.78575     -284.89526     -358.78525      0              4520.2415      46.190802      20.047001      20.857         19313.312      6357.5431      4641.8059      2561.3756     -2574.6383     -438.05366      235.88153    
  25806000   253.43595     -357.79435     -283.52932     -357.7835       0              4207.2026      46.315411      20.047001      20.857         19365.414      4952.4926      4330.0634      3339.0519      773.92145      391.85531      505.88411    
  25806500   247.90965     -358.7858      -286.14016     -358.77255      0              1559.6494      46.286484      20.047001      20.857         19353.319      1901.8153      3181.7753     -404.64234     -1125.9199      408.0042      -1331.9469    
  25807000   247.2725      -358.26725     -285.80831     -358.25875      0              3812.2705      46.095654      20.047001      20.857         19273.529      4314.1445      3105.5325      4017.1347      106.53761      332.69876      1269.7815    
  25807500   254.23323     -360.18386     -285.6852      -360.16965      0              6149.1586      46.034606      20.047001      20.857         19248.003      6272.9863      7620.9688      4553.5208      103.49135     -529.21115      657.2994     
  25808000   243.6708      -357.68273     -286.2792      -357.67002      0              4597.4009      46.209642      20.047001      20.857         19321.189      5338.1051      2051.2804      6402.8173     -1047.8815     -859.94309      1116.922     
  25808500   244.16271     -358.61305     -287.06538     -358.60563      0              4385.7418      46.261343      20.047001      20.857         19342.807      5628.0178      4390.5778      3138.6298     -1908.2677      680.13636      623.32027    
  25809000   257.39264     -358.02805     -282.60358     -358.01595      0              5984.2558      46.035802      20.047001      20.857         19248.503      5715.5871      6486.4657      5750.7146      139.471        687.9023       224.67905    
  25809500   260.61415     -356.5395      -280.17102     -356.53169      0              5152.3335      46.220149      20.047001      20.857         19325.583      4875.9427      5944.9464      4636.1113     -671.79934     -1050.7968      557.01818    
  25810000   245.24434     -355.09831     -283.23369     -355.0978       0              2369.0335      46.536922      20.047001      20.857         19458.032      4103.2754      1534.6034      1469.2217      1591.7824      2286.6374      231.62267    
  25810500   250.2925      -357.57341     -284.22951     -357.56019      0              5093.7634      46.365844      20.047001      20.857         19386.501      4025.7981      5344.766       5910.726      -313.55008      728.23253      711.32628    
  25811000   251.74508     -357.23869     -283.46914     -357.22925      0              4385.6779      46.277422      20.047001      20.857         19349.53       4631.2037      6425.6454      2100.1845      1211.8076     -858.64061     -718.3767     
  25811500   245.05746     -355.50488     -283.69502     -355.50435      0              3530.2489      46.42196       20.047001      20.857         19409.964      3068.7293      4073.752       3448.2656     -1048.5929      2337.7428     -474.33558    
  25812000   254.33914     -356.37651     -281.84681     -356.36354      0              3441.4653      46.063064      20.047001      20.857         19259.902      5136.0553      1439.3467      3748.9938      813.76869      1009.6207     -379.66743    
  25812500   252.53052     -358.6762      -284.67648     -358.66331      0              6009.8113      46.034953      20.047001      20.857         19248.149      8455.455       5143.6076      4430.3714     -1632.2906     -900.49485     -479.99185    
  25813000   243.94001     -353.26621     -281.7838      -353.26519      0              5094.3807      46.568647      20.047001      20.857         19471.297      6353.9557      5003.5621      3925.6244     -44.463935     -876.63019      1260.237     
  25813500   254.69899     -354.51585     -279.88071     -354.50782      0              3665.0961      46.660416      20.047001      20.857         19509.667      3623.2456      3169.6687      4202.3741     -467.84338     -776.54773      417.09857    
  25814000   254.55436     -356.51767     -281.9249      -356.5053       0              5492.8423      46.195726      20.047001      20.857         19315.371      7660.3032      4649.7018      4168.522      -466.76298      1375.8841     -1579.596     
  25814500   245.22746     -354.86083     -283.00115     -354.85609      0              3032.9147      46.048634      20.047001      20.857         19253.868      4695.1605      1741.8261      2661.7575      806.77454      1773.5634     -194.04141    
  25815000   257.37007     -357.73561     -282.31776     -357.73507      0              3366.7938      46.125741      20.047001      20.857         19286.109      1890.2165      1959.402       6250.7628     -405.01705     -429.23042     -815.48789    
  25815500   245.98612     -354.33528     -282.2533      -354.32725      0              5288.2284      46.276905      20.047001      20.857         19349.313      6953.4594      4787.443       4123.7828     -1234.505      -461.86006      998.35277    
  25816000   253.97485     -354.15722     -279.73427     -354.15673      0              1624.1175      46.336324      20.047001      20.857         19374.158      1397.0551      3004.7992      470.49824     -371.60789      145.79326      1033.0031    
  25816500   251.11825     -354.21501     -280.62914     -354.20624      0              5605.9609      46.107512      20.047001      20.857         19278.487      6974.588       5507.4335      4335.8612     -692.48318     -907.09169      229.42127    
  25817000   247.99507     -355.71579     -283.04511     -355.70798      0              5003.301       46.264713      20.047001      20.857         19344.216      7040.2998      4460.9628      3508.6404      1046.461      -1277.2899      2215.393     
  25817500   253.0378      -356.11192     -281.96356     -356.10432      0              5325.7096      46.231526      20.047001      20.857         19330.34       4346.9105      5753.3564      5876.8618      664.34938     -2116.3457      169.29082    
  25818000   250.17823     -357.23788     -283.92746     -357.22943      0              4401.5645      46.132306      20.047001      20.857         19288.854      5487.5301      4382.3485      3334.815       78.970606     -419.29879      754.01855    
  25818500   248.63333     -355.72149     -282.86378     -355.71374      0              2899.4361      46.184811      20.047001      20.857         19310.807      1492.8793      4948.8006      2256.6285      240.52547      509.10026      799.14727    
  25819000   258.25084     -356.97709     -281.30113     -356.96862      0              4659.9035      46.142299      20.047001      20.857         19293.032      3815.3747      4523.7342      5640.6017     -198.07633      818.28162      2349.0163    
  25819500   254.10932     -355.75087     -281.28852     -355.74305      0              4999.4177      46.021565      20.047001      20.857         19242.55       6507.4997      3329.8248      5160.9285     -298.86294      884.10639      588.31608    
  25820000   243.87111     -355.56367     -284.10144     -355.55712      0              4337.8421      46.14162       20.047001      20.857         19292.748      4263.4997      4020.6795      4729.3472      1793.1118     -1923.6852     -45.300215    
  25820500   254.5841      -358.20989     -283.60841     -358.20346      0              5903.3849      46.193693      20.047001      20.857         19314.521      6366.5946      6640.7         4702.8602      144.40231     -162.02731     -510.99773    
  25821000   245.04375     -355.53276     -283.72692     -355.52203      0              3549.0048      46.028263      20.047001      20.857         19245.351      4319.3188      2398.0563      3929.6394      1005.2068     -2328.5844      393.54466    
  25821500   254.49594     -356.77277     -282.19713     -356.75933      0              3235.1433      45.822242      20.047001      20.857         19159.21       6442.9183      283.6091       2978.9025     -266.39899      499.74054     -247.14813    
  25822000   247.81861     -355.99629     -283.37732     -355.98799      0              3421.6661      45.960869      20.047001      20.857         19217.172      6179.6545      1191.2867      2894.0572     -313.2953       304.62451     -1526.2195    
  25822500   246.57426     -356.8314      -284.57707     -356.81784      0              4271.4006      46.12047       20.047001      20.857         19283.905      6012.0002      4339.7788      2462.4227      505.63853      624.61914      778.98708    
  25823000   249.6083      -358.25666     -285.11325     -358.24757      0              4555.2887      46.167558      20.047001      20.857         19303.593      4838.9281      4837.2047      3989.7333     -1551.7584     -1294.7786     -507.92855    
  25823500   247.47917     -358.02287     -285.50337     -358.01512      0              4496.0409      46.199159      20.047001      20.857         19316.806      4800.3042      4588.4409      4099.3778     -404.76529     -294.36219      754.73778    
  25824000   248.94821     -356.54957     -283.59959     -356.53719      0              4159.0235      46.173482      20.047001      20.857         19306.07       3565.2015      4117.0633      4794.8057     -1188.9372      1340.3615      597.07668    
  25824500   251.36959     -357.43366     -283.77414     -357.43132      0              4464.0189      46.15438       20.047001      20.857         19298.083      5262.9972      5823.8539      2305.2055     -438.42084      1941.6813     -272.81559    
  25825000   248.04132     -357.32553     -284.64131     -357.31779      0              4026.0491      46.102384      20.047001      20.857         19276.343      2720.7852      4424.6863      4932.6759      1010.5882      175.81502      999.71275    
  25825500   240.73326     -355.72929     -285.18656     -355.72042      0              4299.0146      46.346215      20.047001      20.857         19378.293      2477.6986      4918.822       5500.5231      1557.4903      948.83145     -1529.8295    
  25826000   248.76287     -357.39801     -284.50234     -357.3889       0              3340.8676      46.07586       20.047001      20.857         19265.252      4881.3982      1437.95        3703.2547     -856.2565       462.11507      1055.8766    
  25826500   248.35807     -358.0303      -285.25326     -358.02313      0              5684.9083      46.052208      20.047001      20.857         19255.363      7472.531       4605.7488      4976.445       1475.0721     -703.674        1269.0046    
  25827000   249.72081     -356.78922     -283.61285     -356.77593      0              4172.075       46.18094       20.047001      20.857         19309.188      5146.6513      3701.0013      3668.5724      30.400885      971.75077      1085.539     
  25827500   251.19234     -353.49797     -279.89039     -353.49279      0              5964.5751      46.073185      20.047001      20.857         19264.134      7593.335       6097.1538      4203.2364     -879.08251     -917.01977     -1475.7896    
  25828000   253.38667     -355.71183     -281.46124     -355.70207      0              5292.7849      45.898992      20.047001      20.857         19191.3        6092.1376      3897.0782      5889.1388      45.46032      -1417.7115     -470.48703    
  25828500   249.34105     -357.12321     -284.05812     -357.11791      0              2520.3661      46.46528       20.047001      20.857         19428.077      2073.0333      2336.8165      3151.2484     -119.65721      284.53734     -835.18652    
  25829000   249.96847     -355.79233     -282.54339     -355.78427      0              4150.123       46.521695      20.047001      20.857         19451.665      5435.7675      3475.8213      3538.7801     -1146.3949      916.61796      263.31672    
  25829500   252.97229     -354.88978     -280.76061     -354.88128      0              4370.4669      46.164788      20.047001      20.857         19302.435      3708.3716      5026.3594      4376.6698      1041.0663     -333.83166     -1973.3306    
  25830000   249.82918     -358.01955     -284.81142     -358.01172      0              1431.9776      45.9339        20.047001      20.857         19205.896      4179.5366     -1227.2119      1343.608      -582.6856      -924.43057     -319.49076    
  25830500   254.43422     -359.16827     -284.61071     -359.16621      0              3765.1147      46.077146      20.047001      20.857         19265.79       4205.3514      2602.4444      4487.5483      221.96055      760.89251      1560.6651    
  25831000   250.96331     -357.02831     -283.48784     -357.02525      0              4071.85        46.308402      20.047001      20.857         19362.483      3966.7648      5374.8419      2873.9432      1202.1884      144.85813      983.31634    
  25831500   251.53691     -357.20812     -283.49956     -357.20046      0              3686.0978      46.198256      20.047001      20.857         19316.429      4869.0318      3108.8916      3080.3701      149.60195     -1310.785       167.7769     
  25832000   246.07098     -356.84206     -284.73521     -356.82867      0              4426.0377      46.026457      20.047001      20.857         19244.596      6005.1566      3545.7689      3727.1877      689.72301      847.37122     -267.27892    
  25832500   249.59688     -357.78573     -284.64567     -357.77918      0              2637.0446      46.14123       20.047001      20.857         19292.585      2067.9484      2809.5924      3033.5929     -483.96886     -489.14904     -1102.1129    
  25833000   253.35995     -359.66086     -285.4181      -359.64752      0              6192.0144      46.200138      20.047001      20.857         19317.216      6339.1643      7932.0241      4304.8548     -54.608933      2389.815      -734.16395    
  25833500   253.22067     -357.08346     -282.88151     -357.07031      0              3870.9003      46.029404      20.047001      20.857         19245.828      4022.6345      3154.4317      4435.6346      886.99207      74.118282      344.70744    
  25834000   247.81335     -354.4154      -281.79797     -354.40348      0              2580.3718      45.878672      20.047001      20.857         19182.804      4770.8841      1740.9328      1229.2986      944.28219     -294.57321      839.78818    
  25834500   254.72216     -355.56696     -280.92503     -355.55365      0              6377.6463      46.111018      20.047001      20.857         19279.953      8343.1945      5412.3007      5377.4438      795.70386      1671.5466     -173.82125    
  25835000   256.28479     -357.08702     -281.98718     -357.08074      0              1325.811       46.601124      20.047001      20.857         19484.876      1753.2684      2294.2625     -70.097996      1613.9949      333.77444      1011.486     
  25835500   258.77932     -356.04402     -280.21321     -356.04103      0              3516.8845      46.293884      20.047001      20.857         19356.413      1995.4804      6046.343       2508.83       -827.25598      735.35649      191.53283    
  25836000   250.47821     -356.35536     -282.95704     -356.34282      0              4871.2493      45.963486      20.047001      20.857         19218.267      5007.9271      6102.9186      3502.9022     -62.786494      1699.1071      1349.1456    
  25836500   247.14566     -357.96772     -285.54595     -357.95489      0              3581.6798      46.003249      20.047001      20.857         19234.892      3617.6753      6156.7031      970.66111     -758.43975      3512.5499      96.313133    
  25837000   256.24002     -358.56735     -283.48063     -358.55291      0              4624.7596      46.195106      20.047001      20.857         19315.112      4032.1025      5733.7795      4108.3967      437.38132     -893.52533     -406.70149    
  25837500   253.11618     -358.00941     -283.83807     -357.99598      0              6167.2383      46.245575      20.047001      20.857         19336.213      5258.8028      6897.5629      6345.3492      316.06519      1063.5649      504.59673    
  25838000   248.78084     -354.44062     -281.53968     -354.43163      0              5060.3075      46.238211      20.047001      20.857         19333.135      3569.3389      6967.972       4643.6115      765.14466      422.51303     -892.01248    
  25838500   250.8766      -357.29294     -283.77788     -357.28824      0              5504.838       46.173969      20.047001      20.857         19306.274      7225.9372      5626.3635      3662.2131      121.64682     -1296.7303      439.49173    
  25839000   245.54944     -355.89995     -283.94592     -355.89942      0              2678.3122      46.066503      20.047001      20.857         19261.34      -187.21541      2954.0044      5268.1476      376.69732     -698.36802     -1877.0845    
  25839500   254.33923     -357.44588     -282.91616     -357.43673      0              4750.6945      45.849701      20.047001      20.857         19170.691      4344.7656      4924.6905      4982.6273      1639.2407     -108.53416      201.66672    
  25840000   247.28798     -357.62628     -285.16281     -357.61906      0              4226.2888      46.002349      20.047001      20.857         19234.516      6394.4432      3390.379       2894.0443     -772.55734     -1405.0138     -1150.5277    
  25840500   248.84347     -355.39679     -282.4775      -355.38596      0              7504.9744      46.135174      20.047001      20.857         19290.053      5445.9289      9498.4822      7570.5121     -840.76956      853.10842     -526.33016    
  25841000   251.06083     -358.83996     -285.27091     -358.82909      0              3266.0274      46.171894      20.047001      20.857         19305.406      5424.3382      745.85258      3627.8913      848.04108      98.453085      2458.6677    
  25841500   257.32269     -358.06055     -282.65657     -358.05107      0              4322.946       45.881394      20.047001      20.857         19183.942      3507.974       5307.9091      4152.9549     -1713.2338     -701.62512     -590.8619     
  25842000   251.21416     -357.44012     -283.82614     -357.43672      0              3769.9574      45.999706      20.047001      20.857         19233.411      5458.2985      2728.5611      3123.0126      297.3309       228.26734      1951.3179    
  25842500   251.30687     -355.82088     -282.17974     -355.81983      0              3985.1314      46.495839      20.047001      20.857         19440.854      5453.3364      2063.9509      4438.107       254.51648      490.69267      2670.926     
  25843000   255.44957     -356.7068      -281.85171     -356.70025      0              2091.3434      46.2828        20.047001      20.857         19351.778      3079.3395      2988.4636      206.22696      678.55989      2117.0984      1398.4434    
  25843500   253.20663     -357.84319     -283.64536     -357.8427       0              7010.7197      46.008619      20.047001      20.857         19237.138      7439.7487      7237.0939      6355.3167     -1163.8752     -2469.692      -384.82955    
  25844000   251.19166     -357.98282     -284.37544     -357.97517      0              4702.5127      46.150809      20.047001      20.857         19296.59       5392.9409      5648.8889      3065.7083      91.171819     -752.9543       246.04367    
  25844500   250.45431     -356.58796     -283.19664     -356.58578      0              3896.3591      46.515951      20.047001      20.857         19449.263      2885.6633      5337.8196      3465.5945      993.66012      1166.5119     -779.53503    
  25845000   246.29399     -356.0052      -283.83299     -356.00538      0              6373.9756      46.220538      20.047001      20.857         19325.745      5898.5622      5453.4831      7769.8816      493.94765     -1878.5912      277.25719    
  25845500   241.60471     -358.04431     -287.24622     -358.03568      0              5944.6359      45.769058      20.047001      20.857         19136.972      4998.5657      4693.9916      8141.3504      1420.2959      2912.1052      403.99872    
  25846000   243.01548     -357.76797     -286.55647     -357.76748      0              2544.4429      46.151874      20.047001      20.857         19297.035      3416.2082      2879.3213      1337.7993     -170.81773     -1128.9628     -806.95499    
  25846500   244.54344     -355.15342     -283.49419     -355.15154      0              3577.7179      46.524253      20.047001      20.857         19452.735      4037.4345      3274.0385      3421.6807     -294.43148      2172.8405      148.16633    
  25847000   251.57805     -356.47853     -282.75793     -356.46925      0              4752.2666      46.232701      20.047001      20.857         19330.831      5899.2358      4967.7838      3389.7802      974.58026     -1532.39       -351.40753    
  25847500   252.01559     -355.1249      -281.27607     -355.11147      0              6586.7124      45.987478      20.047001      20.857         19228.298      7398.8193      6276.4918      6084.8263      175.58291      1507.0523      320.30209    
  25848000   242.53364     -355.97734     -284.90704     -355.9696       0              2629.4088      46.250794      20.047001      20.857         19338.396      3559.3266      1717.1776      2611.7223      759.70616     -126.96023      323.60829    
  25848500   247.07364     -359.45754     -287.05687     -359.44989      0              5702.1428      46.483758      20.047001      20.857         19435.803      5597.1428      6188.1145      5321.171       649.64046      2564.0279      913.09063    
  25849000   256.76736     -356.40878     -281.16754     -356.39789      0              4194.8832      46.176135      20.047001      20.857         19307.179      3332.4514      4797.125       4455.0731      1286.7137     -603.74803     -88.606271    
  25849500   247.39349     -357.13722     -284.64282     -357.12408      0              5280.7155      46.075786      20.047001      20.857         19265.221      6205.2115      5314.2458      4322.6893      1294.9198      782.52421     -2568.0462    
  25850000   249.45801     -357.87847     -284.7791      -357.87043      0              5512.7901      46.668928      20.047001      20.857         19513.226      5990.1473      3866.1304      6682.0927     -821.27508      1114.6743      811.96103    
  25850500   243.76459     -357.49319     -286.06218     -357.48559      0              4477.8157      46.425452      20.047001      20.857         19411.424      4657.8682      5803.3538      2972.2251      764.41054      1240.9735     -1614.6137    
  25851000   251.18114     -357.89518     -284.29088     -357.89385      0              3967.7611      46.099316      20.047001      20.857         19275.06       3483.3135      3627.5465      4792.4234      381.38357      633.98443      1102.8756    
  25851500   255.16571     -357.41959     -282.64768     -357.41195      0              5660.4644      46.064003      20.047001      20.857         19260.295      6511.1351      5621.6954      4848.5626     -1070.1096      452.04272     -595.60358    
  25852000   253.80775     -355.48895     -281.11497     -355.48059      0              5819.3085      46.18277       20.047001      20.857         19309.953      7374.8269      5363.9994      4719.0992     -53.729542      2197.1322     -59.066405    
  25852500   248.4779      -357.54105     -284.72889     -357.53314      0              3629.2133      46.220696      20.047001      20.857         19325.811      4415.57        3526.863       2945.2069     -1535.9705      851.14401     -1663.7226    
  25853000   239.47329     -355.39453     -285.22101     -355.39621      0              5492.5831      45.992454      20.047001      20.857         19230.378      6671.7429      6714.2632      3091.7432      1042.1747      2435.7659      1050.3029    
  25853500   253.77752     -357.61284     -283.24771     -357.60518      0              6378.5198      45.909316      20.047001      20.857         19195.617      7137.4198      5197.1308      6801.0088     -394.36589      1476.7048     -115.88518    
  25854000   249.64039     -353.89881     -280.746       -353.89656      0              3660.7972      46.266433      20.047001      20.857         19344.935      4994.8042      3736.7114      2250.8759     -103.60067      1221.7654     -366.42789    
  25854500   251.23109     -356.5535      -282.93456     -356.55325      0              3686.1691      46.475097      20.047001      20.857         19432.182      3014.3723      4830.7943      3213.3405     -1194.5251      2451.1481     -6.8476602    
  25855000   255.5415      -356.1849      -281.30287     -356.17726      0              4625.1857      45.998155      20.047001      20.857         19232.762      4234.6242      5047.721       4593.2119      658.09597      1200.0794     -147.89781    
  25855500   252.62794     -355.06028     -281.03202     -355.04753      0              5163.9386      46.008788      20.047001      20.857         19237.208      4743.9317      6027.2646      4720.6195     -926.20164     -351.72853     -1983.0671    
  25856000   248.49747     -356.53508     -283.71718     -356.52649      0              3271.2188      46.247063      20.047001      20.857         19336.836      3676.7277      3457.7327      2679.196       1156.9076     -618.34013     -1243.5413    
  25856500   251.23265     -358.1237      -284.5043      -358.12066      0              3963.3229      46.211916      20.047001      20.857         19322.14       6358.0066      2745.9238      2786.0383     -482.51854      1121.458      -2693.1976    
  25857000   250.39466     -355.0418      -281.66796     -355.04134      0              1657.5821      46.140709      20.047001      20.857         19292.367      4.9261356      2536.6093      2431.2109      89.377192      3.4357837      72.371586    
  25857500   252.37562     -356.16836     -282.21403     -356.17017      0              3451.3979      46.158033      20.047001      20.857         19299.61       4017.8599      3846.8733      2489.4604     -664.12485      608.03024      498.67548    
  25858000   242.47224     -354.56536     -283.51305     -354.56705      0              4971.6474      45.988619      20.047001      20.857         19228.775      6535.6493      4278.5712      4100.7218      514.48693     -1828.9948      16.198538    
  25858500   244.50846     -358.62104     -286.97206     -358.61346      0              2793.3816      46.107305      20.047001      20.857         19278.4        3857.3439      2375.326       2147.4751     -1274.6547     -130.5133       427.17161    
  25859000   247.0988      -359.19144     -286.7834      -359.18316      0              4426.2148      46.219948      20.047001      20.857         19325.499      5350.0173      4008.0054      3920.6216     -817.43764     -956.46821     -249.71489    
  25859500   250.4567      -355.54911     -282.1571      -355.54858      0              3872.4479      46.227767      20.047001      20.857         19328.768      3705.0058      4528.8533      3383.4846      1126.8766      1711.0324      567.25913    
  25860000   247.63112     -358.70577     -286.14174     -358.70582      0              3093.0401      46.037502      20.047001      20.857         19249.214      2372.4254      3288.7307      3617.9641     -181.07859      440.17129     -413.53703    
  25860500   257.18487     -357.66698     -282.30339     -357.65998      0              5495.2477      45.874022      20.047001      20.857         19180.86       6951.548       4643.1354      4891.0597      819.71193     -34.5136       -741.1909     
  25861000   249.21721     -354.28198     -281.25317     -354.27884      0              1748.3508      46.282819      20.047001      20.857         19351.786      3029.4533      2120.0238      95.575129     -1574.5473      1607.5048     -212.48734    
  25861500   255.68426     -355.03601     -280.11215     -355.03551      0              5029.8904      46.565351      20.047001      20.857         19469.919      5349.0362      6649.427       3091.2082      156.56781      1441.6915      1401.4408    
  25862000   254.18599     -356.91276     -282.42794     -356.90288      0              3443.1995      46.162621      20.047001      20.857         19301.529      2740.8699      4450.7324      3137.9963      696.2337       182.64768      282.02281    
  25862500   254.25095     -358.87744     -284.37359     -358.87047      0              3155.1621      45.713679      20.047001      20.857         19113.817      4560.6266      2734.3918      2170.4679      1282.5355      868.49042      1227.9723    
  25863000   257.77369     -357.77176     -282.23563     -357.77358      0              6067.732       45.964166      20.047001      20.857         19218.551      5569.0579      5781.9271      6852.2111     -1035.6221      167.51446      1229.2163    
  25863500   249.72279     -355.60722     -282.43027     -355.60672      0              4031.0032      46.139729      20.047001      20.857         19291.957      7585.942       3874.3278      632.73984      1208.4621     -615.59264     -333.70828    
  25864000   253.42791     -357.80594     -283.54326     -357.79981      0              4372.656       46.1121        20.047001      20.857         19280.405      4482.978       3723.4972      4911.4929     -240.60375      376.79096     -73.914561    
  25864500   249.31405     -359.77056     -286.71338     -359.76238      0              2559.4189      46.278635      20.047001      20.857         19350.037      3710.4606      2547.0814      1420.7147     -679.79791     -623.0101       434.97991    
  25865000   247.8732      -356.35671     -283.72175     -356.34911      0              3113.0823      46.270647      20.047001      20.857         19346.697      2842.3145      3011.9344      3484.9981     -1101.4811      1797.0611      913.24312    
  25865500   247.54402     -355.76769     -283.22918     -355.76004      0              3238.6121      46.157431      20.047001      20.857         19299.359      5100.8052      4401.4891      213.5421      -647.02789      504.99171     -1632.3618    
  25866000   249.28668     -355.71193     -282.66277     -355.699        0              4945.5474      45.927203      20.047001      20.857         19203.096      5222.0664      6362.3775      3252.1983      60.006887      891.59984     -1875.7922    
  25866500   244.46978     -359.08994     -287.45229     -359.0822       0              3651.4356      46.173101      20.047001      20.857         19305.911      4205.4542      2689.0539      4059.7988      947.74177     -907.35555     -741.22173    
  25867000   248.61356     -357.01273     -284.16081     -357.01206      0              5784.0205      46.238863      20.047001      20.857         19333.407      7384.2589      5057.2168      4910.5859     -210.76451      1956.2092     -13.685886    
  25867500   246.84371     -356.2151      -283.88181     -356.20511      0              4573.5905      45.951994      20.047001      20.857         19213.461      4859.3135      4374.0248      4487.4333     -1653.4448      114.53182     -492.88863    
  25868000   246.91913     -355.91521     -283.55982     -355.90756      0              5704.7442      46.061195      20.047001      20.857         19259.121      5767.3295      6405.9611      4940.9422      214.61091     -371.14183     -1291.2024    
  25868500   241.08486     -354.38594     -283.74018     -354.3796       0              2719.5536      46.052333      20.047001      20.857         19255.415      5420.6722      3449.8952     -711.90654     -666.55651     -209.02169     -445.40904    
  25869000   250.4604      -357.3203      -283.9272      -357.31685      0              5686.7806      46.00588       20.047001      20.857         19235.992      6325.6344      6405.6773      4329.0302     -379.74432     -748.94479      614.17017    
  25869500   252.0519      -357.64006     -283.7806      -357.62666      0              4942.3854      45.9234        20.047001      20.857         19201.506      5160.703       5099.9753      4566.4777     -802.50858      559.83945     -412.26726    
  25870000   247.77786     -357.26107     -284.65404     -357.25336      0              2418.218       46.056402      20.047001      20.857         19257.117      2440.6655      2264.2323      2549.7563     -1616.2415      615.85087     -1225.008     
  25870500   250.46016     -353.79658     -280.40355     -353.78872      0              4274.9497      45.997928      20.047001      20.857         19232.668      3960.9875      6010.6657      2853.1959      169.57848     -186.22391      292.18523    
  25871000   249.2971      -356.60588     -283.55367     -356.60347      0              5344.8098      45.887082      20.047001      20.857         19186.321      6798.4872      4471.2883      4764.6539     -40.960895      1264.4049      886.08658    
  25871500   248.64957     -357.20511     -284.34264     -357.20222      0              4150.2896      45.837655      20.047001      20.857         19165.654      3625.1138      5189.1634      3636.5917      1279.1162     -808.77685      1046.2841    
  25872000   248.71934     -357.72706     -284.84415     -357.71368      0              3935.1245      46.043653      20.047001      20.857         19251.786      5516.354       2964.9448      3324.0747      300.33731     -802.9483       538.4696     
  25872500   241.91411     -356.13609     -285.24733     -356.13043      0              5028.4499      45.951491      20.047001      20.857         19213.251      7339.3693      3174.4329      4571.5476     -228.76397     -446.25247     -714.43126    
  25873000   243.39145     -358.03463     -286.71296     -358.02153      0              3614.0593      45.682077      20.047001      20.857         19100.604      6248.1173      1771.0065      2823.054       267.74597      1829.0925     -723.87333    
  25873500   252.55662     -357.35767     -283.35031     -357.34955      0              4300.5339      45.938829      20.047001      20.857         19207.957      5235.6178      6539.6958      1126.288       1701.2159      848.67162     -474.55307    
  25874000   250.11925     -356.03412     -282.74099     -356.03269      0              4401.825       46.286994      20.047001      20.857         19353.532      3774.929       4690.5139      4740.0321     -1374.6746     -493.06743     -3.1903192    
  25874500   258.09255     -356.81481     -281.18524     -356.81203      0              3969.3344      45.982918      20.047001      20.857         19226.391      5671.2909      3400.9149      2835.7974     -1033.1059      1669.963       1906.446     
  25875000   247.01726     -356.17199     -283.78785     -356.16386      0              6076.4249      45.603022      20.047001      20.857         19067.549      7610.522       4420.2896      6198.4631     -1285.924       865.78481     -1688.9612    
  25875500   249.78193     -358.46595     -285.27167     -358.45283      0              3182.3298      45.956015      20.047001      20.857         19215.143      5223.1939      673.47439      3650.321      -1080.4101     -985.16239      168.1813     
  25876000   241.32557     -357.16682     -286.45053     -357.16         0              4440.8714      46.178769      20.047001      20.857         19308.281      6402.4887      3904.2204      3015.9052      140.02853      367.26241     -622.72423    
  25876500   248.4243      -355.02867     -282.23221     -355.02104      0              3404.9255      45.86777       20.047001      20.857         19178.246      5610.241       2207.9346      2396.601       1183.041       600.19032      487.99472    
  25877000   254.30214     -357.28272     -282.76387     -357.27994      0              5684.9976      45.691354      20.047001      20.857         19104.483      8276.0228      5946.7112      2832.2588     -1918.4809     -1652.7651      842.29683    
  25877500   257.98114     -354.57679     -278.97987     -354.56913      0              466.5161       45.943761      20.047001      20.857         19210.019      1491.3716      199.68687     -291.51018     -719.29826      721.12963     -706.17038    
  25878000   252.34792     -353.37549     -279.42929     -353.36191      0              4693.0622      46.099842      20.047001      20.857         19275.28       6389.462       2648.3962      5041.3285      1119.0447      1259.1241      567.1567     
  25878500   247.33207     -352.86901     -280.39262     -352.86851      0              3147.0892      45.796666      20.047001      20.857         19148.516      4854.2263      4369.9264      217.11484     -150.481        445.92334     -575.90632    
  25879000   252.18242     -355.0982      -281.2005      -355.09112      0              4807.833       45.88811       20.047001      20.857         19186.75       3910.1176      5147.2338      5366.1476     -251.12523      648.83348      1238.4391    
  25879500   254.22226     -354.98071     -280.48526     -354.97528      0              3754.9728      45.952614      20.047001      20.857         19213.721      4093.5015      4140.4583      3030.9587      652.93461     -363.94423     -425.09196    
  25880000   253.58643     -353.66822     -279.35909     -353.67001      0              3747.0139      46.167156      20.047001      20.857         19303.425      3823.8982      4019.1846      3397.959      -587.47909      2010.1594     -1219.5424    
  25880500   253.29356     -354.33253     -280.10922     -354.33283      0              3955.7667      46.239212      20.047001      20.857         19333.553      4381.3062      4078.7237      3407.2702      523.33881      761.55576      904.97008    
  25881000   253.10912     -355.55359     -281.38433     -355.55305      0              2920.8865      46.063653      20.047001      20.857         19260.148      3406.593       2334.4614      3021.6052     -662.87355      2115.7164     -2613.2604    
  25881500   253.31838     -354.72994     -280.49936     -354.72237      0              5384.2276      46.08953       20.047001      20.857         19270.968      7270.9314      4822.3211      4059.4303     -436.70554      672.3188      -49.624102    
  25882000   243.85256     -354.30311     -282.84632     -354.29543      0              4028.7304      46.194992      20.047001      20.857         19315.064      3883.4054      2253.0568      5949.7289      788.42134      1381.3781      236.89388    
  25882500   248.19561     -355.42251     -282.69307     -355.41049      0              4008.8743      46.280431      20.047001      20.857         19350.788      5446.2195      4489.9422      2090.4612     -344.40782     -20.589065      388.10684    
  25883000   246.7411      -358.50066     -286.19744     -358.49928      0              5226.8919      46.02337       20.047001      20.857         19243.305      7277.2419      3443.3925      4960.0413      1475.6174      694.20554      138.8197     
  25883500   254.35484     -357.77759     -283.2433      -357.77199      0              5099.4349      46.156097      20.047001      20.857         19298.801      5327.8366      3493.8512      6476.617      -248.54649     -824.39174      198.85924    
  25884000   254.47375     -354.62515     -280.056       -354.62467      0              2982.8457      46.276184      20.047001      20.857         19349.012      3975.631       2555.456       2417.45        172.82188      727.12567      2288.8656    
  25884500   251.17558     -357.77226     -284.16959     -357.76361      0              4130.1298      46.121184      20.047001      20.857         19284.203      5881.475       2717.2633      3791.6511      1082.9758      895.88689      801.55104    
  25885000   250.99801     -356.82651     -283.27587     -356.81701      0              5100.2082      45.968927      20.047001      20.857         19220.542      3916.8364      5834.6991      5549.089       1572.7355      709.89344      789.82919    
  25885500   253.00861     -357.33798     -283.19817     -357.33071      0              4910.3668      45.989791      20.047001      20.857         19229.265      6312.5366      5185.2797      3233.2839      599.6585       301.86299     -434.98839    
  25886000   257.29779     -355.94136     -280.54468     -355.94089      0              4872.8642      46.122195      20.047001      20.857         19284.626      4427.3746      5045.6994      5145.5184      49.010722      1670.1457      202.70254    
  25886500   250.88534     -356.78354     -283.26592     -356.77599      0              5444.9476      46.151125      20.047001      20.857         19296.722      6641.8361      4664.6074      5028.3994      134.49341     -315.38509      469.3825     
  25887000   244.68086     -353.24612     -281.54662     -353.24513      0              4345.9012      45.921231      20.047001      20.857         19200.599      5760.0806      3310.0195      3967.6034     -256.82328     -121.43493      702.78101    
  25887500   250.71552     -358.04176     -284.5739      -358.03383      0              4524.4831      45.875954      20.047001      20.857         19181.668      4048.665       5272.7237      4252.0606      1235.4271     -373.91234      76.005949    
  25888000   246.7729      -358.10407     -285.79153     -358.09742      0              4647.897       46.24595       20.047001      20.857         19336.37       3472.3565      6284.8763      4186.4583     -154.02399     -958.79709      133.24516    
  25888500   247.8199      -356.73336     -284.11401     -356.72555      0              3654.5952      46.266445      20.047001      20.857         19344.94       2892.5855      4167.1527      3904.0474     -106.99316      621.11145     -959.10917    
  25889000   253.61394     -356.5658      -282.24861     -356.55798      0              4412.1692      45.845211      20.047001      20.857         19168.813      6103.6625      4318.0439      2814.8013      12.367274     -394.25782      1404.7694    
  25889500   250.90012     -356.64764     -283.12569     -356.64368      0              4714.8028      46.048731      20.047001      20.857         19253.909      4282.9658      4831.6404      5029.8023     -324.28922     -1163.8432     -733.74289    
  25890000   245.96479     -354.38866     -282.31292     -354.38881      0              3918.2674      46.128913      20.047001      20.857         19287.435      5296.4767      3816.2292      2642.0961     -954.86979     -812.36218      737.19423    
  25890500   251.22499     -356.94788     -283.33073     -356.94722      0              4152.0977      46.037865      20.047001      20.857         19249.366      5671.6857      2676.8082      4107.7992      561.16338      913.92072      252.01995    
  25891000   249.24508     -358.50867     -285.4717      -358.49792      0              3205.07        46.081767      20.047001      20.857         19267.722      1279.8004      4320.6619      4014.7477      802.1327      -1188.4135     -527.43575    
  25891500   248.81996     -358.30627     -285.39388     -358.29275      0              4357.4365      45.862906      20.047001      20.857         19176.212      5294.5842      4245.3303      3532.3949      1433.9199     -168.00238      1100.2583    
  25892000   254.30615     -357.93941     -283.41939     -357.9318       0              5251.8605      45.916066      20.047001      20.857         19198.439      8231.3442      2538.6         4985.6372      185.86192      1273.9943      277.65538    
  25892500   247.88737     -356.15131     -283.51219     -356.14793      0              2700.4924      46.25421       20.047001      20.857         19339.824      2572.7036      3008.1985      2520.5752      1018.0749      164.57652     -250.15605    
  25893000   254.34437     -354.83321     -280.30198     -354.82855      0              3533.9788      46.196606      20.047001      20.857         19315.739      4156.4503      3782.5285      2662.9578      41.405277     -121.69933      1471.0299    
  25893500   254.01618     -355.91444     -281.47938     -355.90408      0              4102.6558      45.950942      20.047001      20.857         19213.022      4213.7106      4728.0496      3366.2072     -155.45363      1256.044       876.13163    
  25894000   244.55611     -356.43061     -284.76766     -356.42454      0              3513.396       46.020507      20.047001      20.857         19242.108      3783.1193      3164.1588      3592.9097      541.77876     -510.89543      904.01134    
  25894500   248.47419     -357.23493     -284.42386     -357.22155      0              3817.0717      45.983009      20.047001      20.857         19226.429      6358.756       2414.0831      2678.3761     -260.44666     -129.29156     -175.5407     
  25895000   256.78607     -354.68875     -279.44202     -354.67811      0              6134.1417      45.860678      20.047001      20.857         19175.28       8231.1768      3728.0899      6443.1585      284.18655      942.6881      -992.50094    
  25895500   247.55689     -353.59241     -281.05014     -353.5849       0              6508.8291      46.215497      20.047001      20.857         19323.638      8796.7293      5373.4106      5356.3472      276.55821     -533.4769      -1391.0341    
  25896000   253.30593     -356.02202     -281.79509     -356.01259      0              4788.0597      46.148246      20.047001      20.857         19295.518      6868.8843      4276.0298      3219.265       1590.3756      756.72054     -952.15586    
  25896500   248.81432     -354.96475     -282.054       -354.95406      0              6891.1009      45.923194      20.047001      20.857         19201.42       9855.8415      5895.4922      4921.9689      1277.2862     -164.91339      1766.2102    
  25897000   242.20339     -353.55929     -282.58577     -353.55458      0              4102.0952      46.045904      20.047001      20.857         19252.727      4744.7694      2514.622       5046.8943      1630.1541      953.26962      1270.2957    
  25897500   244.73728     -356.11662     -284.40059     -356.10825      0              5243.968       46.20435       20.047001      20.857         19318.977      5688.353       2717.3853      7326.1658      1065.1428     -17.262506     -735.00111    
  25898000   256.27143     -358.11937     -283.02345     -358.10561      0              6418.0697      45.762694      20.047001      20.857         19134.311      9058.5222      3834.7493      6360.9377      200.30084      1393.7201      2868.9302    
  25898500   246.50528     -356.13305     -283.89893     -356.11905      0              4119.9557      45.792024      20.047001      20.857         19146.575      5149.9816      2985.5843      4224.3013      366.66135     -834.56684      1040.6661    
  25899000   251.16909     -356.87879     -283.27802     -356.87043      0              4773.4811      46.144996      20.047001      20.857         19294.159      4955.1992      3368.5174      5996.7266     -44.396436     -1207.9933     -761.83371    
  25899500   245.41972     -355.86139     -283.94538     -355.84778      0              6321.5349      45.852158      20.047001      20.857         19171.718      7510.9374      4809.5862      6644.0811      213.98339     -689.2357       296.68982    
  25900000   251.53838     -354.12007     -280.41109     -354.10904      0              6428.2749      46.013603      20.047001      20.857         19239.222      7020.0022      7591.1937      4673.6289     -51.535846      676.86162      872.12583    
  25900500   253.32392     -357.49521     -283.26301     -357.49359      0              1682.7974      46.335783      20.047001      20.857         19373.932      774.94401      3549.91        723.53826      904.60756      1271.0523      790.74502    
  25901000   254.64364     -354.23371     -279.61478     -354.22487      0              4029.2157      46.064478      20.047001      20.857         19260.493      5285.9822      4587.8873      2213.7776      211.2303       1033.0537     -1690.6415    
  25901500   245.77666     -354.36893     -282.34832     -354.35736      0              3427.1545      45.951438      20.047001      20.857         19213.229      4511.5863      5109.424       660.45316     -576.15105      1255.6461     -278.31495    
  25902000   249.68466     -356.85028     -283.6845      -356.84463      0              5995.413       46.126837      20.047001      20.857         19286.567      5779.2463      6404.3682      5802.6244     -41.580283      1949.3731     -624.59135    
  25902500   248.5393      -356.9692      -284.13904     -356.95663      0              4540.6147      46.305905      20.047001      20.857         19361.439      2366.3115      6247.7016      5007.831      -45.045788      234.33523     -1810.1392    
  25903000   250.80969     -356.39069     -282.89524     -356.37625      0              5693.6172      46.083644      20.047001      20.857         19268.507      7248.0619      5083.9735      4748.8162      1166.1914      707.87473      1301.1324    
  25903500   247.71009     -355.843       -283.25583     -355.83145      0              4531.9589      46.118988      20.047001      20.857         19283.285      5168.5112      4141.0909      4286.2746     -873.34661     -1396.9201      175.47808    
  25904000   253.1654      -357.0844      -282.89865     -357.07717      0              1426.542       46.323209      20.047001      20.857         19368.674      4411.6185      2149.1647     -2281.1571      1071.0487     -1890.2598      558.08628    
  25904500   244.72546     -355.01266     -283.30009     -355.00678      0              4668.1925      46.455477      20.047001      20.857         19423.978      6550.9614      2478.0138      4975.6025     -552.74862     -1576.8072      2014.1016    
  25905000   245.06499     -354.76939     -282.95732     -354.76835      0              6545.377       46.359433      20.047001      20.857         19383.82       7157.6427      7075.1855      5403.3027      743.12874      140.91705     -1010.2902    
  25905500   245.04524     -354.18256     -282.37628     -354.17498      0              4139.5739      46.240079      20.047001      20.857         19333.916      3644.0159      4131.967       4642.739       523.10059     -445.05283      868.27324    
  25906000   249.79983     -354.91137     -281.71184     -354.9089       0              4568.7371      46.296845      20.047001      20.857         19357.651      8615.9531      3033.4282      2056.8299      1140.0991      143.06672     -99.24059     
  25906500   250.09464     -355.65344     -282.36752     -355.64358      0              2695.3088      46.314742      20.047001      20.857         19365.134      2057.782       3360.9115      2667.2328      395.28001     -1278.7195      1061.7714    
  25907000   250.01829     -358.05265     -284.78911     -358.04517      0              5031.0626      46.238476      20.047001      20.857         19333.245      5305.7605      5783.3213      4004.1061     -286.98475     -824.24082     -375.15203    
  25907500   256.51888     -353.98317     -278.81474     -353.97986      0              2852.1995      46.23957       20.047001      20.857         19333.703      2131.5447      2417.0726      4007.981       1189.4301     -1388.5306     -1417.4857    
  25908000   259.2461      -354.47777     -278.51018     -354.47352      0              4036.7089      46.232332      20.047001      20.857         19330.677      4279.8519      4192.7701      3637.5048      1467.8222     -372.3227       2588.7971    
  25908500   252.0692      -354.60616     -280.74163     -354.60195      0              5131.3329      46.44831       20.047001      20.857         19420.981      5684.4648      5886.6694      3822.8646     -2198.4654     -79.093159      1108.1505    
  25909000   247.82601     -354.00439     -281.38326     -354.00257      0              4361.6262      46.155211      20.047001      20.857         19298.431      3538.7331      6340.0302      3206.1151      1015.4645      496.34322      1570.6373    
  25909500   246.51474     -355.195       -282.95811     -355.18169      0              4540.7264      45.680171      20.047001      20.857         19099.807      5171.4144      4452.5486      3998.2161     -219.58132      61.802847      1399.1574    
  25910000   248.87671     -356.9727      -284.04368     -356.96928      0              4620.6841      45.976337      20.047001      20.857         19223.64       5200.4275      4716.4926      3945.1323      577.84337      1666.0563      619.02593    
  25910500   251.75238     -358.08998     -284.31829     -358.08553      0              3729.1145      46.363222      20.047001      20.857         19385.404      4331.3766      3640.0886      3215.8783      839.69571     -577.78071     -1453.6921    
  25911000   253.5065      -359.53388     -285.24817     -359.52639      0              4045.0157      46.059077      20.047001      20.857         19258.235      3644.5441      4376.8153      4113.6876     -3.8074868     -376.05364      749.4433     
  25911500   252.7153      -357.36749     -283.31363     -357.35687      0              6057.1937      45.956222      20.047001      20.857         19215.229      5943.8101      7026.3568      5201.4141      285.81356     -1453.9897     -456.70883    
  25912000   249.5116      -356.78336     -283.66829     -356.78096      0              3421.8336      45.953645      20.047001      20.857         19214.152      3770.8732      4429.3989      2065.2288      1646.552      -179.42288     -1276.5185    
  25912500   250.38922     -356.27368     -282.90144     -356.26496      0              3108.1429      46.083775      20.047001      20.857         19268.562      2586.9413      3931.8021      2805.6853      1879.5795     -141.17878      1339.5818    
  25913000   249.16661     -356.29461     -283.28064     -356.28517      0              5597.4367      46.023454      20.047001      20.857         19243.341      8032.9733      4284.3538      4474.9828     -552.33166     -376.80357     -1433.9923    
  25913500   244.78616     -356.99923     -285.26887     -356.98535      0              3648.8206      45.990328      20.047001      20.857         19229.49       3998.9892      3769.4862      3177.9864      12.02221       1068.7462      666.98983    
  25914000   248.63696     -357.57015     -284.71138     -357.5605       0              6398.6748      46.013737      20.047001      20.857         19239.278      5659.8201      8048.1645      5488.0396     -249.77052      954.14091      912.55897    
  25914500   251.91479     -360.41511     -286.59583     -360.40889      0              4015.6576      46.252735      20.047001      20.857         19339.207      5169.0725      4632.462       2245.4385     -1812.763       26.603072      996.55361    
  25915000   248.13037     -356.61804     -283.90771     -356.61362      0              3590.7932      46.246464      20.047001      20.857         19336.586      4343.1746      4678.4065      1750.7985     -817.15722     -45.358892     -726.10104    
  25915500   255.2988      -355.65016     -280.83925     -355.65189      0              6737.5492      46.117292      20.047001      20.857         19282.576      7659.3762      4857.3625      7695.9088     -1198.3419      617.08226      64.822479    
  25916000   247.70148     -356.81181     -284.22717     -356.80416      0              5231.6148      46.192534      20.047001      20.857         19314.036      5074.1501      7100.5306      3520.1636      151.78415      201.73689      1825.6154    
  25916500   245.27602     -354.71488     -282.84098     -354.70803      0              5394.5071      46.142489      20.047001      20.857         19293.111      4458.3986      6370.1855      5354.9372      905.80166     -2281.6754     -504.43329    
  25917000   253.04612     -355.89286     -281.74206     -355.88485      0              5286.1014      45.981567      20.047001      20.857         19225.827      6289.8045      4762.1428      4806.3568     -436.33568     -137.80504      1061.1403    
  25917500   248.84715     -356.69974     -283.77937     -356.68537      0              3610.2995      46.15106       20.047001      20.857         19296.695      3605.3214      4756.6521      2468.9251     -1465.6219     -788.94338      1997.7575    
  25918000   256.3744      -357.81418     -282.68809     -357.80576      0              4872.1633      46.376661      20.047001      20.857         19391.024      3087.5816      7367.0909      4161.8175      582.35648     -220.94402      3005.3725    
  25918500   245.79689     -357.163       -285.13646     -357.15987      0              5425.0322      46.304631      20.047001      20.857         19360.906      4688.9173      5649.3592      5936.82        255.91879     -331.94478     -893.11007    
  25919000   252.51648     -359.07562     -285.08002     -359.06921      0              4566.7407      46.043921      20.047001      20.857         19251.898      4898.8475      4637.7807      4163.5939     -1436.5764      1597.8707      400.45748    
  25919500   247.56401     -356.89201     -284.34764     -356.8836       0              5151.5646      46.007432      20.047001      20.857         19236.641      7383.209       4606.2218      3465.263       477.00406     -446.92459      2085.4792    
  25920000   256.90032     -357.57474     -282.29453     -357.56702      0              4497.9489      46.37155       20.047001      20.857         19388.886      3217.8707      4908.6141      5367.362      -479.03957      350.57915     -560.37785    
  25920500   249.24962     -356.05717     -283.01887     -356.06022      0              2949.6321      46.635623      20.047001      20.857         19499.301      4866.272       2927.6745      1054.9497      170.33241      216.9553      -1604.19      
  25921000   249.24069     -357.21295     -284.17727     -357.21331      0              6381.7565      46.011765      20.047001      20.857         19238.453      8051.3781      6307.6663      4786.2252      197.05874     -1193.7181     -562.50233    
  25921500   243.52204     -355.0478      -283.68787     -355.04731      0              2983.3708      45.920778      20.047001      20.857         19200.41       3653.8669      3367.2351      1929.0103      179.60128     -815.78649      271.80262    
  25922000   246.87925     -357.12679     -284.78309     -357.12598      0              4240.9713      46.144761      20.047001      20.857         19294.061      5464.7472      4336.6718      2921.495       372.75038      990.6886      -1503.0339    
  25922500   257.4387      -357.38552     -281.94755     -357.37799      0              2629.1949      46.346651      20.047001      20.857         19378.476      1765.1854      2845.0899      3277.3093     -916.31164     -1145.3971     -130.29043    
  25923000   246.15134     -354.07413     -281.94373     -354.07523      0              2676.5782      46.284338      20.047001      20.857         19352.421      1882.5564      4021.0823      2126.096      -1089.1752     -333.37482      1239.0838    
  25923500   245.69108     -357.00288     -285.00735     -356.99528      0              5986.4452      46.012311      20.047001      20.857         19238.681      5945.9832      7219.3165      4794.0359      585.61282     -529.21484      499.98528    
  25924000   249.32772     -354.88018     -281.81899     -354.87918      0              4442.8623      46.247246      20.047001      20.857         19336.912      4313.8931      5340.4252      3674.2685     -181.96261     -1122.8274      1439.2472    
  25924500   253.86335     -356.37477     -281.9845      -356.37285      0              1881.0175      46.106859      20.047001      20.857         19278.214      810.0203       1783.9264      3049.1057     -251.19669      1797.7466     -747.06917    
  25925000   249.06149     -354.54357     -281.5604      -354.53648      0              3682.8883      46.10392       20.047001      20.857         19276.985      6282.3376      2370.8037      2395.5235      108.08937     -1027.933       377.77857    
  25925500   249.25266     -357.33968     -284.30049     -357.3312       0              4158.3646      46.316621      20.047001      20.857         19365.919      5477.3955      4495.3238      2502.3745      862.14815      1115.4772      464.80501    
  25926000   245.01463     -357.24877     -285.45146     -357.24151      0              4126.0467      46.084063      20.047001      20.857         19268.682      4016.5462      4230.4745      4131.1193      93.82549      -1492.9042     -1696.2258    
  25926500   248.40304     -358.0851      -285.29488     -358.07767      0              4636.411       45.853897      20.047001      20.857         19172.445      3725.2738      5424.3797      4759.5795      946.1399      -1360.3496      2257.644     
  25927000   245.37536     -355.72445     -283.82143     -355.71147      0              5279.8617      46.100053      20.047001      20.857         19275.368      4171.4343      5755.0227      5913.1281      448.99089     -398.87732     -882.07161    
  25927500   251.23164     -356.10115     -282.48205     -356.09365      0              2275.5774      46.418279      20.047001      20.857         19408.425      3958.3715      2234.6574      633.70345      802.21237     -2912.8195      794.39931    
  25928000   255.61939     -359.25771     -284.35286     -359.24692      0              4984.6659      46.307612      20.047001      20.857         19362.152      5868.5433      5383.5325      3701.9219      492.82691      701.65887      1086.6932    
  25928500   248.55271     -358.81201     -285.97793     -358.80443      0              3601.9265      46.119205      20.047001      20.857         19283.376      4827.9171      3156.7623      2821.1         459.01367      238.30616      646.15069    
  25929000   246.21896     -355.42577     -283.27555     -355.42463      0              4211.9366      46.132304      20.047001      20.857         19288.853      3561.0828      6349.4194      2725.3075     -277.55273      2368.2936     -401.84195    
  25929500   247.69136     -355.96105     -283.37937     -355.95449      0              4086.8119      46.13764       20.047001      20.857         19291.084      3992.0748      5405.5166      2862.8444     -460.45701     -953.98731      1059.8253    
[...]
  28859000   248.16615     -359.26565     -286.54484     -359.26069      0              3279.7656      45.925709      20.047001      20.857         19202.471      3304.01        4046.704       2488.583       1069.0176     -319.00736      1790.7807    
  28859500   240.78271     -357.95255     -287.39533     -357.9389       0              6181.4725      45.968986      20.047001      20.857         19220.566      7375.7549      5657.2101      5511.4523     -247.33826      114.51309      272.15198    
  28860000   247.02834     -358.91524     -286.52785     -358.90025      0              6033.788       46.159601      20.047001      20.857         19300.266      6228.9614      4434.4681      7437.9345     -121.82965     -771.90385      541.51778    
  28860500   245.35677     -357.72051     -285.82294     -357.71373      0              6002.7184      46.249734      20.047001      20.857         19337.952      5036.8693      6868.2652      6103.0207     -127.13094     -45.686971     -10.358165    
  28861000   254.17059     -357.81753     -283.33722     -357.81754      0              2483.1967      46.073073      20.047001      20.857         19264.087      3532.0772      2060.4892      1857.0239     -621.9612       1531.7029      51.259384    
  28861500   250.9206      -356.72687     -283.19891     -356.71899      0              4357.8222      45.982764      20.047001      20.857         19226.327      6722.2497      2622.6537      3728.5631     -625.59609      1940.0153      1671.3853    
  28862000   249.1756      -357.00924     -283.99263     -357.00271      0              5440.6543      46.295926      20.047001      20.857         19357.267      7757.3011      3959.5393      4605.1226     -323.11933     -2197.8019     -1647.9056    
  28862500   257.23895     -357.61562     -282.23618     -357.60331      0              3283.8275      46.512293      20.047001      20.857         19447.734      3909.0652      1877.8607      4064.5568     -10.393676      917.43748      936.16986    
  28863000   254.01494     -358.21364     -283.77894     -358.19903      0              4864.0838      46.435508      20.047001      20.857         19415.628      5516.8048      5310.5447      3764.902      -782.78851      1178.0494      678.55832    
  28863500   248.2242      -358.42222     -285.6844      -358.40906      0              6323.3785      46.199487      20.047001      20.857         19316.944      6340.2392      7322.3968      5307.4994     -775.9892      -1570.358      -1585.0001    
  28864000   247.79051     -359.95417     -287.34343     -359.94069      0              4611.726       46.175283      20.047001      20.857         19306.823      3986.8563      3970.7631      5877.5584     -438.07688      1770.4553     -1471.933     
  28864500   248.20829     -359.1166      -286.38344     -359.10779      0              3647.1844      46.470767      20.047001      20.857         19430.371      4193.7669      3292.3498      3455.4365      443.18567     -807.37622      339.62299    
  28865000   246.59772     -361.2766      -289.01539     -361.27109      0              4691.4576      46.373964      20.047001      20.857         19389.896      4387.29        5984.4454      3702.6373      1102.8143     -583.46182      1075.7834    
  28865500   247.83844     -358.51512     -285.89034     -358.5094       0              4889.5775      46.244226      20.047001      20.857         19335.65       7797.6156      3978.9274      2892.1895     -1438.4753     -1234.2187      213.15773    
  28866000   249.29976     -359.44939     -286.39639     -359.44769      0              6133.7173      45.981929      20.047001      20.857         19225.978      5555.1011      6712.4812      6133.5695      660.58076     -19.154888     -614.78331    
  28866500   252.09267     -359.01341     -285.14201     -359.012        0              5156.2968      45.929024      20.047001      20.857         19203.857      6888.1209      4119.7567      4461.0128     -381.61333     -158.31908     -614.66855    
  28867000   251.83878     -360.71693     -286.91992     -360.71682      0              3149.4058      46.059949      20.047001      20.857         19258.6        3491.252       2878.1971      3078.7683      376.99986      2330.0442      84.374274    
  28867500   253.62927     -360.01768     -285.696       -360.00506      0              5721.1495      46.213831      20.047001      20.857         19322.941      6103.7483      7177.0402      3882.6599     -1284.7251      1139.066       706.99211    
  28868000   247.39033     -359.02609     -286.53262     -359.02165      0              3538.7164      46.346017      20.047001      20.857         19378.211      1930.718       5012.7608      3672.6704      217.79723     -633.82866     -359.59552    
  28868500   247.93209     -357.58491     -284.93269     -357.58548      0              5209.1834      46.066022      20.047001      20.857         19261.139      5642.2601      3497.0151      6488.2751     -52.877563      336.534       -143.6035     
  28869000   253.70686     -359.60942     -285.26501     -359.6046       0              5130.333       45.976061      20.047001      20.857         19223.525      5441.4697      3738.3223      6211.207       604.13523      914.93729      281.05998    
  28869500   257.21415     -358.96415     -283.59198     -358.95718      0              4891.1675      46.060552      20.047001      20.857         19258.852      3796.806       4744.0475      6132.649       379.78492     -395.90069      1359.388     
  28870000   253.39305     -358.58128     -284.32882     -358.5768       0              2948.9923      46.190904      20.047001      20.857         19313.355      4435.2989      2222.189       2189.4888      1090.7081     -2221.3988      358.77506    
  28870500   250.82416     -359.44323     -285.94354     -359.46441      0              5441.4805      46.212587      20.047001      20.857         19322.421      4475.1158      7822.583       4026.7427      647.49138      709.21337      1435.3846    
  28871000   251.48187     -357.74173     -284.0493      -357.73166      0              4030.2295      46.081415      20.047001      20.857         19267.575      5261.5992      2780.2081      4048.8813     -1860.1614     -264.65366      574.59526    
  28871500   252.6955      -359.61388     -285.56582     -359.63912      0              5831.2277      45.73315       20.047001      20.857         19121.958      6553.2788      6674.7143      4265.6899     -303.05852      81.488191      310.24669    
  28872000   249.6933      -355.49932     -282.331       -355.50005      0              5890.208       45.920048      20.047001      20.857         19200.104      6195.1049      6925.4334      4550.0858      124.56689     -1167.6694     -202.38794    
  28872500   250.7738      -358.48502     -285.00009     -358.47909      0              4713.3621      46.362148      20.047001      20.857         19384.955      4096.8017      4517.543       5525.7416      131.31107     -566.87329     -222.32104    
  28873000   259.11681     -358.72782     -282.7981      -358.72531      0              4305.3092      46.316382      20.047001      20.857         19365.82       6489.0363      2607.4356      3819.4557     -407.46495     -1418.3818      1193.3745    
  28873500   252.19364     -360.2533      -286.35231     -360.24954      0              4810.6331      46.009971      20.047001      20.857         19237.703      5530.8782      4190.2973      4710.7238      980.06281      810.63473      235.69024    
  28874000   251.0743      -359.36135     -285.78836     -359.35698      0              5142.9086      46.02276       20.047001      20.857         19243.05       4134.5472      6855.2509      4438.9276      39.545797      56.074835     -520.10241    
  28874500   253.18034     -357.99669     -283.80656     -357.99051      0              1182.2864      46.32735       20.047001      20.857         19370.405     -633.074        2587.1341      1592.7992     -34.724743      1789.6548      1278.1956    
  28875000   245.11019     -359.53232     -287.70701     -359.55409      0              5980.0403      46.114364      20.047001      20.857         19281.351      8935.9851      5532.0192      3472.1167     -659.55694     -508.75573      3471.3908    
  28875500   252.10781     -358.16455     -284.28871     -358.16087      0              6451.2951      45.943917      20.047001      20.857         19210.084      7006.3175      5520.743       6826.8247     -963.16784      1142.214       899.97906    
  28876000   250.91654     -358.75362     -285.22686     -358.74803      0              5202.6265      46.299052      20.047001      20.857         19358.574      5907.8532      6626.1159      3073.9105      1170.9154     -1969.6184     -376.80631    
  28876500   244.14062     -360.16695     -288.62575     -360.1632       0              4440.3265      46.576791      20.047001      20.857         19474.702      4906.838       4811.5661      3602.5753     -1610.2647     -301.99421      1364.4595    
  28877000   249.95838     -357.51563     -284.26963     -357.51339      0              4218.27        46.110863      20.047001      20.857         19279.888      4601.7766      6489.1368      1563.8968      13.197558     -408.33699      450.26032    
  28877500   247.8273      -360.93241     -288.3109      -360.93117      0              3702.8039      46.076748      20.047001      20.857         19265.624      1855.761       4987.5151      4265.1355      344.43765      81.218175      1379.0946    
  28878000   250.98922     -359.80704     -286.25898     -359.79693      0              4648.2419      46.141159      20.047001      20.857         19292.555      6040.6053      4273.9404      3630.1801     -382.03182     -463.16782      1367.2137    
  28878500   249.24472     -356.28305     -283.24618     -356.2766       0              2010.0505      46.220204      20.047001      20.857         19325.605      1466.7469      4127.4186      435.98605      1118.3236      536.51646      777.52779    
  28879000   250.41313     -358.62822     -285.24897     -358.62252      0              5638.6028      45.987493      20.047001      20.857         19228.304      4102.7506      8063.0488      4750.009      -314.1006      -86.214813      87.328387    
  28879500   250.24905     -358.23438     -284.90322     -358.22733      0              2563.9413      45.943937      20.047001      20.857         19210.093      3231.7714      1048.5467      3411.5058      845.72745     -508.13847      434.04974    
  28880000   253.5465      -359.83596     -285.53853     -359.84411      0              5302.9678      45.925644      20.047001      20.857         19202.444      5019.2875      6210.8189      4678.7971      779.22507     -979.98705     -1051.0797    
  28880500   244.59124     -358.0467      -286.37346     -358.05055      0              4481.8203      46.174762      20.047001      20.857         19306.605      4058.0439      3809.0893      5578.3279      1220.7727     -837.0307      -1360.8488    
  28881000   252.28808     -358.55957     -284.6309      -358.581        0              3888.0114      46.125279      20.047001      20.857         19285.915      3574.2732      4701.5221      3388.239       1054.1234     -1668.0359     -567.04215    
  28881500   248.70147     -357.52396     -284.64629     -357.51507      0              7596.7832      45.825785      20.047001      20.857         19160.691      8969.1299      5642.622       8178.5977      129.25225      841.09296      519.36125    
  28882000   255.68434     -356.50749     -281.58361     -356.49276      0              7260.9194      46.092347      20.047001      20.857         19272.146      2729.2137      10718.99       8334.5539     -207.45162     -252.52936      501.34371    
  28882500   254.55959     -360.29191     -285.69761     -360.28551      0              3377.5         46.378995      20.047001      20.857         19391.999      414.23783      5324.7738      4393.4884     -331.64902      1327.6941     -851.5149     
  28883000   248.35141     -356.80951     -284.03441     -356.80136      0              8052.6709      46.145625      20.047001      20.857         19294.423      10285.637      7235.4966      6636.8794      881.51627     -718.40269     -248.30913    
  28883500   252.51833     -359.99768     -286.00154     -359.9978       0              4239.3221      45.99471       20.047001      20.857         19231.322      2752.6855      6684.1843      3281.0966      375.71948     -687.35106      39.851799    
  28884000   256.28656     -358.93394     -283.83359     -358.92367      0              4175.7603      46.054261      20.047001      20.857         19256.222      5696.508       3665.7702      3165.0027     -456.10592      57.013435      1559.6152    
  28884500   244.37216     -358.00045     -286.3914      -357.9951       0              3695.7317      46.146644      20.047001      20.857         19294.849      4670.3278      2291.9769      4124.8903      830.08176      191.50109      1296.5387    
  28885000   247.92253     -358.95794     -286.30852     -358.95182      0              4355.7774      45.920687      20.047001      20.857         19200.371      5929.3632      3142.4885      3995.4806      680.62583      112.18228      4.57017      
  28885500   258.39794     -358.31476     -282.5957      -358.30888      0              5724.0313      45.848498      20.047001      20.857         19170.188      5465.4145      6655.7225      5050.9569      456.44748      405.47576     -1338.6521    
  28886000   245.82381     -357.04035     -285.00592     -357.03466      0              5639.4326      46.149585      20.047001      20.857         19296.078      4554.3904      6158.0715      6205.836       1258.9363      1681.2563     -1013.1836    
  28886500   251.36346     -360.02056     -286.36283     -360.00561      0              2526.2432      46.507268      20.047001      20.857         19445.633      1966.9405      3903.0102      1708.779      -374.92522     -660.07895      391.0383     
  28887000   255.09977     -359.12026     -284.36767     -359.11375      0              5605.4189      46.08887       20.047001      20.857         19270.692      6177.8532      5581.7144      5056.689      -173.27795      1170.3314     -1278.1006    
  28887500   244.42369     -357.06974     -285.44559     -357.05705      0              3192.6952      46.07808       20.047001      20.857         19266.181      4465.1884      2831.0858      2281.8114      326.72761     -346.48297      553.17362    
  28888000   246.52721     -360.44455     -288.20401     -360.43401      0              3152.0939      46.336673      20.047001      20.857         19374.303      4737.4524      3856.28        862.54943      399.73659     -2329.8157     -713.28209    
  28888500   246.05086     -358.41258     -286.31162     -358.401        0              5566.951       46.116344      20.047001      20.857         19282.179      6874.3404      4711.4262      5115.0864      51.01838      -1219.9404      303.82715    
  28889000   247.4637      -358.61864     -286.10367     -358.60393      0              4909.8853      46.005994      20.047001      20.857         19236.04       6774.4908      4483.2366      3471.9284     -313.1754      -608.06723     -1705.7506    
  28889500   254.0314      -358.63311     -284.1936      -358.61901      0              3048.7749      46.208997      20.047001      20.857         19320.92       6512.6418      2005.1952      628.48765      22.056457     -1274.639      -1432.2126    
  28890000   253.93977     -360.03005     -285.61738     -360.02352      0              3125.3034      46.260034      20.047001      20.857         19342.259      3000.1945      3710.5532      2665.1626      1671.8171      1347.6607     -1047.0407    
  28890500   249.33805     -358.6364      -285.57218     -358.62562      0              5042.1757      45.986034      20.047001      20.857         19227.694      7521.012       4598.9513      3006.5639     -1141.4354      721.56302      1664.6422    
  28891000   250.9455      -357.80427     -284.26902     -357.78972      0              4189.5391      46.142165      20.047001      20.857         19292.976      3517.9795      3415.9357      5634.702       447.68617      1283.755      -579.35257    
  28891500   247.34658     -358.73282     -286.25218     -358.71915      0              2546.532       46.223874      20.047001      20.857         19327.14       3386.812       2963.746       1289.038       1102.3295      1076.262       2453.9719    
  28892000   248.26105     -361.10489     -288.35627     -361.10286      0              6891.3126      45.788089      20.047001      20.857         19144.93       7158.0811      7918.4059      5597.4507      756.14752      418.51087      377.11172    
  28892500   246.7425      -357.5281      -285.22447     -357.51565      0              4071.476       46.034362      20.047001      20.857         19247.901      5308.0842      4660.7479      2245.5959      102.39459     -1639.4624      897.49172    
  28893000   250.63881     -360.15876     -286.71339     -360.15278      0              4847.6982      46.185933      20.047001      20.857         19311.276      2854.9158      7077.6099      4610.5688      1341.7876     -1032.585      -389.88632    
  28893500   244.93151     -359.58808     -287.81513     -359.57473      0              3868.1226      46.113254      20.047001      20.857         19280.887      5162.8319      1822.0253      4619.5105      1096.3752      104.51428      333.29638    
  28894000   248.81081     -358.84023     -285.93052     -358.83053      0              4990.6156      46.139662      20.047001      20.857         19291.929      7756.3847      3921.4161      3294.0458      1408.2485      623.24679     -493.5971     
  28894500   248.82387     -357.20957     -284.29603     -357.19552      0              5844.2038      46.301628      20.047001      20.857         19359.651      6224.7576      4204.6119      7103.2419     -415.52628      2041.7529      147.73588    
  28895000   248.67822     -357.71029     -284.83942     -357.70242      0              6719.4682      46.384604      20.047001      20.857         19394.345      8708.6056      4386.6297      7063.1692      151.06753      609.79818      2292.6621    
  28895500   249.88021     -358.8768      -285.65372     -358.87117      0              4472.4276      46.177357      20.047001      20.857         19307.69       6567.059       3208.9867      3641.237       249.82276      216.54001     -1786.8651    
  28896000   243.47132     -357.93426     -286.58919     -357.92668      0              4065.593       46.266692      20.047001      20.857         19345.043      4400.6774      3508.8078      4287.2937      1280.7627      2607.7237      378.79446    
  28896500   251.18222     -357.67301     -284.0684      -357.66024      0              6064.5079      46.197055      20.047001      20.857         19315.926      5482.7695      6020.2217      6690.5324     -286.47486     -474.43946     -1541.9278    
  28897000   250.36901     -356.31167     -282.94535     -356.30967      0              4680.4071      46.014428      20.047001      20.857         19239.566      4750.6355      5510.3254      3780.2606      672.56288      1481.6964     -295.92601    
  28897500   255.99373     -355.90619     -280.89164     -355.89235      0              4994.9032      46.151544      20.047001      20.857         19296.897      5267.6715      3755.4018      5961.6362     -1101.2141      276.01219     -1391.3291    
ERROR on proc 0: Cannot open restart file restart2.lmp.0: Permission denied (../write_restart.cpp:233)
Last command: run             40000000 upto
