LAMMPS (23 Jun 2022)
echo both

include		in.partitions
variable        pid world 0
include		in.temp
variable	temperature equal 250.0
variable        tempDamp equal 0.100 # this is 0.1 ps
include		in.pressure
variable        pressure equal 5066.25
variable        pressureDamp equal 1.0 #this is 1ps
include		in.seed
variable        seed world 745823

units           metal
atom_style	full
read_restart	restart.lmp.${pid}
read_restart	restart.lmp.0
Reading restart file ...
  restart file = 23 Jun 2022, LAMMPS = 23 Jun 2022
  restoring atom style full from restart
  orthogonal box = (0.61517931 0 0) to (46.83552 20.047001 20.857)
  4 by 1 by 1 MPI processor grid
Summary of lammps deepmd module ...
  >>> Info of deepmd-kit:
  installed to:       /u/sigbjobo/software/DEEPMD_FROM_SOURCE/deepmd-kit/install
  source:             v2.1.3
  source branch:       master
  source commit:      5a32c49
  source commit at:   2022-07-01 09:52:58 +0800
  surpport model ver.:1.1 
  build float prec:   double
  build with tf inc:  /u/sigbjobo/software/DEEPMD_FROM_SOURCE/tensorflow/install/include;/u/sigbjobo/software/DEEPMD_FROM_SOURCE/tensorflow/install/include
  build with tf lib:  /u/sigbjobo/software/DEEPMD_FROM_SOURCE/tensorflow/install/lib/libtensorflow_cc.so;/u/sigbjobo/software/DEEPMD_FROM_SOURCE/tensorflow/install/lib/libtensorflow_framework.so
  set tf intra_op_parallelism_threads: 0
  set tf inter_op_parallelism_threads: 0
  >>> Info of lammps module:
  use deepmd-kit at:  /u/sigbjobo/software/DEEPMD_FROM_SOURCE/deepmd-kit/install
  source:             v2.1.3
  source branch:      master
  source commit:      5a32c49
  source commit at:   2022-07-01 09:52:58 +0800
  build float prec:   double
  build with tf inc:  /u/sigbjobo/software/DEEPMD_FROM_SOURCE/tensorflow/install/include;/u/sigbjobo/software/DEEPMD_FROM_SOURCE/tensorflow/install/include
  build with tf lib:  /u/sigbjobo/software/DEEPMD_FROM_SOURCE/tensorflow/install/lib/libtensorflow_cc.so;/u/sigbjobo/software/DEEPMD_FROM_SOURCE/tensorflow/install/lib/libtensorflow_framework.so
  restoring pair style deepmd from restart
  2268 atoms
Finding 1-2 1-3 1-4 neighbors ...
  special bond factors lj:    0        0        0       
  special bond factors coul:  0        0        0       
     0 = max # of 1-2 neighbors
     0 = max # of 1-3 neighbors
     0 = max # of 1-4 neighbors
     1 = max # of special neighbors
  special bonds CPU = 0.000 seconds
  read_restart CPU = 0.016 seconds
include 	in.setup
variable	out_freq equal 500
variable	out_freq2 equal 1000
variable	out_freq3 equal 5000

timestep        0.0005

neigh_modify    delay 7 every 1

include         in.deepmd
# This is deepMD model

# create groups ###
#group ox type 2
#group hy type 1

mass 2 15.999
mass 1 1.008

pair_style      deepmd ../graph.pb
pair_coeff      * *

bond_style      none
angle_style     none
dihedral_style  none
improper_style  none
neigh_modify exclude none


neighbor        2.0 bin
neigh_modify    every 10 delay 0 check no

thermo          ${out_freq}
thermo          500
thermo_style 	custom step temp pe etotal epair emol press lx ly lz vol pxx pyy pzz pxy pxz pyz
#thermo_modify	flush yes
restart 	${out_freq} restart.lmp.${pid} restart2.lmp.${pid}
restart 	500 restart.lmp.${pid} restart2.lmp.${pid}
restart 	500 restart.lmp.0 restart2.lmp.${pid}
restart 	500 restart.lmp.0 restart2.lmp.0

include		in.dump
dump            myDump all atom ${out_freq3} dump.water.${pid}
dump            myDump all atom 5000 dump.water.${pid}
dump            myDump all atom 5000 dump.water.0
dump            myDump2 all dcd ${out_freq2} dump.dcd.${pid}
dump            myDump2 all dcd 1000 dump.dcd.${pid}
dump            myDump2 all dcd 1000 dump.dcd.0
dump_modify     myDump append yes
dump_modify     myDump2 append yes


timer           timeout 23:50:00 every 1000
New timer settings: style=normal  mode=nosync  timeout=23:50:00

fix             1 all plumed plumedfile plumed.dat outfile plumed.out
fix             3 all nph x ${pressure} ${pressure} ${pressureDamp}
fix             3 all nph x 5066.25 ${pressure} ${pressureDamp}
fix             3 all nph x 5066.25 5066.25 ${pressureDamp}
fix             3 all nph x 5066.25 5066.25 1
fix             4 all temp/csvr ${temperature} ${temperature} ${tempDamp} ${seed}
fix             4 all temp/csvr 250 ${temperature} ${tempDamp} ${seed}
fix             4 all temp/csvr 250 250 ${tempDamp} ${seed}
fix             4 all temp/csvr 250 250 0.1 ${seed}
fix             4 all temp/csvr 250 250 0.1 745823

run             40000000 upto

CITE-CITE-CITE-CITE-CITE-CITE-CITE-CITE-CITE-CITE-CITE-CITE-CITE

Your simulation uses code contributions which should be cited:

- USER-DEEPMD package:

@article{Wang_ComputPhysCommun_2018_v228_p178,
  author = {Wang, Han and Zhang, Linfeng and Han, Jiequn and E, Weinan},
  doi = {10.1016/j.cpc.2018.03.016},
  url = {https://doi.org/10.1016/j.cpc.2018.03.016},
  year = 2018,
  month = {jul},
  publisher = {Elsevier {BV}},
  volume = 228,
  journal = {Comput. Phys. Commun.},
  title = {{DeePMD-kit: A deep learning package for many-body potential energy representation and molecular dynamics}},
  pages = {178--184}
}

CITE-CITE-CITE-CITE-CITE-CITE-CITE-CITE-CITE-CITE-CITE-CITE-CITE

Generated 0 of 1 mixed pair_coeff terms from geometric mixing rule
Neighbor list info ...
  update every 10 steps, delay 0 steps, check no
  max neighbors/atom: 2000, page size: 100000
  master list distance cutoff = 8
  ghost atom cutoff = 8
  binsize = 4, bins = 12 6 6
  1 neighbor lists, perpetual/occasional/extra = 1 0 0
  (1) pair deepmd, perpetual
      attributes: full, newton on
      pair build: full/bin
      stencil: full/bin/3d
      bin: standard
Per MPI rank memory allocation (min/avg/max) = 6.186 | 6.187 | 6.188 Mbytes
   Step          Temp          PotEng         TotEng         E_pair         E_mol          Press            Lx             Ly             Lz           Volume          Pxx            Pyy            Pzz            Pxy            Pxz            Pyz      
  15134000   246.93972     -357.40512     -285.04369     -357.40512      0              4908.7316      46.22034       20.047001      20.857         19325.663      4962.1722      6196.6669      3567.3556     -112.77905      493.63004     -811.39405    
  15134500   249.15998     -356.79152     -283.77948     -356.77128      0              5013.0618      46.148753      20.047001      20.857         19295.73       5356.5076      4802.1265      4880.5514      892.0446       341.1208       1940.6019    
  15135000   257.8175      -359.89624     -284.34727     -359.87594      0              3922.4712      46.36917       20.047001      20.857         19387.891      4241.1054      5525.3732      2000.9349     -107.57925      164.4251      -1322.8977    
  15135500   252.43968     -359.50517     -285.53208     -359.489        0              2384.8791      46.444267      20.047001      20.857         19419.291      4796.6952      779.34861      1578.5934     -123.98488      524.9318       1022.6552    
  15136000   252.52893     -356.63102     -282.63177     -356.61334      0              6039.7454      46.092458      20.047001      20.857         19272.192      6963.6014      7096.4057      4059.2292      382.82532     -1693.1488     -900.66436    
  15136500   255.66887     -357.05136     -282.13201     -357.03055      0              4147.693       46.238088      20.047001      20.857         19333.083      5143.6852      3776.4275      3522.9664     -507.67239     -432.21396      411.57714    
  15137000   252.67992     -356.9335      -282.89001     -356.91359      0              3911.3812      46.455712      20.047001      20.857         19424.076      5025.6692      2092.5111      4615.9635     -4.8110847      128.5505      -601.87124    
  15137500   257.84337     -361.24369     -285.68714     -361.25525      0              5577.0638      46.382085      20.047001      20.857         19393.291      7652.3961      4456.1497      4622.6457      958.05244      838.53736     -532.55314    
  15138000   248.23067     -358.12154     -285.38182     -358.10266      0              4625.3084      46.50408       20.047001      20.857         19444.3        4188.4279      4687.4142      5000.0831     -567.92351     -163.44941      902.43302    
  15138500   250.41257     -358.35653     -284.97744     -358.33709      0              2984.6433      46.497039      20.047001      20.857         19441.356      3889.0427      4546.1245      518.7626       1029.4754      39.154219     -1438.6035    
  15139000   243.37472     -355.08014     -283.76338     -355.06033      0              5077.0354      46.30033       20.047001      20.857         19359.108      3405.49        6518.9079      5306.7082     -308.85971      1520.6973      792.35557    
  15139500   247.24129     -358.12878     -285.67899     -358.11062      0              4215.6593      46.322808      20.047001      20.857         19368.506      4765.4041      3879.1976      4002.3763     -1119.1438      340.73932     -1951.9214    
  15140000   248.87777     -357.10212     -284.17279     -357.08078      0              3505.929       46.295258      20.047001      20.857         19356.987      5332.5256      3925.1878      1260.0736      205.36592     -1146.603      -202.55926    
  15140500   242.8322      -356.93305     -285.77526     -356.91369      0              2648.8167      46.280352      20.047001      20.857         19350.755      3353.8482      3540.2741      1052.3277     -652.47233      271.81275      1315.808     
  15141000   256.05337     -357.62908     -282.59705     -357.60921      0              4240.618       46.210864      20.047001      20.857         19321.7        5159.8739      4633.5982      2928.382      -1319.1269      572.12354      1603.4155    
  15141500   250.20937     -355.93979     -282.62025     -355.92027      0              3059.9066      46.394416      20.047001      20.857         19398.447      2876.9809      4653.3398      1649.3989     -192.29981      70.076223      1543.6947    
  15142000   250.10519     -358.22773     -284.93872     -358.20835      0              3150.7761      46.509819      20.047001      20.857         19446.699      5356.4209      1493.5421      2602.3652     -589.43202     -552.48155     -487.92275    
  15142500   245.18272     -355.94597     -284.09941     -355.92836      0              3114.1638      46.473485      20.047001      20.857         19431.508      6153.9552      2222.7155      965.82057     -156.49446      732.48377     -865.30336    
  15143000   254.75485     -355.35079     -280.69928     -355.32889      0              4320.8468      46.52896       20.047001      20.857         19454.703      5909.561       4003.6006      3049.3787     -1844.7406     -723.75884      233.38135    
  15143500   252.85143     -355.73485     -281.6411      -355.71569      0              780.25402      46.532433      20.047001      20.857         19456.155      1264.1944      2180.8552     -1104.2875      2431.9913      1350.3798     -990.84535    
  15144000   248.18171     -353.50593     -280.78056     -353.48665      0              5541.9499      46.279163      20.047001      20.857         19350.258      7020.6363      6017.3867      3587.8267      515.47427     -1200.3964      1205.1779    
  15144500   255.40225     -353.64886     -278.80764     -353.62676      0              4054.0068      46.320549      20.047001      20.857         19367.562      4289.0035      4099.2517      3773.765       497.3828      -1026.0687      2760.3405    
  15145000   247.95704     -355.08242     -282.42289     -355.06207      0              3187.8543      46.73105       20.047001      20.857         19539.201      5315.4098      949.14742      3299.0058     -83.600252     -149.7281       583.82832    
  15145500   250.96906     -358.22264     -284.68049     -358.202        0              4307.1161      46.611451      20.047001      20.857         19489.194      5277.6501      4948.0944      2695.6036      1138.6536      469.70386      1568.9205    
  15146000   253.52502     -356.8646      -282.57346     -356.84526      0              5475.8304      46.237838      20.047001      20.857         19332.979      7370.941       5436.1285      3620.4216      10.307009     -171.72432     -109.97264    
  15146500   255.49498     -356.18512     -281.31672     -356.16322      0              6027.3421      46.150231      20.047001      20.857         19296.348      7760.9765      4692.3244      5628.7255     -97.426428      556.54327     -860.21271    
  15147000   254.97604     -356.36963     -281.6533      -356.34754      0              5443.4697      46.348594      20.047001      20.857         19379.288      7212.2317      4290.0689      4828.1086      1040.3129      163.07298     -210.59906    
  15147500   250.15204     -357.3868      -284.08406     -357.36745      0              2257.3656      46.285746      20.047001      20.857         19353.01       4502.8303      4133.8707     -1864.6042      55.489522      479.99175      206.19302    
  15148000   250.66058     -359.73312     -286.28136     -359.7139       0              5065.9967      46.151463      20.047001      20.857         19296.864      6277.1669      3906.5454      5014.2778      172.48503     -1087.4172     -325.24667    
  15148500   244.82412     -359.94463     -288.20315     -359.92257      0              2538.688       46.518222      20.047001      20.857         19450.213      834.26039      4618.0604      2163.7433     -1142.7797     -1119.6061      2664.8182    
  15149000   253.6586      -358.0581      -283.72782     -358.03918      0              2245.3994      46.293437      20.047001      20.857         19356.226      1786.7388      1883.8006      3065.6588     -284.11478      1874.017      -424.51481    
  15149500   245.70784     -356.06597     -284.06553     -356.05249      0              4294.0911      46.211826      20.047001      20.857         19322.103      4101.7218      6280.617       2499.9344      1691.7716     -488.21147     -142.1932     
  15150000   249.59439     -357.16972     -284.03039     -357.14875      0              2674.9729      46.247064      20.047001      20.857         19336.836      3901.4137      5028.9623     -905.45739     -596.16789     -1677.1918     -29.83207     
  15150500   249.33422     -357.50023     -284.43714     -357.48059      0              4739.4292      46.496823      20.047001      20.857         19441.266      4865.8464      5977.0343      3375.4067      1219.4711     -803.98926     -578.5278     
  15151000   252.66216     -358.2023      -284.16401     -358.18319      0              3060.6102      46.607788      20.047001      20.857         19487.662      2506.4459      4599.6952      2075.6894      943.39671     -1096.4717      603.52632    
  15151500   249.42344     -356.6563      -283.56706     -356.63425      0              6110.0229      46.143993      20.047001      20.857         19293.74       8125.6722      5476.6141      4727.7825     -408.65543      690.4829      -178.5786     
  15152000   241.42729     -357.20085     -286.45475     -357.18435      0              2817.6792      45.990242      20.047001      20.857         19229.454      3231.3469      2346.1798      2875.511       28.998471     -687.98884      1377.8026    
  15152500   249.67106     -358.39462     -285.23282     -358.37437      0              4336.0315      46.193918      20.047001      20.857         19314.615      3528.6124      4636.4934      4842.9887      730.29855      305.1657      -313.6397     
  15153000   250.02118     -357.42898     -284.16459     -357.41344      0              4447.784       46.176471      20.047001      20.857         19307.32       3795.2832      5755.4463      3792.6225      634.144       -697.34259      2826.4548    
  15153500   254.52011     -358.96064     -284.37791     -358.9463       0              3494.2801      45.836071      20.047001      20.857         19164.992      3910.4697      2677.7525      3894.6181     -4.9489005      686.31245     -632.79357    
  15154000   245.83875     -358.10847     -286.06966     -358.08828      0              6328.9729      45.857569      20.047001      20.857         19173.98       8706.1784      5499.3781      4781.3621      1092.1467      513.91411     -383.14542    
  15154500   244.84571     -356.92121     -285.17339     -356.90195      0              2004.499       46.273814      20.047001      20.857         19348.021      2374.6998      1954.3044      1684.4928     -356.75323     -1750.4612     -566.23226    
  15155000   247.87408     -359.53144     -286.89621     -359.53074      0              4966.5072      46.002919      20.047001      20.857         19234.754      6837.0671      4071.1719      3991.2826      873.4487       416.64307     -1552.4127    
  15155500   245.03954     -360.13941     -288.33479     -360.13096      0              3184.2116      46.166365      20.047001      20.857         19303.094      2381.3585      5817.5778      1353.6984      923.03517     -960.26952      801.05303    
  15156000   250.7433      -358.42687     -284.95088     -358.40671      0              3477.2061      46.044732      20.047001      20.857         19252.237      80.535612      6075.4137      4275.669       675.81906      531.20023     -2178.7794    
  15156500   252.67538     -358.34551     -284.30335     -358.32641      0              2198.2054      45.922217      20.047001      20.857         19201.011      3743.595       2392.5769      458.44438      662.80412     -1100.5346      2032.3577    
  15157000   244.93214     -359.53768     -287.76454     -359.51977      0              4088.3879      46.223796      20.047001      20.857         19327.108      4315.2716      3548.491       4401.4011     -1738.2033     -980.97334     -599.06594    
  15157500   249.01426     -357.77692     -284.80759     -357.75686      0              3886.9093      46.46965       20.047001      20.857         19429.904      4085.034       4414.3135      3161.3805      566.2354       106.99128      555.9861     
  15158000   250.21943     -355.35268     -282.03019     -355.33247      0              3392.2401      46.279628      20.047001      20.857         19350.452      3604.9035      4166.0057      2405.811      -1070.8271     -1757.8555      566.21669    
  15158500   256.70008     -358.80783     -283.5863      -358.81387      0              5148.5314      46.111323      20.047001      20.857         19280.08       5144.9588      3832.5929      6468.0424     -764.26099     -12.537711      140.71892    
  15159000   259.02088     -355.99098     -280.08938     -355.97175      0              3681.3262      46.21195       20.047001      20.857         19322.154      6245.7873      3724.2749      1073.9164      299.47664     -855.24434      171.15427    
  15159500   254.22524     -357.39708     -282.90076     -357.37571      0              4278.4563      46.496801      20.047001      20.857         19441.257      4259.1979      4614.98        3961.1909     -1066.5243     -272.95387      799.99281    
  15160000   256.02751     -354.23811     -279.21366     -354.23054      0              5570.3332      46.117863      20.047001      20.857         19282.815      7227.5347      4500.0795      4983.3854     -1077.6724      265.82542     -466.4935     
  15160500   246.09793     -355.83083     -283.71608     -355.81149      0              4123.6064      45.886421      20.047001      20.857         19186.044      6424.7576      4573.2745      1372.7871     -160.03141      32.107843      768.95202    
  15161000   254.14942     -356.01786     -281.54376     -356.00057      0              6028.4652      45.996837      20.047001      20.857         19232.211      8026.6276      6008.8926      4049.8754      311.44781     -371.22815      1214.7136    
  15161500   252.25311     -357.23382     -283.31539     -357.21207      0              4358.3614      46.271958      20.047001      20.857         19347.245      3207.777       5488.5366      4378.7707      124.65528     -245.34293      381.26691    
  15162000   245.95276     -356.07984     -284.00763     -356.06659      0              3504.4943      46.028653      20.047001      20.857         19245.514      5081.3557      4529.2849      902.84224     -133.52123     -641.96777     -31.956027    
  15162500   251.00954     -355.64931     -282.09529     -355.62922      0              5209.2288      46.086894      20.047001      20.857         19269.866      6566.3741      3574.0894      5487.2229     -139.72499      237.68206      1234.077     
  15163000   243.48458     -356.91757     -285.56862     -356.89946      0              5704.0401      46.422659      20.047001      20.857         19410.256      6772.7823      5179.1843      5160.1538      1284.4965      224.64023     -85.856028    
  15163500   247.21636     -354.88887     -282.44638     -354.86695      0              4275.7268      46.570774      20.047001      20.857         19472.186      6359.4695      3168.3788      3299.3322      46.477164     -40.706967      1550.693     
  15164000   258.20303     -353.42954     -277.76759     -353.41357      0              6360.1053      46.185035      20.047001      20.857         19310.901      6635.1263      7597.2426      4847.9469      466.73959     -35.871905      207.7678     
  15164500   249.28906     -353.91611     -280.86625     -353.89649      0              5337.872       46.117531      20.047001      20.857         19282.676      6302.1682      4466.8315      5244.6163     -1014.0357     -1820.6071     -156.66505    
  15165000   260.0883      -354.99441     -278.78002     -354.97251      0              3845.213       46.256113      20.047001      20.857         19340.62       5557.0625      4383.8042      1594.7722      688.93038      1398.289      -1157.1384    
  15165500   250.39864     -355.86022     -282.48521     -355.8401       0              4896.9618      46.35944       20.047001      20.857         19383.823      5167.0753      4454.4834      5069.3266     -679.99343      397.27878     -117.21243    
  15166000   250.17722     -357.00642     -283.69631     -356.98628      0              4736.6631      46.157507      20.047001      20.857         19299.391      6539.0666      3648.3423      4022.5803     -144.23089     -873.4288       121.60189    
  15166500   251.22935     -355.70617     -282.08774     -355.68706      0              4467.0822      46.383576      20.047001      20.857         19393.915      4342.8093      2448.5836      6609.8537     -225.93674      150.92631      1937.8257    
  15167000   252.97583     -355.49566     -281.36546     -355.4787       0              3881.7173      46.29181       20.047001      20.857         19355.545      5051.1975      4140.3495      2453.6051      1177.0505     -19.145651      888.99891    
  15167500   249.42256     -357.77408     -284.6851      -357.75399      0              6060.6933      45.927729      20.047001      20.857         19203.316      7995.1101      4992.4906      5194.4793     -87.729345      199.1731      -796.67052    
  15168000   245.33545     -357.38236     -285.49104     -357.36301      0              1999.7326      46.117877      20.047001      20.857         19282.821      3848.4867      415.21376      1735.4975      1103.1603      1455.5111      859.63873    
  15168500   241.62976     -356.34739     -285.54196     -356.32738      0              3931.6433      46.101451      20.047001      20.857         19275.953      4529.9612      3753.3085      3511.6603      325.86888     -369.29921      354.76211    
  15169000   245.22946     -357.53005     -285.66979     -357.51065      0              4204.3466      45.854328      20.047001      20.857         19172.626      6190.123       3363.999       3058.9178     -137.86629     -1266.9429     -9.856012     
  15169500   254.39011     -358.301       -283.75636     -358.28397      0              2676.5527      45.906659      20.047001      20.857         19194.506      3114.4054      2226.554       2688.6986      986.62045      7.8760353      222.04274    
  15170000   252.372       -359.11291     -285.15965     -359.09914      0              3077.5321      46.185384      20.047001      20.857         19311.047      5482.9644      2413.9721      1335.6599     -463.80082     -749.83131      487.94599    
  15170500   254.03394     -359.68224     -285.24198     -359.71632      0              4650.4277      46.235855      20.047001      20.857         19332.15       2964.3453      5895.5653      5091.3725      1159.9287      1365.0038     -1364.2406    
  15171000   250.09313     -357.9197      -284.63423     -357.9282       0              7959.7067      45.979569      20.047001      20.857         19224.991      7863.9001      9206.1178      6809.1022      730.33773     -738.9629       132.47746    
  15171500   252.21684     -358.96883     -285.06104     -358.95057      0              5826.4902      45.894587      20.047001      20.857         19189.458      4330.7692      5915.2449      7233.4566     -544.58513      2.2620527     -1593.3666    
  15172000   256.83472     -358.36551     -283.10452     -358.35006      0              4238.7706      46.117432      20.047001      20.857         19282.635      3681.3058      4823.3873      4211.6188     -1178.3942      260.1488       182.50269    
  15172500   248.88246     -356.12337     -283.19266     -356.10994      0              3453.5039      46.145974      20.047001      20.857         19294.569      4610.7996      3407.57        2342.1421      1520.8552     -726.81973      127.00821    
  15173000   254.37346     -358.68427     -284.14451     -358.68924      0              6318.6998      46.00302       20.047001      20.857         19234.797      6145.4603      8069.3277      4741.3115     -839.21304      204.49091      143.47495    
  15173500   258.50757     -356.65571     -280.90453     -356.63581      0              3189.704       45.950888      20.047001      20.857         19212.999      3425.9197      1684.9674      4458.2249      906.48548     -796.63025     -153.83481    
  15174000   253.14476     -358.90307     -284.72337     -358.88318      0              4193.4195      45.87314       20.047001      20.857         19180.491      4522.4675      5802.4406      2255.3504     -259.40422      936.19077     -555.89375    
  15174500   249.98871     -357.85339     -284.59852     -357.83652      0              2627.6777      45.936024      20.047001      20.857         19206.784      1957.4069      2398.0613      3527.5649      400.52644     -271.13188     -1439.6299    
  15175000   244.2344      -356.63909     -285.07041     -356.61699      0              5761.5162      45.890903      20.047001      20.857         19187.918      4495.6992      7025.3124      5763.5369     -558.20803     -731.84916     -652.24541    
  15175500   253.52297     -357.87889     -283.58836     -357.85926      0              3682.8648      46.210368      20.047001      20.857         19321.493      2418.2142      5645.9061      2984.4742      456.2902      -360.47156     -1229.3685    
  15176000   248.59551     -355.60264     -282.75602     -355.58053      0              2704.9382      46.055945      20.047001      20.857         19256.925      4259.4446      1646.4877      2208.8823     -714.09663     -508.39679     -889.91083    
  15176500   251.25929     -356.50797     -282.88077     -356.48597      0              5032.2257      45.826229      20.047001      20.857         19160.877      6600.9039      6719.0626      1776.7105      625.80854     -268.27659     -1675.1238    
  15177000   253.81091     -356.21071     -281.8358      -356.19128      0              5427.9646      45.811311      20.047001      20.857         19154.639      6679.8631      4042.9266      5561.1041     -978.7771      -1142.4953      159.66687    
  15177500   251.20811     -356.43152     -282.81932     -356.41132      0              2759.157       45.957799      20.047001      20.857         19215.889      3398.1711      2780.1175      2099.1823     -1070.5954      68.464305     -363.28977    
  15178000   246.01993     -356.99916     -284.90726     -356.97909      0              4857.6739      46.055597      20.047001      20.857         19256.78       5549.0527      4495.0988      4528.8702     -192.32681     -1696.1517     -219.88202    
  15178500   248.93753     -357.00435     -284.0575      -356.98604      0              4879.7036      45.702322      20.047001      20.857         19109.068      5751.3126      4618.663       4269.1354     -491.1586      -11.324477     -595.09239    
  15179000   247.58919     -358.52041     -285.96867     -358.49884      0              5542.0706      45.838537      20.047001      20.857         19166.023      4665.8784      4990.4281      6969.9054      370.94508     -682.52798     -315.08465    
  15179500   244.4927      -358.36948     -286.72511     -358.3496       0              3766.8041      46.156203      20.047001      20.857         19298.846      5485.2439      3468.5853      2346.5833      102.08492     -95.662909     -847.62386    
  15180000   249.50592     -356.77367     -283.66026     -356.75251      0              3041.5974      46.11564       20.047001      20.857         19281.885      2045.9438      1405.9908      5672.8576     -579.9072       308.51067      1097.9279    
  15180500   250.41683     -355.89946     -282.51913     -355.87817      0              4549.6629      45.749844      20.047001      20.857         19128.939      6310.4703      4817.7003      2520.818      -457.90244      247.76679      408.05892    
  15181000   253.41561     -357.43154     -283.17247     -357.41151      0              5916.8712      45.739389      20.047001      20.857         19124.567      7138.7894      4386.4221      6225.4021      527.12323      325.03524     -527.34295    
  15181500   250.44104     -355.35386     -281.96643     -355.33386      0              3981.2964      46.079252      20.047001      20.857         19266.671      3842.2313      4698.042       3403.6159      267.43086     -1595.2885      779.45329    
  15182000   245.86777     -356.71923     -284.67193     -356.69742      0              4515.492       46.161261      20.047001      20.857         19300.96       6743.0169      3735.1087      3068.3505     -429.84397      1210.9999      1038.9109    
  15182500   252.15567     -356.48194     -282.59207     -356.45995      0              5993.4676      46.015865      20.047001      20.857         19240.167      8443.6101      4627.3001      4909.4925      264.62882     -1444.0546     -558.0804     
  15183000   255.68536     -355.49141     -280.56723     -355.46968      0              3697.0954      45.836158      20.047001      20.857         19165.028      2541.4447      6754.9597      1794.8817     -999.28018      359.73536      476.53373    
  15183500   257.2769      -353.47646     -278.0859      -353.45572      0              4824.0416      46.022736      20.047001      20.857         19243.04       5879.7586      4514.9767      4077.3896      113.63167      1811.9573     -1804.7216    
  15184000   250.47074     -356.20063     -282.80451     -356.17876      0              4192.4457      46.186739      20.047001      20.857         19311.613      4808.7276      4273.088       3495.5214     -686.99021     -127.10569     -1122.5325    
  15184500   250.89194     -356.99338     -283.47383     -357.01385      0              6119.1955      45.724863      20.047001      20.857         19118.494      6460.3353      5919.9408      5977.3104     -426.93583     -455.66365      208.98233    
  15185000   259.15277     -357.26298     -281.32273     -357.24614      0              5295.9737      45.791243      20.047001      20.857         19146.248      6985.2627      3207.1596      5695.4987      229.71295      207.46043      722.62454    
  15185500   252.43033     -356.95595     -282.9856      -356.95679      0              4499.5594      46.202566      20.047001      20.857         19318.231      5265.8385      4484.5762      3748.2636     -1294.9132      860.54529     -651.06186    
  15186000   252.22518     -358.65247     -284.74223     -358.63546      0              4534.7496      46.106856      20.047001      20.857         19278.212      3261.2908      5579.5347      4763.4233     -106.79268      509.46365     -230.72899    
  15186500   252.82009     -356.17344     -282.08887     -356.15451      0              4317.9006      46.059633      20.047001      20.857         19258.467      3531.5609      4905.1696      4516.9713     -70.926598     -1999.4141     -1256.0923    
  15187000   247.47495     -357.14625     -284.62798     -357.12623      0              2674.8795      46.138084      20.047001      20.857         19291.27       3042.7949      3082.5416      1899.302       462.23963      803.2851       597.56691    
  15187500   248.94394     -355.71097     -282.76225     -355.69183      0              3499.5646      46.040601      20.047001      20.857         19250.51       4790.1414      1969.222       3739.3304     -77.74871      -347.27618      575.95583    
  15188000   252.87483     -354.96863     -280.86802     -354.9493       0              3711.7708      46.03292       20.047001      20.857         19247.298      5595.0631      502.56577      5037.6835      1515.0437     -1199.3154     -76.432219    
  15188500   247.10294     -357.80404     -285.39479     -357.78207      0              2234.1111      45.954109      20.047001      20.857         19214.346      2817.7785      3437.656       446.89874     -1167.323       2275.6508      631.52026    
  15189000   253.12416     -355.80028     -281.62662     -355.77866      0              7027.3029      45.774046      20.047001      20.857         19139.058      9323.3707      6329.2129      5429.3251      315.43321      1537.085       208.56384    
  15189500   247.37119     -356.99877     -284.51091     -356.98235      0              4208.5698      46.089143      20.047001      20.857         19270.806      5050.8284      2814.3797      4760.5012     -392.32904      469.35484     -63.923375    
  15190000   257.50538     -355.37227     -279.91476     -355.35324      0              3723.0022      46.41565       20.047001      20.857         19407.325      5574.7735      1333.331       4260.902      -249.55555      1122.6318      435.29344    
  15190500   250.16319     -356.05667     -282.75067     -356.03486      0              4599.6191      46.268856      20.047001      20.857         19345.948      6627.6194      3147.369       4023.8688     -686.39795     -254.72727     -653.69667    
  15191000   244.75127     -357.25861     -285.53847     -357.23873      0              3932.6458      46.211555      20.047001      20.857         19321.989      4963.989       3570.6555      3263.2929     -618.31278      164.38069      439.08306    
  15191500   255.65772     -357.80326     -282.88718     -357.78128      0              4954.3126      46.147582      20.047001      20.857         19295.241      5230.2106      2843.4791      6789.2479      490.78145     -967.41186     -640.6743     
  15192000   252.53453     -358.27712     -284.27623     -358.25795      0              3959.5831      46.030158      20.047001      20.857         19246.143      5013.8412      4645.9338      2218.9743      711.1432       990.53492      1778.9204    
  15192500   253.86981     -356.00413     -281.61196     -355.98518      0              3662.2435      46.233186      20.047001      20.857         19331.034      4530.8114      3027.3417      3428.5774      307.55403      2861.0302     -923.43719    
  15193000   249.98236     -357.09924     -283.84622     -357.07824      0              1921.6586      46.351413      20.047001      20.857         19380.467      2968.7207     -121.566        2917.8211      1344.3449     -1594.0073      463.32325    
  15193500   249.74189     -354.78455     -281.602       -354.7665       0              6476.5437      46.150508      20.047001      20.857         19296.464      8943.9786      5233.447       5252.2055      813.46141      1127.4816      404.58226    
  15194000   258.25991     -359.5543      -283.87569     -359.53362      0              4572.4126      46.117562      20.047001      20.857         19282.689      5403.6393      3679.7296      4633.8688      1516.2478     -342.33551      47.803296    
  15194500   255.00607     -358.72233     -283.9972      -358.70236      0              4050.7443      46.400246      20.047001      20.857         19400.885      2782.6816      6623.9222      2745.629      -89.612835      335.80972     -308.82093    
  15195000   250.50345     -356.89599     -283.49028     -356.87806      0              3795.068       46.363276      20.047001      20.857         19385.427      5571.9331      2333.5493      3479.7217     -481.15568      775.71318      322.53529    
  15195500   255.32476     -355.66118     -280.84266     -355.64474      0              4843.7569      46.049207      20.047001      20.857         19254.108      4158.3666      4837.303       5535.6011      126.55173      126.74108      1096.7475    
  15196000   246.72916     -353.82799     -281.52827     -353.80797      0              4320.8253      45.90976       20.047001      20.857         19195.803      3986.8573      4505.516       4470.1026      820.80603      537.10742      491.95307    
  15196500   246.89941     -355.74724     -283.39763     -355.72825      0              4785.5974      46.247875      20.047001      20.857         19337.175      3920.9033      5733.9346      4701.9544     -403.2942      -1263.8626      806.31523    
  15197000   261.62406     -355.04513     -278.38071     -355.02333      0              3826.4995      46.173482      20.047001      20.857         19306.07       4123.9844      5076.8676      2278.6465      1085.166       379.45919      132.02561    
  15197500   253.31814     -356.76239     -282.53187     -356.74344      0              3722.0025      45.839159      20.047001      20.857         19166.283      4241.0249      3279.9214      3645.0613     -143.32457     -1024.8626      400.37312    
  15198000   254.98215     -355.1999      -280.48177     -355.18202      0              4991.6354      45.926507      20.047001      20.857         19202.805      5453.0838      4613.6453      4908.1771      340.96855      196.9248      -844.704      
  15198500   247.19654     -358.05479     -285.61811     -358.03499      0              3613.2797      46.569424      20.047001      20.857         19471.621      4673.8199      3000.6368      3165.3824      834.24684      753.40368     -765.50436    
  15199000   244.54091     -359.13741     -287.47891     -359.11549      0              5620.8859      46.55251       20.047001      20.857         19464.549      6912.2509      4404.0798      5546.3271     -862.53299      42.771404      225.97445    
  15199500   246.04169     -357.99361     -285.89534     -357.97223      0              3449.4754      46.083155      20.047001      20.857         19268.303      5349.6582      3166.0504      1832.7177      666.40326      143.32685     -408.64826    
  15200000   248.22764     -354.68285     -281.94402     -354.66324      0              3635.0366      45.88293       20.047001      20.857         19184.585      7192.0154      2529.9542      1183.1403     -1144.0416      390.25202      60.541647    
  15200500   251.57618     -355.1925      -281.47244     -355.17346      0              4297.6703      46.182512      20.047001      20.857         19309.846      5809.0584      4448.115       2635.8376      932.80841     -235.29526     -1069.708     
  15201000   251.48543     -357.80502     -284.11155     -357.78364      0              3778.7629      46.320808      20.047001      20.857         19367.67       4310.6675      5136.4791      1889.1422     -739.50538      1164.8276      16.442142    
  15201500   244.87154     -356.69469     -284.93931     -356.67744      0              4774.848       45.965069      20.047001      20.857         19218.928      4648.5018      5677.1168      3998.9255     -191.67495      1450.2304      114.02138    
  15202000   250.23399     -358.38926     -285.06251     -358.37019      0              8156.5648      45.707921      20.047001      20.857         19111.41       10789.101      5307.2956      8373.2984     -62.775915      1464.3187      972.41848    
  15202500   247.31698     -354.60447     -282.13249     -354.5903       0              5013.5828      46.041507      20.047001      20.857         19250.889      7858.3526      2984.2247      4198.171       3264.3207      1148.1987      277.89539    
  15203000   249.87066     -359.22992     -286.00964     -359.2108       0              3572.4561      46.070096      20.047001      20.857         19262.842      5932.0109      2021.0765      2764.281      -652.21563     -730.85651      382.96416    
  15203500   250.18506     -357.99979     -284.68738     -357.97889      0              6715.9564      45.954317      20.047001      20.857         19214.433      5868.8331      7295.4309      6983.6051      1215.8841     -181.78442      766.29362    
  15204000   248.23679     -357.92827     -285.18676     -357.92012      0              4866.909       45.864114      20.047001      20.857         19176.717      6907.3748      3855.5503      3837.8019     -587.26904      2220.6905     -53.136461    
  15204500   246.49719     -357.49305     -285.2613      -357.47614      0              3767.9619      45.95705       20.047001      20.857         19215.576      4477.9483      5501.3687      1324.5687      181.01403      1742.0876      1046.7304    
  15205000   242.22776     -356.10885     -285.12818     -356.08704      0              4959.1298      45.909936      20.047001      20.857         19195.876      7983.5638      2407.8845      4485.941      -1227.8329     -211.37485     -1205.4319    
  15205500   254.48074     -357.86026     -283.28906     -357.83906      0              3737.2018      45.789075      20.047001      20.857         19145.342      4647.7876      4270.8858      2292.9322     -51.061823      2765.9907      1889.847     
  15206000   256.31778     -353.60658     -278.49707     -353.58751      0              3931.1814      45.77091       20.047001      20.857         19137.746      6884.3812      2214.0605      2695.1025     -412.29134      1818.1026      1541.5712    
  15206500   251.42177     -356.43402     -282.75921     -356.41394      0              5701.3309      45.977347      20.047001      20.857         19224.062      6485.7752      7351.1221      3267.0953      121.41834      559.45296     -366.87047    
  15207000   249.81482     -356.63213     -283.42821     -356.61287      0              3153.327       46.129761      20.047001      20.857         19287.79       3593.8771      2551.2396      3314.8644      266.70976      1144.9171     -627.41157    
  15207500   249.83693     -355.20707     -281.99666     -355.1863       0              6038.4933      46.123093      20.047001      20.857         19285.002      7380.8966      6933.299       3801.2844      137.04738     -1771.5077      213.36311    
  15208000   252.75515     -357.18429     -283.11876     -357.16234      0              4901.3201      46.242521      20.047001      20.857         19334.937      4580.8268      5734.5408      4388.5925     -311.02385     -360.38821      400.56516    
  15208500   250.20688     -357.67809     -284.35928     -357.65797      0              3339.949       46.20596       20.047001      20.857         19319.65       4116.0812      3816.7968      2086.969       1408.8656      1292.6721      387.86697    
  15209000   252.13266     -357.46231     -283.57918     -357.44127      0              4026.8403      46.047535      20.047001      20.857         19253.409      5307.6718      2193.1548      4579.6942     -466.01283     -963.6245       2032.3429    
  15209500   251.1169      -357.88969     -284.30421     -357.87038      0              5395.3883      46.118         20.047001      20.857         19282.872      7566.6976      4607.4544      4012.0129     -789.34939      746.59272      1009.7196    
  15210000   248.44893     -357.18156     -284.37788     -357.16163      0              4345.3621      46.034132      20.047001      20.857         19247.805      6363.8108      4642.7712      2029.5042     -624.27478     -516.11745     -1002.388     
  15210500   242.43142     -359.90103     -288.86068     -359.88123      0              3249.3997      45.825774      20.047001      20.857         19160.686      5231.7465      2064.6114      2451.8412      380.70467     -1184.8315     -117.51104    
  15211000   242.28013     -359.47544     -288.47943     -359.45647      0              5847.1659      46.089647      20.047001      20.857         19271.017      4492.2838      7215.921       5833.293       1251.6718      171.53158     -420.29876    
  15211500   249.68199     -358.16072     -284.99571     -358.14147      0              4086.7632      46.399014      20.047001      20.857         19400.369      4769.985       5752.0257      1738.2789     -763.18361     -2526.1059      374.10239    
  15212000   253.02937     -355.29176     -281.14587     -355.26984      0              4294.6137      46.340916      20.047001      20.857         19376.078      5328.5573      4622.0506      2933.2333      59.67577       2028.966       592.37886    
  15212500   252.64489     -360.25486     -286.22163     -360.23501      0              2784.6762      46.18132       20.047001      20.857         19309.347      1385.9942      5609.4475      1358.5868     -1559.2135      144.44087     -1633.3612    
  15213000   245.80807     -359.61055     -287.58073     -359.59149      0              5078.4605      46.035646      20.047001      20.857         19248.438      5328.1227      6863.14        3044.1187     -361.6563      -491.99879     -170.73189    
  15213500   243.97798     -356.42841     -284.93487     -356.41105      0              3293.3182      46.185697      20.047001      20.857         19311.178      3505.2209      2682.0011      3692.7324     -300.51789      259.38767      194.00645    
  15214000   244.83253     -356.48482     -284.74087     -356.46633      0              3385.9797      46.367061      20.047001      20.857         19387.01       4105.191       2822.4592      3230.2888      571.30753      586.83364     -51.817892    
  15214500   242.76916     -355.82989     -284.69057     -355.81146      0              4012.6261      46.006316      20.047001      20.857         19236.175      3875.3924      4121.7852      4040.7007      345.69182     -66.912654      3343.9755    
  15215000   249.83858     -357.82112     -284.61024     -357.80007      0              4027.4182      45.86796       20.047001      20.857         19178.325      4404.6032      5558.0919      2119.5594     -400.45774     -1096.1209      1308.4174    
  15215500   249.48012     -358.1841      -285.07825     -358.16459      0              5424.491       46.133155      20.047001      20.857         19289.209      7729.84        5627.9566      2915.6763      68.737375      629.8355      -1142.6863    
  15216000   252.4191      -359.55628     -285.58922     -359.53662      0              3181.4684      46.232341      20.047001      20.857         19330.68       2900.9104      4848.1807      1795.314      -1656.6844     -136.20958      869.58013    
  15216500   255.96038     -355.74478     -280.74001     -355.72488      0              5272.0487      46.053514      20.047001      20.857         19255.909      5046.9259      4625.6067      6143.6134     -984.70106      2563.0935      888.54844    
  15217000   250.40298     -357.0574      -283.68113     -357.03845      0              5702.5304      46.249346      20.047001      20.857         19337.79       5837.2242      5773.1706      5497.1966     -633.00112      3435.3355     -925.73959    
  15217500   251.92245     -356.95378     -283.13226     -356.94054      0              3618.4852      46.242495      20.047001      20.857         19334.926      4311.5896      3262.4803      3281.3857      910.20329     -1004.4937     -285.31585    
  15218000   255.73948     -355.09938     -280.15934     -355.08036      0              5034.7526      46.114661      20.047001      20.857         19281.476      4564.8395      5354.024       5185.3944      631.62873     -776.36614      962.98104    
  15218500   246.21711     -356.22145     -284.07178     -356.20152      0              6716.6678      46.119214      20.047001      20.857         19283.38       5474.5162      8666.9161      6008.571       206.48887      637.05436      1506.2535    
  15219000   245.95111     -357.42605     -285.35432     -357.41212      0              4682.4539      46.152709      20.047001      20.857         19297.385      4475.6883      5200.8704      4370.803      -1364.4588     -930.66698     -607.97104    
  15219500   251.51331     -354.87251     -281.17087     -354.8537       0              6494.2476      46.105431      20.047001      20.857         19277.617      7721.8098      6581.1283      5179.8046      444.24091      580.28218      152.68178    
  15220000   248.46955     -356.40581     -283.59609     -356.38693      0              2349.8373      46.023377      20.047001      20.857         19243.308      2556.1266      1486.6841      3006.7012     -841.84215     -324.09809     -258.31326    
  15220500   248.90071     -358.79843     -285.86237     -358.77905      0              5335.2742      45.819267      20.047001      20.857         19157.966      6980.5442      6082.6521      2942.6264      828.72024     -620.6908       751.06382    
  15221000   252.82687     -358.2384      -284.15184     -358.21956      0              5079.2904      45.899123      20.047001      20.857         19191.355      7344.8298      1916.8038      5976.2375     -712.02937      1379.7864      1604.3447    
  15221500   252.14156     -358.07913     -284.19339     -358.05725      0              4158.9337      46.163853      20.047001      20.857         19302.044      6623.4199      2381.1701      3472.2111      914.91204     -290.93951      73.65225     
  15222000   256.33956     -356.33757     -281.22168     -356.318        0              4661.9914      45.886617      20.047001      20.857         19186.126      5586.5575      3893.7024      4505.7144     -617.8879      -647.56982      1748.1366    
  15222500   251.36657     -356.14069     -282.48205     -356.12346      0              4463.988       45.872068      20.047001      20.857         19180.043      6975.2511      1082.9198      5333.793      -1579.1055     -22.423011     -434.80551    
  15223000   246.09555     -359.05292     -286.93887     -359.03208      0              3436.3613      46.281343      20.047001      20.857         19351.169      4125.1405      2385.382       3798.5615      636.49405     -236.71373      580.31916    
  15223500   244.90626     -359.10931     -287.34375     -359.08855      0              5477.1657      46.152079      20.047001      20.857         19297.121      6118.9081      4637.2309      5675.358      -135.70356     -1034.4008      1755.4393    
  15224000   245.10991     -359.26167     -287.43644     -359.24259      0              4003.3017      45.659132      20.047001      20.857         19091.01       6560.2732      4849.187       600.44477      238.23739      175.19216      584.05937    
  15224500   251.35054     -357.4189      -283.76496     -357.3997       0              4380.181       45.796472      20.047001      20.857         19148.435      4020.7575      4638.9582      4480.8273     -701.99778      392.96893     -256.61151    
  15225000   250.99277     -358.0834      -284.5343      -358.06475      0              4165.6575      46.047706      20.047001      20.857         19253.481      6718.2042      3976.8541      1801.9143     -838.97534      673.26766      2620.9027    
  15225500   246.67408     -357.81634     -285.53276     -357.79754      0              4636.3931      45.953626      20.047001      20.857         19214.144      4728.8794      5329.1684      3851.1314      2734.1429      126.99625     -506.42216    
  15226000   250.67518     -356.98104     -283.52501     -356.95915      0              5634.3305      45.947551      20.047001      20.857         19211.604      5133.8871      6215.4299      5553.6745     -536.48401      682.10376      1181.7089    
  15226500   246.53759     -355.35804     -283.11445     -355.33692      0              6260.2788      45.724985      20.047001      20.857         19118.544      6844.0729      7010.0668      4926.6968     -250.87075     -440.16788      1237.399     
  15227000   247.89009     -356.07153     -283.43162     -356.0497       0              3409.1343      46.056258      20.047001      20.857         19257.057      5052.2402      2692.542       2482.6208      871.36636      1986.1398      1139.2382    
  15227500   244.81278     -357.96598     -286.22782     -357.96343      0              5795.843       46.159611      20.047001      20.857         19300.27       5757.1688      6083.952       5546.4082      173.15729      56.66643      -275.67667    
  15228000   248.1943      -357.17164     -284.44258     -357.15276      0              3907.008       46.079879      20.047001      20.857         19266.933      5834.5715      3308.78        2577.6726      429.35408      2611.6574     -2121.516     
  15228500   248.0016      -357.59868     -284.92609     -357.57882      0              3645.4422      46.073456      20.047001      20.857         19264.247      5791.5732      2192.4986      2952.2549      943.30743      345.05559      1087.8182    
  15229000   252.4151      -359.02037     -285.05448     -359.0019       0              4548.4582      46.24844       20.047001      20.857         19337.411      4469.8952      5512.2174      3663.2621      150.37861      839.06263      91.205511    
  15229500   253.82271     -358.14978     -283.77142     -358.12997      0              3402.9126      46.378289      20.047001      20.857         19391.704      4396.065       2827.8405      2984.8324     -584.92553     -1123.3555     -1188.1081    
  15230000   244.29069     -356.59055     -285.00538     -356.57694      0              4762.5195      46.130194      20.047001      20.857         19287.971      4951.0978      4241.755       5094.7057      343.05816      1372.9515      1446.7615    
  15230500   253.51413     -359.68125     -285.39331     -359.66249      0              4358.3883      46.145261      20.047001      20.857         19294.27       5502.7206      5435.7431      2136.7013      764.43432      2086.9991     -76.849814    
  15231000   249.88699     -358.42583     -285.20076     -358.40598      0              4726.7441      46.220668      20.047001      20.857         19325.799      5855.9108      5034.6043      3289.7172     -398.76022      294.30208     -212.73917    
  15231500   244.9568      -356.52345     -284.74308     -356.50536      0              4545.8949      46.120701      20.047001      20.857         19284.001      2877.7763      7502.225       3257.6832      249.24368     -715.64023     -1854.9042    
  15232000   251.35797     -358.12121     -284.46509     -358.10433      0              5986.2512      45.9068        20.047001      20.857         19194.565      7007.9622      5016.9222      5933.869      -829.22659      766.50755      319.56798    
  15232500   247.72996     -359.3593      -286.76631     -359.33983      0              915.63761      45.963956      20.047001      20.857         19218.463      2088.7553      1324.5314     -666.37386     -854.92823     -1372.646       535.7965     
  15233000   251.30291     -357.31766     -283.67768     -357.29624      0              3664.0206      46.15555       20.047001      20.857         19298.573      5167.8962      4026.7072      1797.4584     -321.60184     -1240.5897     -780.51285    
  15233500   246.51113     -354.48019     -282.24436     -354.46418      0              4584.8947      46.027118      20.047001      20.857         19244.872      5016.3919      5545.1542      3193.1382     -1209.3541      951.45581      1167.6177    
  15234000   252.13418     -356.29483     -282.41126     -356.273        0              4059.3929      46.020339      20.047001      20.857         19242.038      5918.2565      4419.5162      1840.4061      291.85726     -117.70683     -1299.7933    
  15234500   250.48727     -357.37061     -283.96963     -357.35094      0              3790.5742      46.167756      20.047001      20.857         19303.676      3545.167       5247.6033      2578.9523      366.13286     -1882.2257      1482.2939    
  15235000   249.62018     -357.39515     -284.24826     -357.37411      0              4418.6946      45.972622      20.047001      20.857         19222.087      6418.8242      2105.5578      4731.7019     -456.9808       428.90398     -189.55051    
  15235500   251.77237     -357.28293     -283.50538     -357.26331      0              2728.9809      45.932512      20.047001      20.857         19205.316      2631.949       1975.5936      3579.4         1174.025      -361.75067     -121.71094    
  15236000   252.99938     -357.56734     -283.43023     -357.54571      0              3344.6241      46.205197      20.047001      20.857         19319.331      4511.4593      2938.0578      2584.3552      83.261226      458.87377     -36.468587    
  15236500   248.89586     -357.21013     -284.2755      -357.19579      0              2963.8404      46.214609      20.047001      20.857         19323.266      3886.2908      3347.5492      1657.6812     -421.75057     -401.2669       1135.2666    
  15237000   249.30268     -357.70671     -284.65286     -357.68583      0              4601.4612      45.842443      20.047001      20.857         19167.656      5573.5717      3373.4235      4857.3883     -440.55443     -324.03448      523.15065    
  15237500   244.4208      -357.16979     -285.54649     -357.1507       0              5712.2649      45.940565      20.047001      20.857         19208.683      5387.4146      6899.7586      4849.6216      921.22659      1396.3413      1087.0911    
  15238000   252.21193     -358.91887     -285.01251     -358.90286      0              2612.6299      46.315617      20.047001      20.857         19365.5        3414.8032      1841.0505      2582.036      -1837.0334     -487.6064       56.800413    
  15238500   243.92646     -357.06768     -285.58924     -357.04843      0              6062.9495      46.309544      20.047001      20.857         19362.96       6728.4438      5409.6717      6050.7331     -321.01318     -592.9708      -284.14657    
  15239000   240.81627     -353.84642     -283.27937     -353.82585      0              5168.4855      46.147671      20.047001      20.857         19295.278      6969.0848      3531.2969      5005.0747     -640.0107      -670.8965       1718.8701    
  15239500   253.14462     -354.90291     -280.72325     -354.88733      0              3471.3331      46.634662      20.047001      20.857         19498.899      3998.4209      3840.9589      2574.6195     -330.3891      -241.72069     -894.75267    
  15240000   252.20321     -357.98525     -284.08145     -357.96348      0              6043.9609      46.30817       20.047001      20.857         19362.386      5319.1251      7512.8903      5299.8673     -518.10145     -1677.4998      1236.6971    
  15240500   250.44671     -355.44291     -282.05382     -355.42119      0              4544.3683      46.0834        20.047001      20.857         19268.405      4548.5394      5717.3301      3367.2354     -1315.5852      1019.7211      259.40242    
  15241000   257.89378     -359.9235      -284.35218     -359.90462      0              4181.6017      46.203782      20.047001      20.857         19318.739      8535.6731      1159.05        2850.0819      748.36794      1577.8082     -954.30745    
  15241500   251.97438     -356.69334     -282.85659     -356.67424      0              4237.3013      46.476288      20.047001      20.857         19432.679      3937.3275      4033.0932      4741.4833     -219.59579      1996.1777     -385.07444    
  15242000   250.37221     -355.90804     -282.54079     -355.88635      0              4376.0579      46.401085      20.047001      20.857         19401.236      5697.9955      4251.886       3178.2922     -156.50936     -930.39227     -1691.7989    
  15242500   253.65136     -355.7373      -281.40914     -355.71597      0              6006.1394      45.97991       20.047001      20.857         19225.134      5549.3109      6134.9397      6334.1676     -1558.3091      1189.1026     -415.61349    
  15243000   250.72062     -356.34426     -282.8749      -356.32267      0              2394.5304      45.99318       20.047001      20.857         19230.682      2692.7523      2976.556       1514.283       642.2353       76.739719      662.9845     
  15243500   253.43319     -357.7766      -283.51237     -357.76293      0              4307.2147      46.058949      20.047001      20.857         19258.182      4448.5108      4717.8258      3755.3075      396.06972     -54.867267      1749.3734    
  15244000   249.79617     -356.20979     -283.01133     -356.18994      0              3648.4926      45.911049      20.047001      20.857         19196.342      4541.3149      3482.3445      2921.8184      1814.2847      2242.663       1137.5201    
  15244500   245.35484     -356.74822     -284.85122     -356.72917      0              4066.7886      45.983454      20.047001      20.857         19226.616      5493.8634      5034.5976      1671.9048      923.16138     -565.0671       647.86715    
  15245000   249.22089     -356.11003     -283.08015     -356.09019      0              4753.1522      46.022593      20.047001      20.857         19242.98       4243.1664      5868.1735      4148.1165      730.84123     -92.815538     -1336.4818    
  15245500   244.34056     -356.82456     -285.22477     -356.80856      0              3898.8123      46.051871      20.047001      20.857         19255.222      4493.0584      1973.0147      5230.364       412.13066     -19.791038      289.21533    
  15246000   242.91576     -356.49675     -285.31448     -356.47719      0              3610.8394      45.991016      20.047001      20.857         19229.778      4353.4626      3762.97        2716.0857      260.26007     -869.20789     -41.329629    
  15246500   246.07814     -357.05445     -284.9455      -357.03603      0              4076.6088      45.921897      20.047001      20.857         19200.877      5873.9833      3902.4399      2453.4032     -25.496314      427.98375     -450.27372    
  15247000   244.29384     -355.72289     -284.13679     -355.70408      0              5276.9512      45.989015      20.047001      20.857         19228.941      9670.6705      2376.306       3783.8773     -271.1606       193.86815     -168.49009    
  15247500   252.64323     -357.62904     -283.5963      -357.60736      0              3339.7758      46.352596      20.047001      20.857         19380.961      1948.0309      4044.2204      4027.0761     -621.43907      1131.8867     -196.24033    
  15248000   251.1835      -358.1267      -284.52171     -358.10738      0              7220.168       46.178911      20.047001      20.857         19308.34       7739.6729      7577.634       6343.1971      288.57276      1870.4998     -903.8108     
  15248500   252.83207     -356.60221     -282.51413     -356.58345      0              6163.4542      45.64731       20.047001      20.857         19086.067      6903.9978      6682.1068      4904.2578     -906.23755     -1081.7405      1051.4483    
  15249000   251.1812      -356.27246     -282.66814     -356.2548       0              6584.6363      45.833057      20.047001      20.857         19163.731      7573.425       7591.5024      4588.9815      172.84406     -1033.8064     -823.08906    
  15249500   253.76957     -359.25584     -284.89305     -359.23602      0              3804.4713      46.27448       20.047001      20.857         19348.3        2000.956       5137.5463      4274.9116      1105.8899      1081.1424     -114.04266    
  15250000   242.20186     -357.56401     -286.59093     -357.54443      0              4093.8797      46.034909      20.047001      20.857         19248.13       4957.5799      4114.0513      3210.0077     -750.27896      733.43613      575.8487     
  15250500   249.5353      -356.86067     -283.73866     -356.84177      0              4773.511       45.804006      20.047001      20.857         19151.585      5821.6502      3993.9412      4504.9416      364.40584      716.43762     -1139.6908    
  15251000   243.70655     -357.03554     -285.62154     -357.01593      0              5548.1544      46.104411      20.047001      20.857         19277.19       3946.3034      7065.5058      5632.6541      1140.8196     -1081.9472     -859.49654    
  15251500   246.40437     -360.15442     -287.94987     -360.13314      0              2682.3099      46.120435      20.047001      20.857         19283.89       5252.6416      2716.1598      78.128255     -678.63092     -1127.386      -467.47316    
  15252000   248.6783      -359.35918     -286.48829     -359.38376      0              5385.8405      46.067807      20.047001      20.857         19261.885      5590.7221      5458.7413      5108.0582     -731.95738     -906.15932     -682.21437    
  15252500   250.77481     -358.69289     -285.20766     -358.67338      0              6215.0533      46.327687      20.047001      20.857         19370.546      7760.4443      5617.5538      5267.1619      1756.8421     -541.97341      833.04896    
  15253000   250.58346     -356.82625     -283.39709     -356.8067       0              3796.9552      46.39294       20.047001      20.857         19397.83       5133.4471      4353.9515      1903.467      -1317.0891      373.7637       516.51683    
  15253500   253.47841     -358.22034     -283.94287     -358.20087      0              4937.6597      46.072285      20.047001      20.857         19263.758      6142.6529      4358.1299      4312.1963      1733.2836     -336.51035     -1497.2744    
  15254000   253.48619     -358.64686     -284.36711     -358.6299       0              4795.3623      46.093176      20.047001      20.857         19272.492      7385.2536      3128.0887      3872.7445      357.7723       813.62218      565.83209    
  15254500   241.62166     -355.9243      -285.12124     -355.90462      0              4621.6848      46.223128      20.047001      20.857         19326.828      7159.7453      2455.3566      4249.9526     -218.73607     -7.1415221     -902.76803    
  15255000   249.78042     -358.50995     -285.31611     -358.48904      0              3782.4198      46.231506      20.047001      20.857         19330.331      5676.6096      3515.962       2154.6878      645.41535      797.81085      536.95592    
  15255500   257.29339     -359.00999     -283.6146      -358.98896      0              4782.4549      46.093083      20.047001      20.857         19272.454      6104.7294      4178.7636      4063.8718      185.08704     -770.92036      927.53591    
  15256000   247.96653     -357.12912     -284.46681     -357.11031      0              3916.1891      46.082267      20.047001      20.857         19267.931      4542.7988      3133.1686      4072.6001     -65.351246     -762.89464     -209.35549    
  15256500   254.91685     -357.98428     -283.2853      -357.96383      0              3425.8625      46.223886      20.047001      20.857         19327.145      5098.5937      3116.2138      2062.7799      108.66817     -465.45322      1191.1817    
  15257000   245.71327     -358.94622     -286.94419     -358.92704      0              7357.1743      46.337739      20.047001      20.857         19374.749      7183.5516      7878.743       7009.2284     -213.72355     -2196.0215     -287.58703    
  15257500   258.24921     -360.60672     -284.93124     -360.58615      0              3784.4054      46.317001      20.047001      20.857         19366.078      3664.3294      5487.2323      2201.6545     -17.006357     -1607.2072     -14.767479    
  15258000   256.1246      -359.09854     -284.04565     -359.07971      0              2965.3937      46.012229      20.047001      20.857         19238.647      1398.8936      3782.9141      3714.3734     -1470.6551     -341.11655      1005.7635    
  15258500   252.68364     -358.48473     -284.44015     -358.46594      0              5402.3951      46.060059      20.047001      20.857         19258.646      5604.9179      5454.0114      5148.2559      90.27341      -850.64198      1000.5738    
  15259000   255.30079     -356.62407     -281.81258     -356.60505      0              3994.7053      46.247451      20.047001      20.857         19336.998      5002.5244      4074.8518      2906.7399     -657.79875     -699.06556      1485.7722    
  15259500   252.48759     -358.50118     -284.51405     -358.48001      0              2696.1001      46.488329      20.047001      20.857         19437.714      4749.9304      1387.9691      1950.4008      439.69426      61.558028     -1073.808     
  15260000   258.59102     -358.68717     -282.91153     -358.66807      0              1739.4716      46.341885      20.047001      20.857         19376.483      3021.9455     -842.76697      3039.2361      1392.8083      66.939162     -1595.5597    
  15260500   247.5054      -359.05596     -286.52877     -359.03596      0              3422.6357      45.962035      20.047001      20.857         19217.66       3657.4585      3905.8383      2704.6105      1779.1812      1220.0105      403.18303    
  15261000   250.24436     -357.96677     -284.63698     -357.94722      0              3749.935       46.018072      20.047001      20.857         19241.09       5469.6149      3164.1401      2616.0501      792.50044      474.89506     -273.14336    
  15261500   247.00832     -358.70022     -286.31869     -358.71687      0              5637.5967      46.301063      20.047001      20.857         19359.414      6974.5455      4844.1854      5094.0592      282.44111     -663.47379      767.08913    
  15262000   242.14559     -357.75591     -286.79932     -357.73634      0              2333.8182      46.670324      20.047001      20.857         19513.81       3385.793       1034.7381      2580.9234     -218.06194      140.17204      2582.7917    
  15262500   247.02966     -357.60965     -285.22187     -357.59053      0              3539.4135      46.391278      20.047001      20.857         19397.135      4620.0581      6177.4322     -179.24971      557.8469       14.634619      1561.4846    
  15263000   248.90974     -358.13318     -285.19447     -358.11412      0              5735.6528      46.109956      20.047001      20.857         19279.509      6274.1452      4956.0341      5976.7789     -773.029        94.763094     -23.17032     
  15263500   249.47392     -358.02744     -284.92341     -358.00577      0              4843.2136      46.304085      20.047001      20.857         19360.678      4280.1867      7039.1003      3210.3538     -254.59874      288.28736     -2926.9663    
  15264000   249.53985     -359.54003     -286.41668     -359.51833      0              3992.5964      46.397887      20.047001      20.857         19399.898      5330.2564      3638.1396      3009.3931     -374.30358     -1733.388       1241.9772    
  15264500   253.90164     -358.33877     -283.93727     -358.32003      0              4107.0789      46.133607      20.047001      20.857         19289.398      4171.7892      5150.7684      2998.6791      122.14468      2121.4848      502.33781    
  15265000   244.75474     -360.33678     -288.61562     -360.31814      0              3828.838       46.202284      20.047001      20.857         19318.113      3970.7774      3935.8531      3579.8835      532.55474      389.10958     -795.96074    
  15265500   244.91357     -360.58107     -288.81337     -360.56208      0              2350.8147      46.372814      20.047001      20.857         19389.415      4019.3882      722.03225      2311.0235     -372.381       -657.30854     -417.37084    
  15266000   251.05109     -360.07169     -286.5055      -360.05531      0              3534.989       46.40814       20.047001      20.857         19404.186      3348.3468      3634.8869      3621.7331     -369.62748     -1618.4689     -1047.9493    
  15266500   249.74875     -357.17629     -283.99172     -357.15507      0              5021.7111      46.210581      20.047001      20.857         19321.582      6458.3265      5105.0073      3501.7996      1045.4307     -174.46619     -3114.1964    
  15267000   251.61981     -356.96909     -283.23624     -356.952        0              4183.5177      46.224701      20.047001      20.857         19327.486      4820.2001      2657.8749      5072.478       254.62666     -1338.3896      467.63749    
  15267500   250.48931     -359.11291     -285.71134     -359.09449      0              4417.6897      46.261809      20.047001      20.857         19343.001      3470.8923      6767.3313      3014.8454      1529.7384     -2312.95       -576.19577    
  15268000   252.95408     -360.98067     -286.85684     -360.96065      0              4284.7865      46.299898      20.047001      20.857         19358.927      5031.3971      3347.4702      4475.4924      355.53897     -557.9888       1905.1398    
  15268500   252.33839     -358.29775     -284.35434     -358.28447      0              2498.575       45.975373      20.047001      20.857         19223.237      4223.4169      1586.4523      1685.8556     -198.60725     -384.50652     -658.28431    
  15269000   242.49194     -359.38826     -288.33018     -359.36874      0              4441.5829      45.737665      20.047001      20.857         19123.846      5359.3075      1277.0967      6688.3444      413.84257      427.93537      303.59773    
  15269500   246.74165     -359.82401     -287.52063     -359.80533      0              3871.0701      46.305841      20.047001      20.857         19361.412      5161.4232      3343.5171      3108.27        1528.2858     -1735.9053     -15.254013    
  15270000   249.17669     -359.1714      -286.15447     -359.15006      0              3610.4989      46.58404       20.047001      20.857         19477.733      2898.3425      1685.2129      6247.9412     -1004.3292      1302.1258     -1160.82      
  15270500   254.1454      -359.71389     -285.24096     -359.70296      0              4084.9801      46.072161      20.047001      20.857         19263.706      5489.4503      3617.0041      3148.4858      1086.9345     -971.04114     -661.44047    
  15271000   251.02851     -358.46939     -284.90982     -358.45048      0              5180.5808      46.126901      20.047001      20.857         19286.594      6622.9613      5332.7991      3585.9821     -818.32879      1336.1562     -505.30974    
  15271500   253.77208     -357.20252     -282.83899     -357.18131      0              2392.5831      46.324337      20.047001      20.857         19369.146      2772.2882      3017.4014      1388.0598      972.54731     -1425.7951      2199.8814    
  15272000   250.16438     -357.96969     -284.66333     -357.94854      0              5027.3179      46.379033      20.047001      20.857         19392.015      4440.986       4694.3113      5946.6564     -91.4921       -1783.8237     -1675.9089    
  15272500   252.24602     -360.50034     -286.584       -360.48173      0              5903.1213      46.338296      20.047001      20.857         19374.982      6280.1522      7155.0901      4274.1217      839.87643     -1239.4062     -297.14748    
  15273000   246.19133     -363.17363     -291.03151     -363.15838      0              5159.11        46.221662      20.047001      20.857         19326.215      7691.1434      2471.0649      5315.1217      841.97637     -1631.0506      955.15262    
  15273500   251.0903      -360.84635     -287.26867     -360.8273       0              3570.1959      46.296906      20.047001      20.857         19357.676      3961.5711      3058.4778      3690.5388      1672.7841     -789.20056      715.69141    
  15274000   249.43412     -358.48448     -285.39211     -358.46445      0              4798.6227      46.557886      20.047001      20.857         19466.797      3638.3962      6091.5622      4665.9098     -176.39056     -535.62739      200.40937    
  15274500   246.48878     -355.9605      -283.73121     -355.94084      0              7148.0821      46.295561      20.047001      20.857         19357.114      9138.9932      5735.1934      6570.0598      1429.162      -1341.8979     -1235.9827    
  15275000   252.78237     -359.26815     -285.19463     -359.25275      0              3125.1153      46.235438      20.047001      20.857         19331.975      4993.3885      2172.6299      2209.3276     -290.80622     -33.887179      168.08804    
  15275500   248.02344     -358.72188     -286.04289     -358.70117      0              4190.3714      46.433665      20.047001      20.857         19414.858      5400.5775      4810.7166      2359.8201      947.39455      265.54604      57.729946    
  15276000   250.28458     -359.16209     -285.82051     -359.14258      0              5309.1173      46.460272      20.047001      20.857         19425.983      5422.8145      6490.0623      4014.4753      503.41784      1042.3509      1446.5457    
  15276500   254.97186     -358.38211     -283.667       -358.3633       0              3225.4202      46.434156      20.047001      20.857         19415.063      4034.187       2442.2144      3199.8591      674.51435     -1171.3653      354.3805     
  15277000   249.09937     -357.36554     -284.37127     -357.3453       0              5927.3545      46.169221      20.047001      20.857         19304.289      7813.8684      5087.2176      4880.9777     -685.51407      1309.9838     -561.24116    
  15277500   253.39795     -358.53404     -284.28014     -358.51542      0              4559.8445      46.266079      20.047001      20.857         19344.787      4164.1946      5609.0312      3906.3077      477.30112      178.55808     -522.22433    
  15278000   246.24554     -357.2321      -285.0741      -357.21305      0              3030.2104      46.415314      20.047001      20.857         19407.185      975.00632      3808.0103      4307.6145      1166.0403      879.35582      2017.4764    
  15278500   251.55083     -357.74109     -284.02846     -357.72205      0              6485.2592      46.071395      20.047001      20.857         19263.385      5002.42        7893.7928      6559.5649      1138.9806      208.24797      1212.4433    
  15279000   245.25881     -356.77126     -284.9024      -356.77177      0              4652.7039      46.006833      20.047001      20.857         19236.391      5209.6412      5620.5129      3127.9576      1101.4775      1530.0877      941.32475    
  15279500   240.56572     -355.82937     -285.33574     -355.81278      0              4727.4285      46.274519      20.047001      20.857         19348.316      5916.6304      2435.1587      5830.4964     -300.92606     -1657.9555      129.32354    
  15280000   248.99674     -358.82372     -285.85952     -358.81011      0              3512.3306      46.52787       20.047001      20.857         19454.247      5117.1149      4616.6822      803.19476     -332.48619      351.50261      1741.7727    
[...]
  18900500   256.43868     -356.85233     -281.7074      -356.84625      0              5596.322       46.027541      20.047001      20.857         19245.049      6446.76        6213.9149      4128.2912     -496.75512      436.71732     -2299.4003    
  18901000   245.85972     -355.70186     -283.65691     -355.70219      0              3446.6126      46.061601      20.047001      20.857         19259.291      3079.0969      5123.0495      2137.6912      721.14958     -804.48294     -116.66275    
  18901500   253.81551     -356.66011     -282.28385     -356.64828      0              3782.5025      46.378268      20.047001      20.857         19391.696      4098.7843      5361.6086      1887.1147     -541.59008     -322.64832     -1070.842     
  18902000   254.67292     -354.07695     -279.44944     -354.0663       0              3922.0064      46.448244      20.047001      20.857         19420.954      4802.7486      3856.77        3106.5006     -602.50641      929.10519      983.02816    
  18902500   259.55798     -355.27631     -279.21732     -355.25555      0              4509.9305      46.217659      20.047001      20.857         19324.542      4693.9442      6668.4085      2167.4389     -260.18354      907.58634     -131.96727    
  18903000   248.50234     -355.78044     -282.96112     -355.763        0              1923.3925      46.08517       20.047001      20.857         19269.145      2577.3136      2270.0896      922.7744      -1187.1992      1598.0113      428.60202    
  18903500   242.92801     -356.13675     -284.95089     -356.11494      0              3151.0716      46.338176      20.047001      20.857         19374.932      3061.9674      4465.3345      1925.9128      42.125608     -1207.4979     -686.67597    
  18904000   246.50037     -358.38146     -286.14878     -358.3649       0              3604.1575      46.517728      20.047001      20.857         19450.006      4676.6561      3524.7297      2611.0868      29.341133     -2090.109      -1048.8021    
  18904500   251.37215     -357.60164     -283.94137     -357.59234      0              2081.5193      46.1926        20.047001      20.857         19314.064      1800.6513      1201.7388      3242.1678      207.61195      2112.8659      286.13535    
  18905000   243.67905     -356.05831     -284.65237     -356.04618      0              3506.47        46.053191      20.047001      20.857         19255.774      5428.0696      2736.46        2354.8805     -270.35482     -734.59521      1332.4596    
  18905500   237.99674     -356.34085     -286.60002     -356.33348      0              4790.6235      46.585393      20.047001      20.857         19478.298      4021.5165      6254.3205      4096.0336     -335.31925      459.44345     -1561.4187    
  18906000   251.12059     -356.20946     -282.6229      -356.19886      0              4811.0832      46.55262       20.047001      20.857         19464.596      8108.1753      3979.0166      2346.0577     -101.93002      406.74925      660.21069    
  18906500   258.67869     -354.34111     -278.53978     -354.33746      0              3600.2389      46.25762       20.047001      20.857         19341.25       4074.8822      1671.7908      5054.0436     -1139.0629     -1180.1902     -1775.278     
  18907000   260.19853     -356.92126     -280.67457     -356.8999       0              8121.0051      46.017521      20.047001      20.857         19240.86       9869.8026      7866.1941      6627.0186      1000.7264      737.98974     -505.56283    
  18907500   248.43976     -355.96597     -283.16499     -355.96512      0              5428.1865      46.21717       20.047001      20.857         19324.337      6603.2742      5746.2768      3935.0085     -1027.5067     -839.2035       417.65228    
  18908000   254.94237     -358.08311     -283.37665     -358.07494      0              4500.3169      46.383377      20.047001      20.857         19393.831      2967.1321      7380.8006      3153.0179     -282.07872      948.24151      506.48765    
  18908500   253.16555     -356.12139     -281.93559     -356.10471      0              5253.1133      46.250489      20.047001      20.857         19338.268      4248.1483      6471.8506      5039.341      -2140.385       1603.5116      1951.2304    
  18909000   256.95303     -357.04163     -281.74598     -357.03266      0              4353.3218      45.802784      20.047001      20.857         19151.074      5268.9439      5016.7083      2774.3133     -180.64028      590.73782     -429.90601    
  18909500   254.13062     -353.27927     -278.81068     -353.28         0              4212.7077      46.019921      20.047001      20.857         19241.863      6663.216       3304.4093      2670.4978     -1635.197      -829.79505     -235.32818    
  18910000   250.70529     -353.725       -280.26014     -353.7246       0              2378.8633      46.539823      20.047001      20.857         19459.245      2235.4785      3767.4186      1133.693      -734.02207     -1255.4561      637.79748    
  18910500   257.39047     -355.7009      -280.27706     -355.69785      0              3046.6214      46.339755      20.047001      20.857         19375.592      2530.6361      3989.5624      2619.6656     -284.08677     -801.16862     -537.65622    
  18911000   246.1621      -357.24009     -285.10654     -357.21986      0              7246.1198      45.848228      20.047001      20.857         19170.075      8109.5724      8653.0401      4975.747       47.479035      1602.4508      907.22388    
  18911500   253.11237     -357.65633     -283.48612     -357.63693      0              4384.6838      45.926582      20.047001      20.857         19202.836      5376.7565      5573.6425      2203.6523      395.82152     -221.24414      1500.1974    
  18912000   251.76034     -357.4124      -283.63837     -357.40208      0              3219.4637      46.428154      20.047001      20.857         19412.554      1723.0167      6678.5794      1256.795      -2592.0014      1497.595       1351.1763    
  18912500   242.74506     -355.94634     -284.81408     -355.93669      0              2936.1134      46.325065      20.047001      20.857         19369.45       3354.3999      2697.4883      2756.452       369.50293     -2128.2941      1450.4231    
  18913000   240.86307     -357.38613     -286.80536     -357.37602      0              4084.8173      46.140864      20.047001      20.857         19292.432      5773.5445      1414.6603      5066.2472     -85.496336     -2221.6978      1487.565     
  18913500   249.28913     -356.66987     -283.61999     -356.66513      0              5381.6245      46.282273      20.047001      20.857         19351.558      6799.4262      4768.001       4577.4463      10.46946       1647.6049     -1857.4444    
  18914000   254.72447     -354.98489     -280.34227     -354.96448      0              4126.3608      46.294544      20.047001      20.857         19356.689      3683.2443      6756.8314      1939.0068     -151.01742     -29.8085       -848.48945    
  18914500   249.66255     -355.17499     -282.01569     -355.15485      0              3172.6546      46.142526      20.047001      20.857         19293.127      6087.0259     -120.63437      3551.5724      1447.2491      2297.1127      655.12978    
  18915000   247.41863     -354.63599     -282.13422     -354.62665      0              4645.6842      45.997036      20.047001      20.857         19232.294      4619.3081      6270.3856      3047.3589     -931.30577      497.00456     -304.19552    
  18915500   253.49868     -354.98818     -280.70476     -354.98522      0              5647.8328      46.126641      20.047001      20.857         19286.485      5672.0704      6951.8703      4319.5579      154.45339     -1938.6164     -2070.4253    
  18916000   255.8134      -355.46484     -280.50314     -355.45789      0              4939.1195      46.312544      20.047001      20.857         19364.215      7074.0006      2512.6078      5230.7502      594.95875      614.50618     -346.20051    
  18916500   251.03375     -354.22395     -280.66284     -354.22392      0              2867.1011      46.339099      20.047001      20.857         19375.318      3554.782       3287.3543      1759.1669      702.84124     -1349.8844     -499.139      
  18917000   250.72803     -354.01148     -280.53996     -354.00095      0              5506.5246      46.282006      20.047001      20.857         19351.446      6319.3982      5121.2855      5078.8901      400.8987       717.3077       1297.8082    
  18917500   250.27698     -359.05562     -285.71627     -359.04461      0              6224.999       46.132711      20.047001      20.857         19289.023      9746.9815      4360.5495      4567.466      -468.91367      1196.9874     -246.89995    
  18918000   243.39524     -355.70754     -284.38477     -355.69699      0              6447.2232      45.891369      20.047001      20.857         19188.113      8568.6809      5477.388       5295.6006      1169.3422     -576.18967     -371.06585    
  18918500   250.90883     -357.93478     -284.41027     -357.92426      0              4620.4101      46.017169      20.047001      20.857         19240.713      4016.0377      5310.8158      4534.3767     -682.44288     -394.12753     -1415.6411    
  18919000   246.81535     -358.695       -286.37002     -358.67341      0              5659.9267      46.30055       20.047001      20.857         19359.2        6508.3893      6410.4413      4060.9496     -737.93374      1356.6722     -269.68575    
  18919500   251.23598     -357.12021     -283.49984     -357.11405      0              5232.7915      46.312779      20.047001      20.857         19364.313      6282.5443      4822.0199      4593.8104     -99.656983      1397.0943      530.73095    
  18920000   252.59182     -357.53007     -283.51239     -357.51253      0              6070.28        46.09167       20.047001      20.857         19271.863      7735.0651      4762.5158      5713.2589      222.98507      432.58223     -1926.2056    
  18920500   254.36845     -355.66495     -281.12666     -355.64338      0              5102.2455      46.111184      20.047001      20.857         19280.022      7112.5552      4818.6632      3375.5182      373.24369     -356.76184     -526.8258     
  18921000   250.61606     -358.41168     -284.97297     -358.39034      0              3836.7007      46.16741       20.047001      20.857         19303.531      2720.419       6094.9939      2694.6893     -588.22906     -1410.5567     -305.83535    
  18921500   253.17248     -355.15028     -280.96246     -355.13164      0              3502.3052      45.933023      20.047001      20.857         19205.529      5227.138       3310.3486      1969.4291      149.26736     -555.44008     -953.93563    
  18922000   247.71333     -357.7564      -285.16829     -357.74182      0              4375.3663      45.919988      20.047001      20.857         19200.079      6044.3668      4846.0733      2235.6588      21.357821      255.36767     -842.0473     
  18922500   251.18329     -357.72741     -284.12248     -357.7096       0              4351.6569      45.900974      20.047001      20.857         19192.129      4402.3701      4204.9761      4447.6245      250.50556      236.84144     -1350.1967    
  18923000   248.33036     -357.06669     -284.29776     -357.04688      0              2820.5418      45.890011      20.047001      20.857         19187.545      3073.5714      3400.5772      1987.4767     -369.5181      -285.26271      221.64225    
  18923500   248.78121     -356.59783     -283.69679     -356.59894      0              5197.7455      45.872911      20.047001      20.857         19180.395      6417.1069      5567.1454      3608.9841     -434.44478     -1054.7053      1107.0761    
  18924000   252.72969     -359.0856      -285.02752     -359.08504      0              6671.1634      45.974582      20.047001      20.857         19222.906      6589.0037      6910.1315      6514.355       112.65594      1100.4804      287.83884    
  18924500   250.9069      -355.33954     -281.8156      -355.33958      0              2094.4018      46.336975      20.047001      20.857         19374.43       2864.6839      2219.0964      1199.4251      973.22461     -636.71021      1903.5557    
  18925000   245.88093     -356.09965     -284.04849     -356.09124      0              3975.9556      46.210308      20.047001      20.857         19321.468      7410.2357      2964.4388      1553.1924     -1073.1675     -743.72241     -899.83262    
  18925500   252.55931     -357.72372     -283.71557     -357.7225       0              3248.1761      46.061847      20.047001      20.857         19259.393      1678.3002      4098.1592      3968.0689     -168.99017     -1806.7159      108.65021    
  18926000   247.49863     -357.43392     -284.90871     -357.42596      0              3935.1947      46.204264      20.047001      20.857         19318.941      3160.982       6700.6566      1943.9455     -302.17194     -406.76541      1306.1892    
  18926500   247.47438     -359.53447     -287.01638     -359.52422      0              4532.2559      46.091479      20.047001      20.857         19271.783      4489.6657      5141.1187      3965.9832      1471.9826      686.5287      -3055.1856    
  18927000   248.41538     -358.75381     -285.95997     -358.75418      0              5596.4601      46.258744      20.047001      20.857         19341.72       5523.4559      6118.9357      5146.9888     -862.48461     -430.18418      482.43027    
  18927500   249.50239     -355.63469     -282.52232     -355.62722      0              2267.0987      46.416766      20.047001      20.857         19407.792      3392.0892      2204.256       1204.9509      732.85635      1348.2967     -1256.6719    
  18928000   250.59009     -359.45254     -286.02144     -359.43981      0              4029.646       45.942157      20.047001      20.857         19209.348      6237.2563      2287.3128      3564.369      -400.74304     -1221.9163     -215.47506    
  18928500   246.94908     -357.84772     -285.48355     -357.83809      0              5538.8871      45.844403      20.047001      20.857         19168.476      6868.6021      5972.5414      3775.518      -1663.9947      1029.2854      931.57579    
  18929000   245.70532     -356.37548     -284.37578     -356.37684      0              4758.0092      46.138881      20.047001      20.857         19291.603      4573.1507      5535.9166      4164.9605     -34.155553     -911.86858      297.36196    
  18929500   249.73799     -358.4533      -285.27189     -358.44816      0              5793.2274      45.999229      20.047001      20.857         19233.212      7282.4488      5720.1659      4377.0676     -645.85303      1986.6731      869.49139    
  18930000   242.37116     -356.52925     -285.50656     -356.51001      0              5289.9207      46.08359       20.047001      20.857         19268.485      4080.2721      9199.5836      2589.9062      166.45446     -148.35216     -1248.416     
  18930500   252.83104     -357.20848     -283.12071     -357.20895      0              3257.015       46.292086      20.047001      20.857         19355.661      3459.0323      3617.4706      2694.5421      184.93917     -1112.7029     -1935.1983    
  18931000   252.67987     -358.30975     -284.26627     -358.30852      0              2533.2299      46.218741      20.047001      20.857         19324.994      3009.0714      3395.2943      1195.3241      159.03025      1067.8351      1615.5041    
  18931500   256.09203     -356.77338     -281.73003     -356.76324      0              6407.6506      46.056501      20.047001      20.857         19257.158      6979.8217      5494.2422      6748.8879      850.81376     -275.10123     -915.06154    
  18932000   250.33608     -357.60961     -284.25294     -357.61352      0              4348.5515      46.149849      20.047001      20.857         19296.189      4361.6475      5390.9635      3293.0435     -387.8112       146.24992     -2105.2551    
  18932500   253.68711     -356.14539     -281.80676     -356.14347      0              6085.931       46.077952      20.047001      20.857         19266.127      6728.8985      4326.2942      7202.6004      11.542337      854.97114      2464.1008    
  18933000   253.20544     -356.43754     -282.24006     -356.43312      0              6070.3677      46.059818      20.047001      20.857         19258.545      7886.895       5297.8201      5026.3881     -353.74077      208.04185      958.01605    
  18933500   253.18868     -355.69648     -281.5039      -355.69631      0              2117.0078      46.097781      20.047001      20.857         19274.418      3169.9924      3354.9589     -173.9278      -264.61039     -1623.5461      1368.1989    
  18934000   252.68671     -356.01365     -281.96817     -356.01202      0              5488.2819      46.086766      20.047001      20.857         19269.812      5791.4489      6536.6299      4136.767       449.66964      36.556094     -320.9118     
  18934500   260.60197     -355.25356     -278.88865     -355.25437      0              4729.3182      46.108393      20.047001      20.857         19278.855      5834.7836      5127.4585      3225.7125     -423.16517     -727.90102      1050.061     
  18935000   250.79412     -355.2327      -281.74181     -355.22457      0              5470.0293      46.069536      20.047001      20.857         19262.608      7104.503       3173.2167      6132.3682     -395.74529      1733.5117     -704.38797    
  18935500   254.76571     -356.46525     -281.81055     -356.45546      0              5726.9222      46.141787      20.047001      20.857         19292.818      8715.7782      4184.324       4280.6645      18.515353     -1313.1005      376.77364    
  18936000   242.23474     -357.21175     -286.22904     -357.21089      0              6171.6296      46.258785      20.047001      20.857         19341.737      6490.2779      7131.6758      4892.9351     -1210.3815     -526.47437     -158.05509    
WARNING: Wall time limit reached (../timer.cpp:193)
Loop time of 85817.1 on 4 procs for 3802000 steps with 2268 atoms

Performance: 1.914 ns/day, 12.540 hours/ns, 44.304 timesteps/s
960.6% CPU use with 4 MPI tasks x no OpenMP threads

MPI task timing breakdown:
Section |  min time  |  avg time  |  max time  |%varavg| %total
---------------------------------------------------------------
Pair    | 47794      | 48144      | 48338      | 101.0 | 56.10
Bond    | 0.47674    | 0.49538    | 0.51335    |   1.9 |  0.00
Neigh   | 1249.4     | 1268.4     | 1286.2     |  37.5 |  1.48
Comm    | 4727.4     | 5023.1     | 5381.7     | 363.7 |  5.85
Output  | 1886.4     | 1886.4     | 1886.5     |   0.1 |  2.20
Modify  | 29410      | 29483      | 29580      |  35.8 | 34.36
Other   |            | 10.92      |            |       |  0.01

Nlocal:            567 ave         572 max         559 min
Histogram: 1 0 0 0 0 0 1 1 0 1
Nghost:        3753.75 ave        3804 max        3710 min
Histogram: 1 1 0 0 0 0 0 1 0 1
Neighs:              0 ave           0 max           0 min
Histogram: 4 0 0 0 0 0 0 0 0 0
FullNghs:       142443 ave      143759 max      140341 min
Histogram: 1 0 0 0 0 1 0 0 1 1

Total # of neighbors = 569772
Ave neighs/atom = 251.22222
Ave special neighs/atom = 0
Neighbor list builds = 380200
Dangerous builds not checked

unfix		4
unfix		3
unfix		1

write_data	data.final.${pid}
write_data	data.final.0
System init for write_data ...
Generated 0 of 1 mixed pair_coeff terms from geometric mixing rule
write_restart	restart.lmp.${pid}
write_restart	restart.lmp.0
System init for write_restart ...
Generated 0 of 1 mixed pair_coeff terms from geometric mixing rule
Total wall time: 23:50:34
