LAMMPS (23 Jun 2022)
echo both

include		in.partitions
variable        pid world 0
include		in.temp
variable	temperature equal 250.0
variable        tempDamp equal 0.100 # this is 0.1 ps
include		in.pressure
variable        pressure equal 5066.25
variable        pressureDamp equal 1.0 #this is 1ps
include		in.seed
variable        seed world 745823

units           metal
atom_style	full
read_restart	restart.lmp.${pid}
read_restart	restart.lmp.0
Reading restart file ...
  restart file = 23 Jun 2022, LAMMPS = 23 Jun 2022
  restoring atom style full from restart
  orthogonal box = (0.73984903 0 0) to (46.71085 20.047001 20.857)
  4 by 1 by 1 MPI processor grid
Summary of lammps deepmd module ...
  >>> Info of deepmd-kit:
  installed to:       /u/sigbjobo/software/DEEPMD_FROM_SOURCE/deepmd-kit/install
  source:             v2.1.3
  source branch:       master
  source commit:      5a32c49
  source commit at:   2022-07-01 09:52:58 +0800
  surpport model ver.:1.1 
  build float prec:   double
  build with tf inc:  /u/sigbjobo/software/DEEPMD_FROM_SOURCE/tensorflow/install/include;/u/sigbjobo/software/DEEPMD_FROM_SOURCE/tensorflow/install/include
  build with tf lib:  /u/sigbjobo/software/DEEPMD_FROM_SOURCE/tensorflow/install/lib/libtensorflow_cc.so;/u/sigbjobo/software/DEEPMD_FROM_SOURCE/tensorflow/install/lib/libtensorflow_framework.so
  set tf intra_op_parallelism_threads: 0
  set tf inter_op_parallelism_threads: 0
  >>> Info of lammps module:
  use deepmd-kit at:  /u/sigbjobo/software/DEEPMD_FROM_SOURCE/deepmd-kit/install
  source:             v2.1.3
  source branch:      master
  source commit:      5a32c49
  source commit at:   2022-07-01 09:52:58 +0800
  build float prec:   double
  build with tf inc:  /u/sigbjobo/software/DEEPMD_FROM_SOURCE/tensorflow/install/include;/u/sigbjobo/software/DEEPMD_FROM_SOURCE/tensorflow/install/include
  build with tf lib:  /u/sigbjobo/software/DEEPMD_FROM_SOURCE/tensorflow/install/lib/libtensorflow_cc.so;/u/sigbjobo/software/DEEPMD_FROM_SOURCE/tensorflow/install/lib/libtensorflow_framework.so
  restoring pair style deepmd from restart
  2268 atoms
Finding 1-2 1-3 1-4 neighbors ...
  special bond factors lj:    0        0        0       
  special bond factors coul:  0        0        0       
     0 = max # of 1-2 neighbors
     0 = max # of 1-3 neighbors
     0 = max # of 1-4 neighbors
     1 = max # of special neighbors
  special bonds CPU = 0.000 seconds
  read_restart CPU = 0.005 seconds
include 	in.setup
variable	out_freq equal 500
variable	out_freq2 equal 1000
variable	out_freq3 equal 5000

timestep        0.0005

neigh_modify    delay 7 every 1

include         in.deepmd
# This is deepMD model

# create groups ###
#group ox type 2
#group hy type 1

mass 2 15.999
mass 1 1.008

pair_style      deepmd ../graph.pb
pair_coeff      * *

bond_style      none
angle_style     none
dihedral_style  none
improper_style  none
neigh_modify exclude none


neighbor        2.0 bin
neigh_modify    every 10 delay 0 check no

thermo          ${out_freq}
thermo          500
thermo_style 	custom step temp pe etotal epair emol press lx ly lz vol pxx pyy pzz pxy pxz pyz
#thermo_modify	flush yes
restart 	${out_freq} restart.lmp.${pid} restart2.lmp.${pid}
restart 	500 restart.lmp.${pid} restart2.lmp.${pid}
restart 	500 restart.lmp.0 restart2.lmp.${pid}
restart 	500 restart.lmp.0 restart2.lmp.0

include		in.dump
dump            myDump all atom ${out_freq3} dump.water.${pid}
dump            myDump all atom 5000 dump.water.${pid}
dump            myDump all atom 5000 dump.water.0
dump            myDump2 all dcd ${out_freq2} dump.dcd.${pid}
dump            myDump2 all dcd 1000 dump.dcd.${pid}
dump            myDump2 all dcd 1000 dump.dcd.0
dump_modify     myDump append yes
dump_modify     myDump2 append yes


timer           timeout 23:50:00 every 1000
New timer settings: style=normal  mode=nosync  timeout=23:50:00

fix             1 all plumed plumedfile plumed.dat outfile plumed.out
fix             3 all nph x ${pressure} ${pressure} ${pressureDamp}
fix             3 all nph x 5066.25 ${pressure} ${pressureDamp}
fix             3 all nph x 5066.25 5066.25 ${pressureDamp}
fix             3 all nph x 5066.25 5066.25 1
Resetting global fix info from restart file:
  fix style: nph, fix ID: 3
fix             4 all temp/csvr ${temperature} ${temperature} ${tempDamp} ${seed}
fix             4 all temp/csvr 250 ${temperature} ${tempDamp} ${seed}
fix             4 all temp/csvr 250 250 ${tempDamp} ${seed}
fix             4 all temp/csvr 250 250 0.1 ${seed}
fix             4 all temp/csvr 250 250 0.1 745823
Resetting global fix info from restart file:
  fix style: temp/csvr, fix ID: 4

run             40000000 upto

CITE-CITE-CITE-CITE-CITE-CITE-CITE-CITE-CITE-CITE-CITE-CITE-CITE

Your simulation uses code contributions which should be cited:

- USER-DEEPMD package:

@article{Wang_ComputPhysCommun_2018_v228_p178,
  author = {Wang, Han and Zhang, Linfeng and Han, Jiequn and E, Weinan},
  doi = {10.1016/j.cpc.2018.03.016},
  url = {https://doi.org/10.1016/j.cpc.2018.03.016},
  year = 2018,
  month = {jul},
  publisher = {Elsevier {BV}},
  volume = 228,
  journal = {Comput. Phys. Commun.},
  title = {{DeePMD-kit: A deep learning package for many-body potential energy representation and molecular dynamics}},
  pages = {178--184}
}

CITE-CITE-CITE-CITE-CITE-CITE-CITE-CITE-CITE-CITE-CITE-CITE-CITE

Generated 0 of 1 mixed pair_coeff terms from geometric mixing rule
All restart file global fix info was re-assigned
Neighbor list info ...
  update every 10 steps, delay 0 steps, check no
  max neighbors/atom: 2000, page size: 100000
  master list distance cutoff = 8
  ghost atom cutoff = 8
  binsize = 4, bins = 12 6 6
  1 neighbor lists, perpetual/occasional/extra = 1 0 0
  (1) pair deepmd, perpetual
      attributes: full, newton on
      pair build: full/bin
      stencil: full/bin/3d
      bin: standard
Per MPI rank memory allocation (min/avg/max) = 7.213 | 7.214 | 7.217 Mbytes
   Step          Temp          PotEng         TotEng         E_pair         E_mol          Press            Lx             Ly             Lz           Volume          Pxx            Pyy            Pzz            Pxy            Pxz            Pyz      
  30150000   248.55523     -355.29733     -282.46251     -355.29733      0              4934.3647      45.971001      20.047001      20.857         19221.409      5350.0763      6987.0347      2465.9832      14.485211     -221.54666      969.70439    
  30150500   251.77189     -358.04277     -284.26536     -358.03295      0              6584.1178      46.004408      20.047001      20.857         19235.377      7424.3734      7436.9094      4891.0706      625.80187      2402.09       -480.49676    
  30151000   257.34854     -359.73228     -284.32073     -359.72057      0              3616.3835      46.314951      20.047001      20.857         19365.221      1654.8784      6714.9841      2479.2879      172.83036     -304.02592     -105.89884    
  30151500   253.29527     -357.33361     -283.1098      -357.32524      0              3607.4537      46.328467      20.047001      20.857         19370.872      5700.7216      2017.873       3103.7666      1337.8104     -28.583065     -310.06822    
  30152000   245.92005     -355.86701     -283.80438     -355.85417      0              4571.3618      46.013539      20.047001      20.857         19239.195      3275.4668      4762.014       5676.6046     -166.81913     -371.12857     -473.30903    
  30152500   252.64147     -356.74863     -282.7164      -356.73713      0              3788.2749      46.026915      20.047001      20.857         19244.787      4797.1289      2556.6561      4011.0397      838.46901      614.44815     -345.35804    
  30153000   248.12059     -359.00902     -286.30156     -358.99588      0              4625.1263      46.15275       20.047001      20.857         19297.402      7328.2019      6145.0567      402.12031     -352.97446      623.08869      462.63232    
  30153500   254.97839     -359.9267      -285.20968     -359.91313      0              3919.7215      46.103665      20.047001      20.857         19276.878      4399.5428      5063.426       2296.1956     -13.087543     -1046.4537     -1280.7397    
  30154000   252.41131     -357.7219      -283.75712     -357.70994      0              3898.4598      46.140876      20.047001      20.857         19292.437      3893.0817      5450.4581      2351.8395      383.65978     -903.2232       1078.4635    
  30154500   250.87584     -361.49031     -287.97547     -361.47888      0              3967.817       46.247623      20.047001      20.857         19337.07       4419.7198      3162.1468      4321.5844     -7.9465264      152.01591     -146.88915    
  30155000   248.71336     -357.00048     -284.11932     -356.9869       0              7119.1025      46.255291      20.047001      20.857         19340.276      7971.4798      5300.693       8085.1348     -713.56798     -936.41577     -973.68315    
  30155500   249.65452     -358.14014     -284.98319     -358.12726      0              2555.6851      46.257986      20.047001      20.857         19341.403      3451.8719      1047.4179      3167.7654     -306.90776     -410.23561      1607.4421    
  30156000   250.77056     -359.01003     -285.52604     -359.00452      0              4258.2871      46.130321      20.047001      20.857         19288.023      5282.6304      4277.0915      3215.1395      101.07571      633.57696     -2589.0162    
  30156500   249.7529      -357.14193     -283.95616     -357.13091      0              5726.2303      46.042569      20.047001      20.857         19251.333      5378.8451      4298.0912      7501.7545     -558.89482      124.14122      35.974493    
  30157000   250.21301     -357.22021     -283.8996      -357.20996      0              4509.1855      46.300983      20.047001      20.857         19359.381      8050.0559      2977.6006      2499.9001      552.34887      935.43785     -49.220775    
  30157500   246.47845     -358.94174     -286.71548     -358.92975      0              4122.7744      46.592813      20.047001      20.857         19481.401      6540.0699      3254.8068      2573.4465     -754.24235     -868.02522      475.99112    
  30158000   245.80574     -359.16791     -287.13878     -359.16402      0              5310.9675      46.23594       20.047001      20.857         19332.185      6123.4689      4308.7571      5500.6766      131.38213      1178.2568      1315.6865    
  30158500   249.30195     -358.63766     -285.58403     -358.63341      0              4618.2439      46.013204      20.047001      20.857         19239.055      4048.2111      4387.3746      5419.1459     -1702.5141     -301.40883     -1076.1972    
  30159000   248.44459     -358.02159     -285.21918     -358.00874      0              5537.1509      46.292338      20.047001      20.857         19355.766      6616.8862      5191.8982      4802.6684     -54.795048      309.78075      325.4309     
  30159500   249.89184     -361.10101     -287.87452     -361.0957       0              3302.2645      46.422923      20.047001      20.857         19410.366      2625.0524      3533.6484      3748.0927     -314.2774       873.76377     -1120.7947    
  30160000   250.46163     -357.20007     -283.80661     -357.18652      0              4290.161       46.015899      20.047001      20.857         19240.182      6520.1807      1740.06        4610.2422      312.16008      402.99223     -174.35132    
  30160500   250.96338     -357.71009     -284.1696      -357.69966      0              4712.3308      45.915618      20.047001      20.857         19198.252      6195.6919      3585.1401      4356.1603      1499.0946      38.600049      1576.4372    
  30161000   247.65379     -357.50373     -284.93306     -357.49822      0              2769.7948      46.300463      20.047001      20.857         19359.163      1298.1788      4203.2797      2807.9261      1659.0096     -50.286064      841.5578     
  30161500   251.12385     -358.11088     -284.52337     -358.09766      0              4190.3167      46.454084      20.047001      20.857         19423.395      5751.9741      1975.4881      4843.488       1360.2406     -736.75883      1017.5196    
  30162000   253.71879     -357.95687     -283.60895     -357.95083      0              5116.747       46.141733      20.047001      20.857         19292.795      5062.4806      6026.1494      4261.6109     -918.23114     -289.53583     -794.36939    
  30162500   252.17016     -356.72271     -282.8286      -356.71494      0              5893.4235      46.18676       20.047001      20.857         19311.622      7946.9458      4576.678       5156.6466     -2333.3364     -390.3331       139.22358    
  30163000   250.03653     -358.36843     -285.09954     -358.35692      0              3955.4065      46.191168      20.047001      20.857         19313.465      7190.3989      735.12887      3940.6917     -966.50301      323.0577       38.964468    
  30163500   251.59468     -357.89044     -284.16496     -357.88574      0              5765.7123      46.004861      20.047001      20.857         19235.566      8374.7806      3487.0734      5435.2829      588.20328     -1122.0389      1734.009     
  30164000   250.32273     -354.93094     -281.57818     -354.92207      0              6120.8779      46.101772      20.047001      20.857         19276.087      6577.5268      5077.8071      6707.2997     -634.87012      738.17683     -1788.6325    
  30164500   247.90039     -355.75106     -283.10813     -355.73839      0              2836.2299      46.261662      20.047001      20.857         19342.94       4380.7874      1344.4832      2783.419       1681.3916     -1708.8662     -1893.8768    
  30165000   250.63795     -358.23064     -284.78551     -358.21886      0              4744.3224      46.20732       20.047001      20.857         19320.218      5729.5308      4507.0494      3996.387      -307.78815      753.96049      832.85909    
  30165500   251.91951     -360.69458     -286.87391     -360.6895       0              3963.6814      46.260768      20.047001      20.857         19342.566      5266.1111      4409.6173      2215.3158     -1024.9215     -1313.2378     -109.86759    
  30166000   251.02027     -356.74802     -283.19086     -356.73667      0              4635.4111      46.165012      20.047001      20.857         19302.529      4232.8727      3366.3166      6307.044      -607.53309     -315.13904     -483.45723    
  30166500   256.816       -358.50569     -283.2502      -358.49313      0              2338.7644      46.0237        20.047001      20.857         19243.443      2275.116       1419.2687      3321.9085      369.42565     -329.55043      66.086978    
  30167000   251.72082     -359.01103     -285.24859     -358.99903      0              4826.3263      46.031319      20.047001      20.857         19246.629      4771.5696      5617.3513      4090.0582     -241.52133      2381.2259     -1303.077     
  30167500   255.13109     -357.82316     -283.06139     -357.81329      0              2895.0376      46.08896       20.047001      20.857         19270.73       2813.5977      2671.1181      3200.397       398.52135      870.83121      2266.7858    
  30168000   253.39888     -358.81396     -284.55979     -358.81338      0              3195.9953      46.070508      20.047001      20.857         19263.015      2939.2218      3592.8585      3055.9055     -396.63993     -573.43008     -469.25349    
  30168500   240.23265     -359.8827      -289.48667     -359.86954      0              5346.1867      46.155044      20.047001      20.857         19298.361      5929.7507      3546.4863      6562.3231      832.72381      534.02323     -2723.7555    
  30169000   246.18689     -358.87869     -286.73787     -358.87287      0              3022.4933      45.991023      20.047001      20.857         19229.78       3356.3508      3720.6204      1990.5089      141.58993     -1748.2346      56.763037    
  30169500   248.64132     -360.00256     -287.14251     -359.99728      0              6067.444       45.956251      20.047001      20.857         19215.242      6746.3956      4968.7509      6487.1854      526.39501      753.24204     -74.066308    
  30170000   251.1016      -355.13197     -281.55098     -355.12485      0              4615.5432      46.13678       20.047001      20.857         19290.724      7114.7735      3267.0121      3464.8439     -88.112723      152.95595      1213.5425    
  30170500   255.74615     -357.41955     -282.47755     -357.4151       0              3042.2385      46.072562      20.047001      20.857         19263.873      3885.5043     -317.35338      5558.5646      1484.5257      925.11103     -21.924041    
  30171000   253.17505     -356.62386     -282.43528     -356.61729      0              4513.2769      45.907869      20.047001      20.857         19195.012      2773.3195      6741.5759      4024.9352     -123.55946     -2278.4629      1028.1932    
  30171500   249.08859     -357.12391     -284.13279     -357.11797      0              6153.064       46.017399      20.047001      20.857         19240.809      6558.9383      4392.1727      7508.081      -323.27121     -539.22584     -581.26589    
  30172000   246.00469     -358.87908     -286.79165     -358.87417      0              3346.3845      46.151236      20.047001      20.857         19296.769      2524.4907      5965.4608      1549.202      -21.443531     -9.1949232      180.54842    
  30172500   251.40052     -357.76306     -284.09448     -357.75237      0              5574.5388      46.071651      20.047001      20.857         19263.492      6294.3938      6192.9017      4236.3209      707.87837     -782.0359      -43.783942    
  30173000   248.83634     -358.25833     -285.34113     -358.24608      0              3788.891       45.98049       20.047001      20.857         19225.376      4136.0901      4786.9834      2443.5996     -93.699983      2898.3987      339.86325    
  30173500   245.71519     -358.40789     -286.40529     -358.40173      0              4841.4527      46.063307      20.047001      20.857         19260.004      5467.7898      4629.8229      4426.7453      368.64588      1185.8801     -298.26704    
  30174000   251.10938     -360.51552     -286.93224     -360.51152      0              4886.4369      46.084829      20.047001      20.857         19269.002      6060.6085      5520.1397      3078.5624     -258.7745      -499.6869      -2989.2782    
  30174500   244.32832     -359.39244     -287.79624     -359.38319      0              4928.4768      45.990652      20.047001      20.857         19229.625      5060.4571      5271.5903      4453.383       1288.8068     -112.57262     -29.072642    
  30175000   245.48361     -358.5681      -286.63337     -358.55499      0              3343.1968      45.769071      20.047001      20.857         19136.978      2563.0131      4279.2873      3187.29        555.3888      -1952.6769      309.28276    
  30175500   252.79483     -359.07123     -284.99407     -359.06424      0              4656.2184      45.931639      20.047001      20.857         19204.951      5569.9595      2580.7412      5817.9545      37.271917      311.32241     -419.36149    
  30176000   242.7469      -357.7105      -286.57771     -357.70026      0              4222.2409      46.230255      20.047001      20.857         19329.808      5039.1527      3462.3578      4165.2123     -36.624491     -1570.3516      43.789202    
  30176500   254.6055      -356.78517     -282.17742     -356.77426      0              2149.7248      46.055645      20.047001      20.857         19256.8        3103.1098      2369.3088      976.75571     -176.69819      2397.6514      1228.0448    
  30177000   253.31491     -357.9223      -283.69273     -357.91414      0              3621.3042      45.648728      20.047001      20.857         19086.66       4607.7115      4843.6037      1412.5974     -93.63344      -927.09903      188.23244    
  30177500   244.86992     -357.24586     -285.49096     -357.23523      0              4547.2982      45.810042      20.047001      20.857         19154.108      5360.4087      5264.1353      3017.3506      474.08238      431.73408      220.27785    
  30178000   248.9265      -356.85776     -283.91414     -356.84531      0              4189.5125      46.132302      20.047001      20.857         19288.852      4536.1626      5228.9441      2803.431       1035.0678      282.56878      409.7126     
  30178500   248.04214     -357.73206     -285.04759     -357.71905      0              4956.9893      45.97981       20.047001      20.857         19225.092      4661.4288      5622.6075      4586.9315      1272.51        952.4094      -1550.6443    
  30179000   247.67262     -356.44028     -283.86409     -356.42691      0              5452.2632      45.767666      20.047001      20.857         19136.39       7453.2353      3858.7266      5044.8279     -708.28228     -2144.373      -867.53219    
  30179500   253.47895     -360.61937     -286.34174     -360.60743      0              5011.9053      46.170705      20.047001      20.857         19304.909      5365.2565      4030.1295      5640.33        327.16277      1493.5256      1230.6026    
  30180000   245.73291     -358.95358     -286.94579     -358.94078      0              5356.5987      46.274999      20.047001      20.857         19348.517      7088.8222      5588.4454      3392.5287      402.32934      420.94001     -1686.0663    
  30180500   250.1797      -357.58656     -284.27572     -357.57409      0              3755.3693      46.177141      20.047001      20.857         19307.6        4786.6439      3725.3029      2754.1612     -1162.6953      149.62724     -1393.2147    
  30181000   241.58915     -358.34247     -287.54894     -358.33446      0              5645.481       45.98829       20.047001      20.857         19228.637      5547.8373      5428.1148      5960.4909      760.12645     -41.919356      45.851439    
  30181500   246.95992     -361.0382      -288.67085     -361.02644      0              4689.7329      46.023732      20.047001      20.857         19243.457      3690.9129      5714.2354      4664.0506     -662.09502      787.96371     -597.54651    
  30182000   247.20606     -358.84456     -286.40509     -358.83109      0              3768.8538      45.817151      20.047001      20.857         19157.081      5107.6628      3746.6308      2452.2678      687.61767     -1730.9404     -154.7594     
  30182500   243.67299     -360.68546     -289.28129     -360.68014      0              4212.9858      45.919485      20.047001      20.857         19199.869      4604.9237      3644.6369      4389.3968      220.32544     -194.68662     -149.34957    
  30183000   249.89349     -359.68828     -286.4613      -359.67607      0              3845.8864      46.064744      20.047001      20.857         19260.604      5114.9499      3110.2661      3312.4432      600.22156     -827.36919     -186.28471    
  30183500   253.78229     -357.23516     -282.86864     -357.22641      0              5122.6339      46.000901      20.047001      20.857         19233.91       5147.5039      4884.0089      5336.3888      317.98863      499.42746      1405.5827    
  30184000   250.99426     -359.23057     -285.68103     -359.2188       0              4505.803       46.065801      20.047001      20.857         19261.046      4104.5559      4078.5064      5334.3468      626.306       -788.76779      4.9672409    
  30184500   250.31653     -358.15066     -284.79972     -358.14375      0              4933.5583      46.04342       20.047001      20.857         19251.688      4601.3306      5690.3627      4508.9815     -802.002       -189.8653       437.24289    
  30185000   246.81099     -358.95519     -286.63149     -358.94218      0              5671.5818      45.963789      20.047001      20.857         19218.393      3481.4114      7932.2574      5601.0767      513.36708      11.350857      590.1997     
  30185500   246.61859     -358.95203     -286.6847      -358.94057      0              3773.036       46.121208      20.047001      20.857         19284.213      2899.5415      3642.5935      4776.9729      981.64813      641.25932     -721.32522    
  30186000   249.70401     -358.45458     -285.28313     -358.44209      0              4638.9017      45.885111      20.047001      20.857         19185.496      7319.682       2895.9227      3701.1003      1693.9678      70.453433     -458.14677    
  30186500   245.40899     -359.87408     -287.96121     -359.86619      0              4537.1922      46.057888      20.047001      20.857         19257.738      4989.0316      3612.7091      5009.8359      225.25931     -260.17026      2112.2109    
  30187000   251.40652     -362.26383     -288.59349     -362.25038      0              3602.7348      46.216191      20.047001      20.857         19323.928      3063.6437      5847.5871      1896.9737      5.3101188      660.21845      80.914437    
  30187500   244.12989     -359.50402     -287.96597     -359.49054      0              5813.5198      45.869226      20.047001      20.857         19178.855      6910.829       4689.9628      5839.7677      363.60722     -93.137325      1851.7287    
  30188000   239.59472     -358.78801     -288.57891     -358.78496      0              4688.1124      45.765344      20.047001      20.857         19135.419      7295.4272      3231.7667      3537.1432      905.94472     -143.00507      50.108785    
  30188500   244.97843     -360.39861     -288.61191     -360.39238      0              2923.8515      46.046843      20.047001      20.857         19253.12       4913.1593      983.41537      2874.9799      1154.5124      164.42281     -1596.4363    
  30189000   251.27984     -359.69288     -286.05966     -359.6795       0              6414.2116      46.266366      20.047001      20.857         19344.907      9667.8741      4207.0049      5367.7557     -814.22059      35.377922      1130.3906    
  30189500   254.81371     -360.99939     -286.33063     -360.992        0              2625.666       46.176726      20.047001      20.857         19307.427      1522.4901      4719.6787      1634.8292     -823.04735      695.0613      -1528.7129    
  30190000   250.03284     -359.2614      -285.99359     -359.25354      0              5524.5474      46.095791      20.047001      20.857         19273.586      3879.5381      6893.5351      5800.5689     -373.5192      -102.3935      -2443.4912    
  30190500   245.07889     -360.29263     -288.47649     -360.27986      0              5275.833       46.141644      20.047001      20.857         19292.758      4630.3055      5890.6118      5306.5817     -1212.9828     -415.21836     -1565.3515    
  30191000   244.19608     -359.40763     -287.85018     -359.40251      0              2381.8626      46.054198      20.047001      20.857         19256.195      3229.6284      376.64438      3539.3149     -2049.5715      403.99105      438.01171    
  30191500   242.73414     -358.79041     -287.66135     -358.7786       0              5495.009       46.204297      20.047001      20.857         19318.955      6021.066       5798.2082      4665.7527      247.91157      1441.1768     -2213.9583    
  30192000   245.04199     -356.80806     -285.00273     -356.79774      0              3119.9127      46.1378        20.047001      20.857         19291.151      1353.0484      4067.7039      3938.986      -1118.792      -1034.8037     -142.37998    
  30192500   250.03668     -357.17716     -283.90822     -357.16792      0              5224.3923      46.073225      20.047001      20.857         19264.15       5455.3312      3641.5743      6576.2714     -559.05846      2404.6357     -1413.7957    
  30193000   250.83727     -357.98275     -284.47921     -357.97137      0              4620.6742      46.100345      20.047001      20.857         19275.49       6585.6653      3803.571       3472.7862     -109.44187      397.38205      1630.626     
  30193500   246.09407     -360.19902     -288.08539     -360.19031      0              3930.2586      46.203234      20.047001      20.857         19318.51       5144.6415      3231.2885      3414.8457      1053.2523      2145.2472     -436.78626    
  30194000   262.07477     -357.22218     -280.42569     -357.20988      0              5027.7697      46.05636       20.047001      20.857         19257.099      4779.27        7067.4006      3236.6384      479.0646      -520.80871      474.83929    
  30194500   251.36841     -356.99762     -283.33844     -356.98714      0              4346.4031      46.232247      20.047001      20.857         19330.641      4842.9422      3317.9633      4878.3036      1514.1321      253.46167      431.45323    
  30195000   250.57668     -355.56646     -282.13928     -355.55698      0              4105.907       46.513648      20.047001      20.857         19448.301      4843.5282      3091.8074      4382.3855      1321.4541      1186.7567     -2521.8802    
  30195500   247.43273     -358.04266     -285.53677     -358.03934      0              4188.1909      46.101393      20.047001      20.857         19275.928      5459.8408      4611.2536      2493.4784      385.10352     -1365.4507      1778.0154    
  30196000   247.89149     -357.81068     -285.17035     -357.80531      0              3904.0701      45.85701       20.047001      20.857         19173.747      5556.18        3379.6695      2776.3608     -1375.6581     -833.41701     -1225.1278    
  30196500   248.32143     -359.46065     -286.69434     -359.45061      0              5208.9215      46.092988      20.047001      20.857         19272.414      5114.9523      5532.6601      4979.152      -2100.2348      1471.9756     -886.53253    
  30197000   248.36531     -356.87412     -284.09495     -356.86103      0              2583.5145      46.381251      20.047001      20.857         19392.943      4139.2132      2265.0682      1346.2621     -11.867193      151.96306      898.8745     
  30197500   249.90506     -358.62238     -285.39202     -358.61114      0              2715.0475      46.430911      20.047001      20.857         19413.706      5304.8636      2902.6419     -62.362923     -38.235399     -921.99859      181.45497    
  30198000   248.30997     -358.38082     -285.61786     -358.36825      0              4388.3554      46.154947      20.047001      20.857         19298.32       3423.5494      6723.1306      3018.3861      1124.1381      1957.9732     -1026.9527    
  30198500   254.59237     -357.50722     -282.90332     -357.49427      0              3827.0832      45.856916      20.047001      20.857         19173.708      4495.9042      4271.6365      2713.7089     -863.00486     -306.65753      905.33599    
  30199000   252.30322     -358.65395     -284.72085     -358.64816      0              3233.3209      45.989629      20.047001      20.857         19229.197      2951.3571      3934.4388      2814.1669      1477.4369     -35.283877      2159.4869    
  30199500   250.75423     -359.20305     -285.72385     -359.18969      0              4909.0406      46.274946      20.047001      20.857         19348.494      4480.9339      7021.271       3224.917       349.86052     -1429.1947     -1723.0837    
  30200000   246.53933     -358.54088     -286.29678     -358.53595      0              5169.6658      46.274699      20.047001      20.857         19348.391      6020.7113      4688.4574      4799.8286      773.69591      9.5981012      218.47005    
  30200500   244.25264     -360.50171     -288.92769     -360.50425      0              5655.4967      46.029368      20.047001      20.857         19245.813      4646.3621      7485.7474      4834.3805      964.77179      232.77184      52.642834    
  30201000   243.88877     -358.01333     -286.54593     -358.0057       0              3186.5636      45.958036      20.047001      20.857         19215.988      5751.1232      3266.2438      542.3238      -711.76598     -1096.7883      8.6389525    
  30201500   249.44226     -357.06877     -283.97402     -357.05593      0              5034.0608      46.23824       20.047001      20.857         19333.147      3067.2257      8012.882       4022.0748     -4.5001136     -247.83908      692.91043    
  30202000   246.81757     -360.02959     -287.70396     -360.02278      0              2844.3714      46.2083        20.047001      20.857         19320.628      1720.0114      4435.6171      2377.4855      58.78214      -353.59737      463.14048    
  30202500   248.24991     -356.49617     -283.75081     -356.48477      0              4057.2871      45.932469      20.047001      20.857         19205.298      1278.2489      4569.1942      6324.4183     -87.442302      281.29965      667.26701    
  30203000   251.04798     -358.61821     -285.05293     -358.60469      0              5624.3145      45.910891      20.047001      20.857         19196.276      7446.2345      4928.3043      4498.4048     -730.89273      77.655736     -103.99226    
  30203500   246.24951     -359.7845      -287.62533     -359.77279      0              3729.966       46.282557      20.047001      20.857         19351.677      4922.5294      2165.9383      4101.4304     -628.57959      182.20939     -1516.1679    
  30204000   250.47425     -357.57901     -284.18185     -357.57019      0              5156.5619      45.951952      20.047001      20.857         19213.444      6461.4397      4134.6902      4873.5556      324.5934       710.45002     -2310.3964    
  30204500   253.23313     -358.41952     -284.21391     -358.40747      0              6676.5953      45.98919       20.047001      20.857         19229.014      7518.5056      5850.9456      6660.3346      276.21286     -1343.7581     -542.3761     
  30205000   252.39707     -358.78377     -284.82316     -358.77191      0              2912.6813      46.212121      20.047001      20.857         19322.226      2479.536       5284.4781      974.02989     -1134.4506      9.9147371      874.66326    
  30205500   245.27368     -356.05736     -284.18414     -356.04746      0              6189.5887      46.028937      20.047001      20.857         19245.633      9380.8031      5011.9672      4175.996      -346.66496     -301.91363      172.4572     
  30206000   245.25452     -361.90544     -290.03783     -361.89372      0              6470.673       45.961391      20.047001      20.857         19217.391      6721.0642      6539.5588      6151.396      -311.69623     -1165.2629     -1019.1643    
  30206500   259.33635     -359.66388     -283.66984     -359.6505       0              4752.5828      46.033202      20.047001      20.857         19247.416      4997.1743      6805.4267      2455.1474     -5.2064074     -745.50203     -251.5129     
  30207000   248.21892     -358.75059     -286.01431     -358.73858      0              5026.8122      46.176567      20.047001      20.857         19307.36       6184.7571      4691.6071      4204.0723     -72.80664       2105.3487     -484.99473    
  30207500   250.07868     -360.06476     -286.78351     -360.05197      0              5340.0208      46.150673      20.047001      20.857         19296.533      6711.8623      5051.9208      4256.2793      862.92464     -801.90258      80.630805    
  30208000   248.04312     -359.0087      -286.32394     -358.99541      0              4654.6731      46.21418       20.047001      20.857         19323.087      3502.7015      5735.1079      4726.2099     -540.36013     -396.00533     -1655.381     
  30208500   250.11064     -357.52115     -284.23054     -357.51328      0              3974.0197      46.247434      20.047001      20.857         19336.991      5284.2781      2808.2548      3829.5263      990.76024     -565.43795      636.26006    
  30209000   249.89964     -359.59493     -286.36615     -359.58312      0              6188.2656      45.930685      20.047001      20.857         19204.552      8165.4223      5885.3525      4514.0221      392.42028     -42.705978     -369.7434     
  30209500   251.99919     -359.21809     -285.37408     -359.20531      0              5427.3837      46.018532      20.047001      20.857         19241.282      7040.5393      4529.5192      4712.0926      527.0085      -661.22765     -1781.7375    
  30210000   248.63027     -358.32487     -285.46806     -358.31169      0              2998.3334      46.197948      20.047001      20.857         19316.3        5624.1531      554.53433      2816.3127      432.57539     -1645.1944     -1091.2296    
  30210500   246.66447     -358.21809     -285.93732     -358.20674      0              3829.049       46.135759      20.047001      20.857         19290.297      6119.9522      3940.767       1426.4277      306.07505      259.51533      76.261978    
  30211000   258.4537      -358.77053     -283.03514     -358.75949      0              3391.244       46.308435      20.047001      20.857         19362.497      2564.9439      4827.0004      2781.7876     -894.5534       10.135546     -352.34198    
  30211500   251.40519     -355.70194     -282.03198     -355.69055      0              2999.5476      46.364419      20.047001      20.857         19385.905      1992.3399      5576.5731      1429.7296     -486.67785     -526.95609      1010.2191    
  30212000   260.18617     -357.77681     -281.53374     -357.76496      0              3592.1304      46.009174      20.047001      20.857         19237.369      5057.1549      4804.1448      915.09161      444.24477      622.95548      952.11303    
  30212500   257.56148     -356.90798     -281.43403     -356.89542      0              4886.0366      46.075621      20.047001      20.857         19265.153      3259.8084      6418.7235      4979.578      -741.93004      872.93478     -681.92207    
  30213000   253.65643     -357.12044     -282.7908      -357.10836      0              3363.5204      46.320988      20.047001      20.857         19367.745      4692.618       1750.0456      3647.8977      686.30332     -100.45678     -639.28974    
  30213500   247.35137     -359.28084     -286.79879     -359.26738      0              4051.9265      46.133265      20.047001      20.857         19289.254      6283.2112      3246.1561      2626.4123     -223.46822      1359.1048     -1270.5182    
  30214000   258.23126     -358.51465     -282.84444     -358.50324      0              3392.7076      46.040029      20.047001      20.857         19250.271      4589.0108      2372.1799      3216.9323      180.07948     -294.61438     -120.51105    
  30214500   255.41915     -355.84291     -280.99673     -355.83658      0              6301.3402      46.051367      20.047001      20.857         19255.012      5483.3424      8123.9546      5296.7237      687.47685      265.70026      583.20425    
  30215000   257.33591     -357.37316     -281.96531     -357.36612      0              3069.9654      46.053249      20.047001      20.857         19255.798      1822.1991      3534.9108      3852.7862      961.67219      2045.8043     -565.98154    
  30215500   252.47758     -357.67085     -283.68665     -357.65833      0              5769.9217      46.01229       20.047001      20.857         19238.672      4260.5826      5769.2905      7279.8921      309.07602      670.90175     -562.35346    
  30216000   250.277       -359.00273     -285.66338     -359.00215      0              6484.6154      46.229122      20.047001      20.857         19329.334      5772.9501      6806.562       6874.334      -906.38373      1712.3638      2107.1991    
  30216500   253.32653     -357.6279      -283.39493     -357.61697      0              3460.0799      46.288647      20.047001      20.857         19354.223      3258.6204      4689.1957      2432.4236     -1070.0989     -1035.0043     -948.04826    
  30217000   252.44814     -357.77559     -283.80002     -357.76214      0              5389.6902      45.792214      20.047001      20.857         19146.654      4659.0919      5984.729       5525.2496     -840.55729      21.383582     -71.262264    
  30217500   252.04873     -356.80589     -282.94735     -356.79367      0              6095.9627      45.917275      20.047001      20.857         19198.945      5761.0734      7441.3285      5085.4863     -509.03804      839.78346      2379.1321    
  30218000   252.99567     -356.55329     -282.41727     -356.5451       0              4010.1395      46.214028      20.047001      20.857         19323.023      4188.6677      4867.9738      2973.7771      644.77076      273.31338      834.89543    
  30218500   254.49906     -356.66157     -282.08501     -356.64977      0              5261.0521      46.086593      20.047001      20.857         19269.74       7253.2368      3752.5538      4777.3658     -1007.1889      1210.2374     -179.55206    
  30219000   254.5654      -357.80805     -283.21205     -357.79456      0              4429.0783      46.070694      20.047001      20.857         19263.092      4399.2222      5046.8376      3841.1751     -215.21019      1097.347       312.75475    
  30219500   241.4172      -360.72691     -289.98376     -360.71434      0              2747.345       46.178214      20.047001      20.857         19308.049      3415.2925      2312.4172      2514.3253      981.05163      559.59112     -1306.9655    
  30220000   252.11768     -357.86234     -283.9836      -357.85046      0              7294.2218      45.990432      20.047001      20.857         19229.533      9234.3606      3991.7279      8656.577      -848.18108     -2141.8708      1152.5382    
  30220500   252.94743     -360.07692     -285.95504     -360.06809      0              5156.6003      45.996603      20.047001      20.857         19232.114      5123.882       4893.2844      5452.6346     -414.18071      544.19494      906.97483    
  30221000   256.17528     -361.32423     -286.25648     -361.3108       0              3601.0466      46.255428      20.047001      20.857         19340.334      3058.0044      2096.287       5648.8483     -82.691069      714.38315      876.76122    
  30221500   252.26265     -361.24392     -287.3227      -361.23148      0              4696.1964      46.140457      20.047001      20.857         19292.262      4906.9941      4894.4607      4287.1345      97.14857       1349.4672     -30.00718     
  30222000   253.00756     -359.78857     -285.64907     -359.77705      0              4167.7928      45.930533      20.047001      20.857         19204.488      5092.9259      4874.4849      2535.9675     -1409.2156      407.31393     -1556.3021    
  30222500   248.54473     -359.75714     -286.92539     -359.74798      0              4360.6312      46.114945      20.047001      20.857         19281.595      6353.1653      2634.9398      4093.7885      1162.52       -372.41583     -175.39231    
  30223000   251.27749     -360.31546     -286.68293     -360.30419      0              5375.6763      46.344186      20.047001      20.857         19377.445      4561.2992      5973.9643      5591.7653     -1255.9414      119.35632     -897.04104    
  30223500   245.21479     -359.73141     -287.87544     -359.72011      0              3827.3941      46.219048      20.047001      20.857         19325.122      5714.2197      3329.2408      2438.7219      83.858247     -16.432581      216.26562    
  30224000   252.01426     -360.74813     -286.89969     -360.73815      0              3788.2353      46.214673      20.047001      20.857         19323.293      3626.03        4468.2125      3270.4633      432.94931      512.33256     -316.64873    
  30224500   251.53296     -357.85767     -284.15028     -357.84675      0              3591.8591      46.16095       20.047001      20.857         19300.83       5668.9036      3731.2902      1375.3834     -684.30534     -585.37659     -1222.2698    
  30225000   255.06288     -360.62968     -285.8879      -360.62473      0              4701.255       45.983127      20.047001      20.857         19226.479      3115.0267      6284.6381      4704.1004     -1143.5775     -193.83264      168.98665    
  30225500   247.3198      -359.44582     -286.97302     -359.44391      0              5177.3603      46.045057      20.047001      20.857         19252.373      4546.9688      6081.9511      4903.1611     -886.17023     -360.74329      176.23445    
  30226000   251.36657     -356.8859      -283.22726     -356.87309      0              4089.4315      46.231052      20.047001      20.857         19330.141      3735.0007      4775.0081      3758.2857     -1235.8177      1196.4264     -58.826307    
  30226500   238.30853     -356.3616      -286.5294      -356.35806      0              4390.9915      46.197275      20.047001      20.857         19316.018      3183.633       6677.3217      3312.0198      1995.6874     -2497.3176     -1623.1945    
  30227000   245.53806     -358.79768     -286.84699     -358.78917      0              3653.7625      46.025175      20.047001      20.857         19244.06       5446.1633      2617.6937      2897.4305     -1060.5129      236.41611     -780.31396    
  30227500   251.61906     -359.83433     -286.10171     -359.83702      0              5198.3401      45.951296      20.047001      20.857         19213.17       4826.4852      7680.6346      3087.9007     -159.50618     -803.11007     -614.17444    
  30228000   253.08191     -360.9386      -286.77731     -360.92657      0              5863.4425      46.060138      20.047001      20.857         19258.679      5734.8761      7352.3767      4503.0746     -701.66241      317.52616      104.07571    
  30228500   250.39483     -358.81414     -285.44025     -358.81036      0              4845.0629      46.040677      20.047001      20.857         19250.542      6331.363       4035.9847      4167.841       1022.607       7.5826608     -623.58995    
  30229000   247.35588     -358.08964     -285.60626     -358.09471      0              2412.4556      46.008632      20.047001      20.857         19237.143      3613.67        2043.5518      1580.1451     -205.25623      2604.1983     -159.78902    
  30229500   242.26989     -356.13874     -285.14573     -356.1264       0              3206.7389      46.055511      20.047001      20.857         19256.744      4618.9995      1358.2552      3642.962      -7.1375392      1046.7226     -596.43959    
  30230000   245.21837     -357.22408     -285.36707     -357.21571      0              3052.0133      46.078942      20.047001      20.857         19266.541      2741.8937      3047.5126      3366.6336      281.87395     -10.352703     -991.68523    
  30230500   253.54155     -359.63092     -285.33494     -359.61747      0              4148.707       46.132548      20.047001      20.857         19288.955      5305.0524      4851.0978      2289.9706     -440.51451      24.764055      1448.0728    
  30231000   256.26303     -357.87384     -282.78038     -357.86797      0              2895.6732      46.157249      20.047001      20.857         19299.283      4697.7822      1644.8538      2344.3835      1475.597       1294.5992      731.8456     
  30231500   250.09255     -356.00716     -282.72185     -355.99481      0              4019.8466      46.465256      20.047001      20.857         19428.067      5672.2678      4552.8982      1834.3738     -1100.6739      1052.9749     -1032.181     
  30232000   252.15988     -356.86166     -282.97056     -356.84887      0              4219.5727      46.353902      20.047001      20.857         19381.507      4464.4233      6456.0836      1738.2112     -1234.7436     -615.84558     -317.09043    
  30232500   247.43772     -356.91747     -284.41012     -356.90605      0              4104.3967      45.805206      20.047001      20.857         19152.087      5299.0141      2122.1595      4892.0166     -1622.0422      105.53333      932.77524    
  30233000   250.89286     -358.60466     -285.08484     -358.59253      0              5398.078       45.929259      20.047001      20.857         19203.956      5470.0885      6312.5326      4411.6129      883.3461       1639.965      -1243.9373    
  30233500   253.91324     -355.64227     -281.23737     -355.62887      0              5117.6727      46.444212      20.047001      20.857         19419.268      4792.8878      4875.6548      5684.4756     -941.13365      1056.022      -1173.5288    
  30234000   246.0942      -356.44061     -284.32695     -356.42889      0              5101.1785      46.232623      20.047001      20.857         19330.798      5153.0552      4972.9306      5177.5497     -714.48591     -640.01782     -305.16435    
  30234500   247.92622     -357.37813     -284.72763     -357.36852      0              4701.0202      45.882155      20.047001      20.857         19184.261      6306.4535      811.48853      6985.1185     -129.85165      1805.169       1133.6584    
  30235000   248.11207     -357.19011     -284.48515     -357.17868      0              6172.5281      45.986549      20.047001      20.857         19227.91       6393.7397      5506.5899      6617.2548      267.40532     -1154.964      -57.177451    
  30235500   247.51753     -359.58211     -287.05137     -359.57666      0              5212.0893      46.248989      20.047001      20.857         19337.641      6113.7569      6662.5724      2859.9386      358.88573      1389.6091     -676.7114     
  30236000   245.99392     -359.09692     -287.01265     -359.08423      0              1670.8196      46.253504      20.047001      20.857         19339.529      3421.6976      336.99559      1253.7657      406.75699     -600.08987     -207.35674    
  30236500   245.77812     -357.38398     -285.36294     -357.37228      0              6167.2596      45.96721       20.047001      20.857         19219.823      6303.8716      6488.9507      5708.9565      161.91273      1180.0965      486.51849    
  30237000   250.3593      -356.07194     -282.70847     -356.07076      0              7351.6595      45.97775       20.047001      20.857         19224.231      6229.8143      9471.892       6353.2722      1066.74        384.3852       1872.6782    
  30237500   248.08904     -358.1183      -285.42009     -358.10949      0              3883.3935      46.145079      20.047001      20.857         19294.194      4888.1817      3027.3181      3734.6806      8.9069417      203.26567     -1225.7482    
  30238000   241.24919     -356.58089     -285.88698     -356.56853      0              6616.031       46.027676      20.047001      20.857         19245.106      8830.586       6233.2226      4784.2844     -169.59814      2.1293682      905.77326    
  30238500   243.85235     -359.51714     -288.06042     -359.50394      0              4537.8239      46.07988       20.047001      20.857         19266.933      5758.4796      3630.7951      4224.1969     -258.07523      615.15514      862.06339    
  30239000   246.57987     -357.3529      -285.09693     -357.34516      0              5031.4688      46.005688      20.047001      20.857         19235.912      2815.6134      7119.9661      5158.8268      792.46091      400.4527      -1333.6939    
  30239500   247.72825     -359.86259     -287.2701      -359.85322      0              3243.7795      46.037418      20.047001      20.857         19249.179      4000.2057      2675.512       3055.6207     -328.25325      413.96784     -250.96376    
  30240000   239.41552     -358.19868     -288.04209     -358.19375      0              2927.3781      46.058783      20.047001      20.857         19258.112      2823.4628      5009.9095      948.76182      253.39027     -39.456662     -1849.1656    
  30240500   247.08913     -361.45242     -289.04721     -361.44721      0              4489.9626      45.854708      20.047001      20.857         19172.784      4319.0399      4343.1844      4807.6633     -563.84404     -954.1801       1275.651     
  30241000   244.3492      -357.03061     -285.4283      -357.02378      0              3753.0686      46.032705      20.047001      20.857         19247.208      4800.019       3886.381       2572.8057     -839.6622       598.16689     -1647.4787    
  30241500   256.9966      -356.30151     -280.99309     -356.29614      0              5947.2465      46.161215      20.047001      20.857         19300.941      6680.1744      5959.0827      5202.4825     -1060.3622     -969.80792      1700.0009    
  30242000   257.71442     -359.85185     -284.33309     -359.84065      0              5337.1093      46.056394      20.047001      20.857         19257.113      6275.4057      4256.8004      5479.1219     -1136.0903     -1071.2597     -932.72334    
  30242500   251.2046      -355.96538     -282.35421     -355.953        0              2761.9178      45.779634      20.047001      20.857         19141.394      4551.9285      2844.4123      889.41251      112.85105      30.042267     -283.66561    
  30243000   252.40024     -358.69582     -284.73428     -358.68292      0              4491.282       45.763204      20.047001      20.857         19134.525      7241.7952      3428.3784      2803.6722     -967.20779     -973.09074      1801.9414    
  30243500   250.25561     -359.69966     -286.36657     -359.6872       0              5310.3457      46.136851      20.047001      20.857         19290.754      3441.3382      6627.9491      5861.7497      422.66293     -451.50658     -2177.7533    
  30244000   254.25976     -359.66538     -285.15894     -359.65863      0              2787.0273      46.382816      20.047001      20.857         19393.597      2994.1381      3371.761       1995.1829     -460.15157     -232.8947       883.22798    
  30244500   246.13688     -358.12763     -286.00147     -358.11453      0              7462.945       46.07063       20.047001      20.857         19263.066      7141.9666      5261.2164      9985.6519     -379.95268      1923.0746     -517.56403    
  30245000   251.93275     -355.93483     -282.11029     -355.92327      0              4353.9561      45.630922      20.047001      20.857         19079.215      5077.5627      4364.0735      3620.232      -1348.0557      212.63506      318.88771    
  30245500   251.73239     -354.26037     -280.49454     -354.24901      0              4311.8956      45.906752      20.047001      20.857         19194.545      3380.7473      4747.1538      4807.7857      841.16445      2649.5385      983.7408     
  30246000   250.4524      -356.35146     -282.96071     -356.3381       0              4430.5963      46.050973      20.047001      20.857         19254.847      6659.8059      2984.052       3647.9312     -1309.6843     -338.70422      775.40351    
  30246500   250.7206      -356.72328     -283.25393     -356.71665      0              4704.5489      46.100263      20.047001      20.857         19275.456      4514.268       4693.5777      4905.8009      752.50681      493.51143      173.09446    
  30247000   245.29228     -356.5958      -284.71713     -356.58512      0              3331.247       46.232751      20.047001      20.857         19330.852      463.88629      6409.6205      3120.2344      1009.5415      400.21053     -458.6579     
  30247500   245.6841      -358.37193     -286.37845     -358.3587       0              3801.4119      46.011576      20.047001      20.857         19238.374      3431.1048      2610.5368      5362.594      -66.469412      1657.7543     -369.77601    
  30248000   249.70062     -357.09875     -283.92829     -357.09078      0              4310.0284      45.877573      20.047001      20.857         19182.345      6955.0488      4217.6192      1757.4171      227.85098      1813.3406     -2081.4118    
  30248500   249.15223     -359.37792     -286.36816     -359.36477      0              6175.3529      45.961389      20.047001      20.857         19217.39       5086.5834      6813.1564      6626.319      -589.82644      1363.0601     -268.21363    
  30249000   245.88057     -358.06905     -286.01799     -358.05922      0              2783.7559      46.229179      20.047001      20.857         19329.358      3572.0136      4053.6966      725.55745     -716.58775     -164.06951     -797.21528    
  30249500   248.94885     -356.89565     -283.94549     -356.89435      0              3591.6363      46.053405      20.047001      20.857         19255.864      2786.5022      3530.5947      4457.8119     -631.26406      514.43228     -288.12861    
  30250000   244.4718      -359.20817     -287.56992     -359.19649      0              4375.951       45.981165      20.047001      20.857         19225.658      4406.0986      5671.4261      3050.3284     -36.042807     -1245.323      -1654.5144    
  30250500   243.14356     -360.0492      -288.80017     -360.03648      0              3178.6163      46.108447      20.047001      20.857         19278.878      3496.7909      4531.0312      1508.0267     -383.95853      680.28173      651.34587    
  30251000   243.30787     -360.21485     -288.91768     -360.20748      0              4588.9452      46.322492      20.047001      20.857         19368.374      3407.8864      3633.5982      6725.351       34.26015       951.11074      1123.3998    
  30251500   244.86324     -358.35255     -286.5996      -358.33952      0              5675.4525      45.852707      20.047001      20.857         19171.948      6993.3791      4368.3526      5664.6257     -174.00287      941.13601     -147.91451    
  30252000   255.71786     -356.87202     -281.93831     -356.85927      0              4634.1949      45.878341      20.047001      20.857         19182.666      4038.825       5572.9959      4290.7639      666.68398      1157.0042      321.12292    
  30252500   248.32619     -358.17043     -285.40272     -358.15912      0              3587.2163      46.450696      20.047001      20.857         19421.979      1603.9734      4914.5667      4243.1089     -474.15814     -1282.8104     -314.9522     
  30253000   255.17122     -357.60821     -282.83469     -357.59691      0              2997.4903      46.463196      20.047001      20.857         19427.205      2198.6069      2786.1724      4007.6917      237.61323      1144.5729     -806.25005    
  30253500   255.68934     -359.25216     -284.32681     -359.24396      0              5631.45        46.06827       20.047001      20.857         19262.079      7711.8863      4160.8794      5021.5842     -1850.6841      671.68541     -695.02904    
  30254000   253.80013     -355.90825     -281.5365      -355.89647      0              5324.528       45.95698       20.047001      20.857         19215.546      8256.8448      2077.2604      5639.4787      1050.3009     -795.97663      1675.265     
  30254500   249.30323     -356.90796     -283.85395     -356.89628      0              3971.8466      46.323913      20.047001      20.857         19368.968      6160.0405      3679.5477      2075.9516     -2090.9625     -369.94753      553.05697    
  30255000   248.37751     -356.27226     -283.48951     -356.26134      0              4251.1616      46.663623      20.047001      20.857         19511.008      3983.8987      4398.4501      4371.1361     -483.65435     -800.49906     -1427.7795    
  30255500   252.23936     -358.26077     -284.34638     -358.24764      0              6506.7344      46.543982      20.047001      20.857         19460.984      7087.4193      4094.7616      8338.0224      33.86153      -161.31759      1859.3846    
  30256000   257.90535     -356.66408     -281.08937     -356.65288      0              2525.3699      46.255045      20.047001      20.857         19340.173      4090.2689      2363.2228      1122.618      -1139.8754      287.33961      962.8216     
  30256500   245.32028     -357.00136     -285.11449     -356.98975      0              4238.2655      46.179187      20.047001      20.857         19308.455      5290.9         4365.303       3058.5935     -1020.8296     -953.09112     -768.83109    
  30257000   254.22582     -359.94422     -285.44773     -359.9329       0              4377.0236      46.269888      20.047001      20.857         19346.379      5971.6144      904.97927      6254.4771     -388.1585      -482.94339      531.57974    
  30257500   248.68846     -354.67881     -281.80494     -354.66749      0              3927.3524      46.263193      20.047001      20.857         19343.58       5463.2189      2251.2667      4067.5715      2345.0802      786.34179     -129.84514    
  30258000   254.52123     -356.99698     -282.41392     -356.98881      0              3387.8477      46.342616      20.047001      20.857         19376.788      4032.7562      2297.2316      3833.5553     -1114.229      -20.468209     -530.53825    
  30258500   251.1         -357.26089     -283.68036     -357.24957      0              3955.5988      46.359995      20.047001      20.857         19384.055      3324.1485      3388.1894      5154.4584     -887.6082       458.9218       696.89472    
  30259000   244.75916     -357.47509     -285.75264     -357.46789      0              3561.4373      46.252995      20.047001      20.857         19339.316      5292.9777      4348.328       1043.0064     -301.38705     -130.5174      -647.29299    
  30259500   245.97575     -355.86614     -283.78719     -355.86516      0              5134.3581      46.034361      20.047001      20.857         19247.901      6193.2579      4733.8568      4475.9597      144.79521     -468.68696      709.69739    
  30260000   248.86358     -356.09424     -283.16907     -356.08246      0              4718.9912      46.217425      20.047001      20.857         19324.444      6335.1216      1936.4166      5885.4352     -56.206135      1300.0589      775.36172    
  30260500   252.55395     -359.05642     -285.04984     -359.04319      0              4868.9222      46.182047      20.047001      20.857         19309.651      4616.6541      6712.4671      3277.6456      253.68113     -1182.305      -974.03156    
  30261000   248.60546     -359.20578     -286.35624     -359.19805      0              4551.9945      46.071956      20.047001      20.857         19263.62       6646.2628      4106.2188      2903.502       106.35807     -2087.6622      1704.1839    
  30261500   250.05215     -357.74319     -284.46972     -357.7318       0              3328.1858      46.083244      20.047001      20.857         19268.34       1791.9421      2838.0948      5354.5205      280.55075     -1291.2552     -1137.2366    
  30262000   245.94409     -357.84405     -285.77438     -357.83277      0              5348.4708      45.839771      20.047001      20.857         19166.539      5171.3938      6775.5063      4098.5122     -1336.3689     -2235.3461     -974.97574    
  30262500   250.3161      -358.00342     -284.65261     -357.99205      0              6399.3122      45.983786      20.047001      20.857         19226.754      5824.9354      8231.6907      5141.3105     -388.16101      252.09742      620.56021    
  30263000   245.75244     -355.64001     -283.6265      -355.62819      0              4308.4344      46.357861      20.047001      20.857         19383.163      3748.4354      3572.4217      5604.4461     -1136.3573      889.00228     -537.29701    
  30263500   254.29904     -356.94675     -282.4288      -356.93531      0              5858.4112      46.022423      20.047001      20.857         19242.909      7452.4091      5093.4983      5029.3262     -396.6804      -363.45545      883.54614    
  30264000   248.81471     -358.89357     -285.98271     -358.89126      0              4101.9631      45.982637      20.047001      20.857         19226.274      3480.2314      4908.5137      3917.144       518.49029     -144.80063     -3600.8816    
  30264500   247.54565     -356.84278     -284.3038      -356.83675      0              4748.0968      45.993642      20.047001      20.857         19230.875      4436.3218      4184.9514      5623.0173      1224.1135     -898.49986     -303.52517    
  30265000   248.32797     -355.46174     -282.69351     -355.45333      0              5679.5918      46.136254      20.047001      20.857         19290.504      4426.6765      6931.3371      5680.7619     -967.30228     -2062.0598      445.87186    
  30265500   250.94216     -357.93784     -284.40357     -357.92974      0              3052.9665      46.339468      20.047001      20.857         19375.472      2668.7692      4694.3645      1795.7659      140.56995      1776.334       1775.6728    
  30266000   247.96819     -356.14826     -283.48546     -356.13786      0              4261.5501      46.1394        20.047001      20.857         19291.82       6165.7827      3571.2521      3047.6156     -713.67969     -2047.3601      1296.1158    
  30266500   256.21053     -359.06976     -283.99168     -359.05636      0              5591.7447      45.999322      20.047001      20.857         19233.25       6451.976       5840.0991      4483.159       614.18736     -603.20711      1577.9953    
  30267000   254.1497      -357.56461     -283.09042     -357.5597       0              4193.0651      45.792317      20.047001      20.857         19146.697      5141.7428      3745.8653      3691.5872     -255.33406      2.2131764     -778.59662    
  30267500   250.37208     -357.52426     -284.15704     -357.51704      0              7771.6293      46.01566       20.047001      20.857         19240.082      7306.6865      8329.3622      7678.8391      1417.4969      211.83511      202.68242    
  30268000   245.87239     -357.75373     -285.70507     -357.74131      0              3813.5176      46.176184      20.047001      20.857         19307.2        4591.4406      2102.1998      4746.9124      1077.0997     -1790.0589     -370.93099    
  30268500   251.52325     -356.86737     -283.16282     -356.86198      0              5995.9317      45.876605      20.047001      20.857         19181.94       6667.7849      6828.6543      4491.3559     -1054.336      -1427.6732      151.03349    
  30269000   249.27061     -356.9704      -283.92595     -356.95805      0              5045.1281      45.944475      20.047001      20.857         19210.318      1859.792       5816.2828      7459.3097     -572.36184     -1294.5511      1330.1228    
  30269500   244.82769     -357.68866     -285.94613     -357.68068      0              4634.9895      46.243988      20.047001      20.857         19335.55       7048.1996      3842.3267      3014.4422      422.9088      -1347.2635     -590.89629    
  30270000   247.66873     -357.71827     -285.14323     -357.7122       0              3438.008       46.323625      20.047001      20.857         19368.848      3928.5743      4069.3832      2316.0664      394.14856     -1143.3715      1044.0125    
  30270500   254.80442     -356.73485     -282.06881     -356.72362      0              5701.4017      46.069852      20.047001      20.857         19262.74       3384.0422      8272.555       5447.6081      82.774212     -1356.8829      146.29846    
  30271000   256.2049      -356.74137     -281.66494     -356.7368       0              3953.879       45.850709      20.047001      20.857         19171.112      5463.0987      3582.8978      2815.6404      248.06036      895.44822     -1031.7652    
  30271500   257.10564     -358.49783     -283.15745     -358.48556      0              4875.9509      46.067087      20.047001      20.857         19261.584      5717.8205      6205.1409      2704.8914      538.48837     -1844.4187     -855.9495     
  30272000   246.68688     -355.78934     -283.502       -355.79129      0              4735.9265      46.22706       20.047001      20.857         19328.472      4969.0141      5723.007       3515.7586      1064.8336     -586.05819     -1020.8871    
  30272500   247.95495     -358.08825     -285.42933     -358.08137      0              3916.0282      45.992738      20.047001      20.857         19230.497      4502.9795      3703.5856      3541.5194     -1255.3967      624.35381     -99.474023    
  30273000   247.94993     -356.60539     -283.94794     -356.59276      0              4849.7532      45.774344      20.047001      20.857         19139.183      5162.5543      4172.7342      5213.971       905.47925     -1643.2919      965.97729    
  30273500   251.67808     -357.63289     -283.88297     -357.62624      0              3315.3731      46.196358      20.047001      20.857         19315.635      5886.4843      2061.8215      1997.8134     -757.27446     -698.17046      610.0306     
  30274000   247.9359      -355.05619     -282.40285     -355.05896      0              4501.9636      46.249136      20.047001      20.857         19337.703      5976.2735      3317.562       4212.0555      1410.9408      1758.8704     -712.67067    
  30274500   255.15656     -356.70871     -281.93948     -356.69661      0              5643.5082      45.861597      20.047001      20.857         19175.665      5689.1349      7148.1217      4093.2679      207.62209     -1940.5918      1378.9966    
  30275000   249.16584     -357.84796     -284.83421     -357.8383       0              5448.543       45.799591      20.047001      20.857         19149.739      7782.5359      3319.1634      5243.9295      1372.3066      224.84581     -358.26062    
  30275500   245.7087      -358.63137     -286.63067     -358.62216      0              3512.8754      46.301646      20.047001      20.857         19359.658      3660.053       3031.3245      3847.2486     -1292.8242     -686.32296     -894.93191    
  30276000   247.86544     -357.46599     -284.8333      -357.45575      0              4251.6803      46.308826      20.047001      20.857         19362.66       6206.8189      3516.0424      3032.1796     -268.95434      672.69285     -1541.8185    
  30276500   251.70054     -356.88647     -283.12997     -356.87506      0              5233.5225      45.917743      20.047001      20.857         19199.14       7808.789       3407.1511      4484.6274      1168.6852     -408.42411     -575.85394    
  30277000   254.24156     -359.9374      -285.4363      -359.92991      0              3154.6729      46.060497      20.047001      20.857         19258.829      2640.9997      4249.904       2573.1149      1832.7982      1119.9213     -570.87286    
  30277500   247.99409     -358.10248     -285.43209     -358.09531      0              4442.8252      46.132948      20.047001      20.857         19289.122      3788.2855      5073.9775      4466.2126      1008.2602      137.74235      230.67106    
  30278000   253.48681     -357.57993     -283.29999     -357.56784      0              3273.3814      46.106792      20.047001      20.857         19278.186      3183.1687      1998.3895      4638.5861      1062.091       1051.3338     -1402.6873    
  30278500   250.19568     -359.24855     -285.93302     -359.2353       0              3743.9524      45.97483       20.047001      20.857         19223.01       4761.6394      3695.0872      2775.1306     -41.69034      -2263.5078     -561.07014    
  30279000   250.19272     -357.62983     -284.31517     -357.62139      0              4786.6833      46.006887      20.047001      20.857         19236.414      5384.0097      3162.9168      5813.1234     -355.10589     -22.471912     -328.07343    
  30279500   247.17575     -356.8695      -284.43892     -356.86418      0              3491.5561      46.107412      20.047001      20.857         19278.445      3747.3773      2414.618       4312.6731      1093.4604     -202.53084     -575.98929    
  30280000   252.83088     -357.91201     -283.82428     -357.89887      0              5777.4881      45.915742      20.047001      20.857         19198.304      5542.9104      5676.5957      6112.9582      28.461613      893.45714     -1032.8137    
  30280500   257.26607     -358.20269     -282.81531     -358.195        0              6988.7531      46.116239      20.047001      20.857         19282.136      8405.7084      5438.8917      7121.6593      1047.7585      692.15601      706.36495    
  30281000   240.19033     -354.76767     -284.38403     -354.75561      0              4625.6017      46.293577      20.047001      20.857         19356.284      6859.1743      3318.8446      3698.7863     -432.7953      -2474.5721     -1497.8637    
  30281500   248.85925     -358.3041      -285.38019     -358.29129      0              4820.9896      45.967239      20.047001      20.857         19219.836      4740.1167      5568.6938      4154.1582      1392.3962     -1858.8906     -1223.4026    
  30282000   251.80403     -357.61687     -283.83004     -357.60369      0              5115.1853      45.959652      20.047001      20.857         19216.664      5523.0867      2732.4995      7089.9696      551.96212     -1112.5148     -372.99608    
  30282500   255.16878     -356.57922     -281.80641     -356.56613      0              5149.6228      46.338062      20.047001      20.857         19374.885      6526.9076      5428.2407      3493.72        404.32072     -901.46623     -1228.8523    
  30283000   251.26528     -357.00173     -283.37277     -356.99044      0              4819.4118      46.197087      20.047001      20.857         19315.94       3072.3368      6261.2031      5124.6955      594.56951      188.44577      1069.1754    
  30283500   246.15661     -355.62135     -283.4894      -355.60953      0              3073.7942      46.04086       20.047001      20.857         19250.618      900.62024      3299.6263      5021.1362      1500.6126     -689.98546     -373.22644    
  30284000   245.27241     -356.20824     -284.33539     -356.19516      0              4955.778       45.968445      20.047001      20.857         19220.34       8105.3909      4579.0766      2182.8664     -168.18659     -1240.6674      1030.4591    
  30284500   248.50368     -357.40736     -284.58764     -357.3947       0              2404.3696      46.231484      20.047001      20.857         19330.322      1217.5572      3404.4086      2591.143       432.88168      1495.2263      486.42746    
  30285000   243.99967     -357.00252     -285.50263     -356.98931      0              4973.0843      46.300625      20.047001      20.857         19359.231      6218.6975      3963.7796      4736.7756     -1073.6407      935.38046     -253.27981    
  30285500   248.05643     -356.65572     -283.96706     -356.64651      0              4977.8716      45.74062       20.047001      20.857         19125.082      5614.9569      4557.8012      4760.8566     -352.69674     -1418.6136      1615.2       
  30286000   253.45255     -356.80818     -282.53828     -356.79701      0              5262.5798      45.864356      20.047001      20.857         19176.818      6808.8054      4960.4253      4018.5088      125.72986      3135.3718      1912.8456    
  30286500   250.26966     -360.527       -287.18979     -360.51476      0              5952.5006      46.109721      20.047001      20.857         19279.41       5654.2546      6654.4902      5548.757      -1517.5472     -1825.774       109.33347    
  30287000   250.89149     -358.85182     -285.3324      -358.8406       0              4034.742       46.262242      20.047001      20.857         19343.182      5082.0751      3795.6657      3226.4853      1044.5468     -370.83253      2062.3709    
  30287500   248.65455     -357.71939     -284.85547     -357.70775      0              2111.8378      46.264486      20.047001      20.857         19344.121      4740.8111      1459.5228      135.17951      144.56134      4.9599187      534.85197    
  30288000   243.70351     -356.34501     -284.9319      -356.33234      0              4870.547       45.978841      20.047001      20.857         19224.687      5339.0483      4511.6921      4760.9005     -27.304624     -1294.3729      1159.8352    
  30288500   253.00072     -358.57933     -284.44184     -358.56611      0              2384.9491      46.018347      20.047001      20.857         19241.205      5515.5014      1652.0599     -12.713972      783.62095      77.045605      221.2923     
  30289000   244.29693     -358.57679     -286.98979     -358.56713      0              5036.8948      46.017088      20.047001      20.857         19240.679      4846.0406      6078.1704      4186.4734      114.93095      856.38731      18.4266      
  30289500   242.88827     -360.00571     -288.8315      -360.00202      0              3230.2264      45.778586      20.047001      20.857         19140.956      5982.1722      361.26676      3347.2401      286.45603      66.237561      2390.145     
  30290000   254.13481     -358.22386     -283.75404     -358.21547      0              3942.7449      45.967372      20.047001      20.857         19219.891      1833.0074      7123.8174      2871.4099     -887.92871      112.68365     -893.71176    
  30290500   244.53943     -357.27404     -285.61598     -357.26445      0              3426.7147      46.194003      20.047001      20.857         19314.65       6006.2819      2300.004       1973.8581     -994.47958      840.89067      228.12604    
  30291000   242.65359     -354.68518     -283.57973     -354.67233      0              4264.8296      46.02616       20.047001      20.857         19244.472      4194.2122      4019.387       4580.8897      765.16296     -1116.8634      530.39555    
  30291500   248.10856     -358.38136     -285.67742     -358.36804      0              6249.2795      45.969413      20.047001      20.857         19220.745      7172.4803      4998.2225      6577.1357     -620.26659      1710.2009     -206.90139    
  30292000   247.98197     -355.56382     -282.89698     -355.55053      0              4698.7902      46.082699      20.047001      20.857         19268.112      6884.2251      4448.758       2763.3874      904.48034      244.18046      392.79573    
  30292500   251.7803      -357.36296     -283.58309     -357.34971      0              2643.0444      45.80544       20.047001      20.857         19152.184      4631.4839      1657.7275      1639.9218     -209.59306      1364.8807      1112.5385    
  30293000   254.07915     -358.54064     -284.08713     -358.52879      0              6637.9587      45.94626       20.047001      20.857         19211.064      8321.3478      4376.3306      7216.1977      1358.7671      2292.6226     -1198.7862    
  30293500   248.19053     -358.75549     -286.02753     -358.7474       0              2193.7965      46.325839      20.047001      20.857         19369.774      1881.8847      2127.6978      2571.8069      486.01278      1053.8016     -327.44314    
  30294000   253.14664     -356.28082     -282.10056     -356.26804      0              2905.3813      46.2832        20.047001      20.857         19351.945      3056.7291      2567.3836      3092.0311      502.64923     -583.56189     -1286.4472    
  30294500   259.7796      -354.69473     -278.5708      -354.68658      0              5566.3672      46.128828      20.047001      20.857         19287.399      4707.6114      8843.3509      3148.1393      953.94671     -647.29792      1355.6222    
  30295000   264.40103     -357.75476     -280.2766      -357.74156      0              3856.9202      45.845909      20.047001      20.857         19169.105      4728.4757      3910.5365      2931.7485      576.34773      697.94045     -245.10122    
  30295500   239.93176     -356.9087      -286.60084     -356.90053      0              4752.9498      46.015399      20.047001      20.857         19239.972      5279.6031      4654.7781      4324.4681     -387.40769      820.40682     -1258.1313    
[...]
  30831500   248.40892     -357.98197     -285.19002     -357.9821       0              5959.6561      46.077603      20.047001      20.857         19265.981      5895.6866      6146.4901      5836.7917      16.834864     -890.5141       2024.5951    
  30832000   242.85839     -358.98946     -287.824       -358.99253      0              4022.7179      45.933877      20.047001      20.857         19205.886      5132.1418      4101.9244      2834.0875     -668.28576      104.55486      1293.2894    
  30832500   238.43429     -357.77984     -287.91078     -357.78005      0              4478.4581      46.160231      20.047001      20.857         19300.529      3924.8575      5113.551       4396.9656      157.04354     -1503.0004      1893.353     
  30833000   246.93949     -355.71015     -283.34879     -355.71045      0              5545.9788      46.005447      20.047001      20.857         19235.811      7073.1429      4577.1131      4987.6805      748.81212     -618.02536      249.16702    
  30833500   245.03647     -358.852       -287.04829     -358.85489      0              6147.9534      45.959627      20.047001      20.857         19216.653      8489.868       4970.5431      4983.4492      425.06493      753.24466     -1413.3161    
  30834000   250.64205     -354.45156     -281.00523     -354.45432      0              3278.0242      46.321795      20.047001      20.857         19368.083      2937.1455      2886.0432      4010.8839     -236.966        849.5133       241.82507    
  30834500   255.75554     -357.44439     -282.49964     -357.44608      0              2871.8422      46.019534      20.047001      20.857         19241.702      1562.0798      3248.6069      3804.8399     -977.38787      78.317551      208.28147    
  30835000   250.46121     -356.27785     -282.88452     -356.28134      0              3481.1251      45.887511      20.047001      20.857         19186.5        5220.0558      3153.5252      2069.7942      1488.9305      498.29129      241.8639     
  30835500   247.71192     -356.34186     -283.75416     -356.33275      0              5108.0477      46.149826      20.047001      20.857         19296.179      4450.1589      4110.597       6763.3873     -81.538756      767.4907      -1141.2045    
  30836000   257.28277     -357.95578     -282.5635      -357.95597      0              2715.1995      46.31896       20.047001      20.857         19366.897      1858.7495      5070.2874      1216.5615     -118.46393     -350.55427      797.0357     
  30836500   255.66697     -355.71713     -280.79834     -355.71838      0              4884.172       46.120712      20.047001      20.857         19284.006      5755.5387      4474.9549      4422.0224     -850.7589       1847.439      -790.01943    
  30837000   251.0979      -357.6956      -284.11569     -357.69753      0              4491.0814      46.009651      20.047001      20.857         19237.569      4839.6882      3856.5622      4776.9937     -694.21775      2310.1552     -1947.5969    
  30837500   249.39232     -355.41756     -282.33745     -355.41779      0              4980.9622      46.02368       20.047001      20.857         19243.435      5452.714       3962.435       5527.7376     -1549.8242     -961.29776     -950.74137    
  30838000   247.67863     -356.17172     -283.59377     -356.17503      0              3800.5057      46.194445      20.047001      20.857         19314.835      3538.6312      3521.0443      4341.8417     -1120.7178     -655.94451      309.10056    
  30838500   252.60268     -358.25185     -284.23099     -358.26692      0              1395.2318      46.233813      20.047001      20.857         19331.296      5260.1418     -1691.2728      616.82636     -823.90577     -131.61582      986.51627    
  30839000   255.70936     -358.32242     -283.3912      -358.32263      0              4066.035       46.088147      20.047001      20.857         19270.39       4458.1377      3529.3638      4210.6037     -373.58293     -320.06392      1262.3578    
  30839500   243.54238     -358.37231     -287.00642     -358.36556      0              5984.4135      45.929274      20.047001      20.857         19203.962      7097.8253      4796.3119      6059.1034      793.86007     -0.54911076    -554.22284    
  30840000   247.46664     -356.24758     -283.73175     -356.24625      0              7016.9652      46.011075      20.047001      20.857         19238.165      7335.4449      7988.5438      5726.9069      1480.2525     -45.330234     -602.02493    
  30840500   248.48619     -355.6387      -282.82411     -355.64004      0              5551.4287      46.107425      20.047001      20.857         19278.45       4822.2441      6639.4916      5192.5505     -1400.3255     -2755.9178     -843.15679    
  30841000   247.48499     -357.14713     -284.62593     -357.15117      0              3334.9883      45.991259      20.047001      20.857         19229.879      4314.3941      2058.5804      3631.9906     -1193.2859      512.30064      367.09341    
  30841500   248.30145     -355.05068     -282.29022     -355.05452      0              3464.1461      45.888734      20.047001      20.857         19187.011      7272.4197      1642.0292      1477.9893     -785.86079      1223.1852      135.06723    
  30842000   241.34326     -357.96734     -287.24586     -357.97006      0              2743.2718      46.336885      20.047001      20.857         19374.392      1645.7123      3549.5589      3034.5442     -509.29464     -142.99927      314.03303    
  30842500   247.76598     -355.58238     -282.97884     -355.58261      0              2329.8835      46.27517       20.047001      20.857         19348.588      2608.9281      2097.1994      2283.523      -687.88979      1264.0269     -270.21651    
  30843000   251.50477     -357.16452     -283.46538     -357.16784      0              3806.049       45.806692      20.047001      20.857         19152.708      3149.3212      5271.214       2997.6117     -669.38731     -292.1362      -321.92851    
  30843500   240.35309     -356.436       -286.00468     -356.43622      0              6417.1829      45.868315      20.047001      20.857         19178.474      6741.9068      5968.7695      6540.8724     -693.02569      1417.6902     -1582.3687    
  30844000   245.00003     -359.11237     -287.31934     -359.11614      0              4104.0382      46.304975      20.047001      20.857         19361.05       7030.5333      1164.4086      4117.1727     -913.05498     -647.19598     -134.95854    
  30844500   254.31572     -358.6643      -284.14146     -358.66413      0              3870.4439      46.339235      20.047001      20.857         19375.375      2854.3222      3940.2203      4816.7891      771.46906      107.41051      1507.9981    
  30845000   255.51178     -355.2138      -280.34048     -355.21401      0              5771.7683      45.931489      20.047001      20.857         19204.888      8602.5006      4436.0617      4276.7426      702.46758     -251.9484      -1158.0084    
  30845500   250.5333      -357.28075     -283.86629     -357.2817       0              6462.7921      46.095246      20.047001      20.857         19273.358      7331.1728      6522.1189      5535.0845     -500.63517     -2002.1461     -156.54356    
  30846000   247.56722     -357.1358      -284.5905      -357.13332      0              3090.522       46.305217      20.047001      20.857         19361.151     -199.53468      3158.9002      6312.2006      1412.8644      148.32107      3993.6207    
  30846500   251.08995     -357.08606     -283.50848     -357.08905      0              4338.8356      46.30579       20.047001      20.857         19361.391      5247.4873      5504.5472      2264.4722     -1229.4938     -2206.9738     -846.3766     
  30847000   251.11634     -357.81336     -284.22805     -357.81502      0              2441.7004      46.137871      20.047001      20.857         19291.181      3150.5481      1858.5812      2315.9719     -857.94278      378.04089      1233.3881    
  30847500   251.32754     -357.53183     -283.88463     -357.53517      0              3665.6358      46.109208      20.047001      20.857         19279.196      4439.9247      3768.8139      2788.1689      72.433232     -760.04821     -1759.4714    
  30848000   248.40077     -357.86681     -285.07725     -357.86954      0              4970.6703      46.221191      20.047001      20.857         19326.018      1962.8319      6686.2616      6262.9175     -541.26376     -1019.3078      1242.6563    
  30848500   248.65534     -360.0149      -287.15074     -360.01512      0              4560.462       46.218484      20.047001      20.857         19324.886      6471.2552      4923.8645      2286.2663     -270.81292     -785.04652     -504.01973    
  30849000   245.71127     -358.38029     -286.37885     -358.38272      0              4558.68        45.888972      20.047001      20.857         19187.111      5542.8368      3185.9196      4947.2836      271.19379     -2474.5616      1809.1593    
  30849500   251.3838      -357.85093     -284.18724     -357.85113      0              4601.2131      45.951721      20.047001      20.857         19213.347      7260.6739      3518.0816      3024.8837     -1587.7616     -199.32888     -574.93114    
  30850000   250.57334     -357.17887     -283.75268     -357.18011      0              4675.4935      46.227538      20.047001      20.857         19328.672      5525.0812      4297.4997      4203.8996      1152.1948     -1252.2899      966.77777    
  30850500   254.31662     -358.29612     -283.77302     -358.30014      0              5361.8101      46.139439      20.047001      20.857         19291.836      6343.7396      4693.1259      5048.5649     -85.006263      303.67288     -457.61506    
  30851000   246.00615     -357.77808     -285.69022     -357.78051      0              3727.8474      46.019416      20.047001      20.857         19241.652      3541.6765      4888.6494      2753.2164     -103.72538      131.39842      235.7654     
  30851500   256.28306     -356.87715     -281.77782     -356.87953      0              4724.3021      46.082564      20.047001      20.857         19268.056      5830.4652      3932.1481      4410.2928     -479.92786     -84.796554      504.35917    
  30852000   253.52106     -357.4604      -283.17043     -357.45569      0              2272.6113      46.20568       20.047001      20.857         19319.533      2263.6429      1565.7742      2988.4169      1314.0697     -1230.8817     -741.2092     
  30852500   244.85832     -356.28782     -284.53632     -356.29076      0              6070.9228      46.236017      20.047001      20.857         19332.217      9191.4277      4197.8054      4823.5353     -503.34734      822.47771     -2033.2208    
  30853000   246.91879     -358.51537     -286.16007     -358.51558      0              3372.6526      46.082484      20.047001      20.857         19268.022      3966.342       4522.5374      1629.0783      745.38689     -1331.0622     -508.4317     
  30853500   251.63834     -356.17529     -282.43701     -356.17576      0              4017.4675      45.643115      20.047001      20.857         19084.313      5493.4009      3020.7496      3538.2521     -601.63119      171.17187     -635.96092    
  30854000   248.24191     -354.70091     -281.9579      -354.70382      0              4551.818       45.883941      20.047001      20.857         19185.007      5966.2253      4513.5553      3175.6734      522.1552       177.92335      1006.6418    
  30854500   249.25014     -354.68746     -281.64901     -354.68994      0              2012.4173      46.154035      20.047001      20.857         19297.939      2529.0411     -350.34692      3858.5577      783.42051     -1181.2571      56.614139    
  30855000   254.27336     -358.47298     -283.96256     -358.47313      0              3756.9894      46.153985      20.047001      20.857         19297.918      4762.1436      2934.5288      3574.2959     -717.69153     -21.97556      -427.32882    
  30855500   253.68189     -356.27468     -281.93758     -356.27635      0              5080.1136      45.998513      20.047001      20.857         19232.912      6125.9379      5563.0146      3551.3883     -178.81645     -573.3593       283.47295    
  30856000   251.49266     -357.01087     -283.31528     -357.01176      0              3440.7019      45.911812      20.047001      20.857         19196.661      3516.9336      3824.4381      2980.7341      922.65067      365.7708       228.01738    
  30856500   247.99987     -355.7689      -283.09682     -355.77297      0              4489.6863      45.9682        20.047001      20.857         19220.237      4581.1335      2923.1508      5964.7746     -1184.5197     -229.09068      1000.5261    
  30857000   249.10881     -358.49703     -285.49999     -358.48946      0              1108.9984      46.096953      20.047001      20.857         19274.072      2606.6666      1399.8057     -679.47719     -602.73008     -459.31168     -306.06587    
  30857500   250.74379     -359.00278     -285.52664     -359.00133      0              3023.3879      46.069899      20.047001      20.857         19262.76       2771.5996      3341.9108      2956.6534      712.90388     -1722.1618     -1002.6154    
  30858000   247.87712     -358.42966     -285.79354     -358.42929      0              6386.0527      45.907862      20.047001      20.857         19195.009      4736.1318      8898.7866      5523.2398      867.95823      164.39205      855.473      
  30858500   246.34987     -357.1833      -284.99472     -357.1874       0              2587.5599      45.926043      20.047001      20.857         19202.611      3755.9807      3000.1974      1006.5017     -958.91461     -831.54294      572.86004    
  30859000   247.57416     -359.05642     -286.50909     -359.05689      0              2514.7781      46.226432      20.047001      20.857         19328.21       3690.3411      2776.3998      1077.5934      1283.4279     -108.33364      1635.7869    
  30859500   243.99416     -358.08551     -286.58724     -358.08841      0              4514.6308      46.182378      20.047001      20.857         19309.79       4257.3908      5180.0734      4106.4282     -1838.1926      1011.4089      254.66462    
  30860000   238.0861      -357.88505     -288.11803     -357.88192      0              7595.365       45.76537       20.047001      20.857         19135.43       9794.0785      5731.9261      7260.0904     -660.84792     -1430.1654     -596.58365    
  30860500   237.16589     -360.97171     -291.47433     -360.97113      0              4034.7552      45.876729      20.047001      20.857         19181.992      5193.0845      1814.8058      5096.3753     -1022.0172     -1549.6438      272.42627    
  30861000   249.98685     -358.95342     -285.69908     -358.95496      0              3832.3034      46.227682      20.047001      20.857         19328.732      4441.3365      4351.7054      2703.8682     -1092.6391     -772.11393      728.03259    
  30861500   249.66959     -358.13385     -284.97248     -358.13672      0              4287.8517      46.339296      20.047001      20.857         19375.4        4524.2709      3926.9679      4412.3162     -824.46768      1426.8818     -246.56834    
  30862000   250.08348     -356.3797      -283.09705     -356.37953      0              6649.8589      45.712607      20.047001      20.857         19113.369      7445.4523      6700.4564      5803.668       320.89923      627.69567     -1330.6857    
  30862500   254.56402     -357.83774     -283.24215     -357.83913      0              5744.0662      45.835209      20.047001      20.857         19164.631      6930.3303      5027.8605      5274.0077     -102.25585     -335.33486      323.06925    
  30863000   249.0189      -358.60644     -285.63575     -358.61034      0              4205.4625      46.152863      20.047001      20.857         19297.449      6030.0533      2921.6516      3664.6826     -717.31652     -1443.3834      1681.7845    
  30863500   247.49991     -356.98234     -284.45676     -356.97835      0              5694.2163      46.185183      20.047001      20.857         19310.963      6470.9141      4394.0744      6217.6605     -569.51985      182.79782      189.46774    
  30864000   251.42568     -358.45376     -284.77781     -358.45663      0              5189.2824      46.140361      20.047001      20.857         19292.222      4778.296       7340.4808      3449.0703     -370.65849     -753.73693      509.47185    
  30864500   256.00931     -358.85204     -283.83292     -358.85248      0              4551.9639      46.021664      20.047001      20.857         19242.592      6646.9609      2297.0638      4711.867       1396.2444      592.44744     -351.54524    
  30865000   250.38808     -358.9193      -285.54739     -358.92176      0              4357.2984      46.108038      20.047001      20.857         19278.707      3284.1439      6361.2643      3426.4868      666.57942      1288.3797      0.24157934   
  30865500   251.69243     -357.55068     -283.79655     -357.5517       0              4973.4239      46.34884       20.047001      20.857         19379.391      2880.981       6237.7353      5801.5554     -1055.4143      867.27782      652.88347    
  30866000   247.82315     -357.85767     -285.23737     -357.86063      0              4340.0598      46.235509      20.047001      20.857         19332.005      6043.0823      2132.3149      4844.7823     -1294.4343      1782.2964      710.64075    
  30866500   251.11585     -359.02275     -285.43758     -359.02584      0              4308.8517      46.020252      20.047001      20.857         19242.002      2944.2139      4614.0354      5368.3057     -561.41392     -946.69893     -893.09946    
  30867000   251.32516     -357.32375     -283.67725     -357.32229      0              4493.2326      46.090553      20.047001      20.857         19271.396      6148.5557      2597.2766      4733.8656     -1317.5603      241.93317     -310.77123    
  30867500   244.60117     -356.98708     -285.31092     -356.99005      0              4629.9451      46.268757      20.047001      20.857         19345.907      3114.0497      7938.2008      2837.5848     -637.64263     -1761.0808      765.50788    
  30868000   249.61251     -357.36893     -284.22429     -357.37302      0              3634.694       46.041186      20.047001      20.857         19250.755      1607.0821      6313.7768      2983.2229     -1775.8243      1386.5001     -1017.159     
  30868500   250.9707      -357.21377     -283.67114     -357.21667      0              5128.4557      45.800703      20.047001      20.857         19150.204      7102.1668      4419.487       3863.7131      990.83636      382.02788      1469.2054    
  30869000   252.86616     -356.60712     -282.50905     -356.60732      0              3164.9531      45.873394      20.047001      20.857         19180.597      4599.4013      2939.8153      1955.6428      1202.0473      1172.0302     -1328.4446    
  30869500   239.8868      -354.02658     -283.73189     -354.02801      0              3880.7126      46.202907      20.047001      20.857         19318.373      3036.2104      4889.6748      3716.2526      550.39448     -108.39682     -441.39478    
  30870000   253.48729     -354.94916     -280.66908     -354.94771      0              4575.6417      46.011076      20.047001      20.857         19238.165      4748.6439      5195.6392      3782.642      -97.904141      37.069945      242.01498    
ERROR on proc 0: Cannot open restart file restart.lmp.0: Permission denied (../write_restart.cpp:233)
Last command: run             40000000 upto
