LAMMPS (23 Jun 2022)
echo both

include		in.partitions
variable        pid world 0
include		in.temp
variable	temperature equal 250.0
variable        tempDamp equal 0.100 # this is 0.1 ps
include		in.pressure
variable        pressure equal 5066.25
variable        pressureDamp equal 1.0 #this is 1ps
include		in.seed
variable        seed world 745823

units           metal
atom_style	full
read_restart	restart.lmp.${pid}
read_restart	restart.lmp.0
Reading restart file ...
  restart file = 23 Jun 2022, LAMMPS = 23 Jun 2022
  restoring atom style full from restart
  orthogonal box = (0.71389123 0 0) to (46.736808 20.047001 20.857)
  4 by 1 by 1 MPI processor grid
Summary of lammps deepmd module ...
  >>> Info of deepmd-kit:
  installed to:       /u/sigbjobo/software/DEEPMD_FROM_SOURCE/deepmd-kit/install
  source:             v2.1.3
  source branch:       master
  source commit:      5a32c49
  source commit at:   2022-07-01 09:52:58 +0800
  surpport model ver.:1.1 
  build float prec:   double
  build with tf inc:  /u/sigbjobo/software/DEEPMD_FROM_SOURCE/tensorflow/install/include;/u/sigbjobo/software/DEEPMD_FROM_SOURCE/tensorflow/install/include
  build with tf lib:  /u/sigbjobo/software/DEEPMD_FROM_SOURCE/tensorflow/install/lib/libtensorflow_cc.so;/u/sigbjobo/software/DEEPMD_FROM_SOURCE/tensorflow/install/lib/libtensorflow_framework.so
  set tf intra_op_parallelism_threads: 0
  set tf inter_op_parallelism_threads: 0
  >>> Info of lammps module:
  use deepmd-kit at:  /u/sigbjobo/software/DEEPMD_FROM_SOURCE/deepmd-kit/install
  source:             v2.1.3
  source branch:      master
  source commit:      5a32c49
  source commit at:   2022-07-01 09:52:58 +0800
  build float prec:   double
  build with tf inc:  /u/sigbjobo/software/DEEPMD_FROM_SOURCE/tensorflow/install/include;/u/sigbjobo/software/DEEPMD_FROM_SOURCE/tensorflow/install/include
  build with tf lib:  /u/sigbjobo/software/DEEPMD_FROM_SOURCE/tensorflow/install/lib/libtensorflow_cc.so;/u/sigbjobo/software/DEEPMD_FROM_SOURCE/tensorflow/install/lib/libtensorflow_framework.so
  restoring pair style deepmd from restart
  2268 atoms
Finding 1-2 1-3 1-4 neighbors ...
  special bond factors lj:    0        0        0       
  special bond factors coul:  0        0        0       
     0 = max # of 1-2 neighbors
     0 = max # of 1-3 neighbors
     0 = max # of 1-4 neighbors
     1 = max # of special neighbors
  special bonds CPU = 0.001 seconds
  read_restart CPU = 0.012 seconds
include 	in.setup
variable	out_freq equal 500
variable	out_freq2 equal 1000
variable	out_freq3 equal 5000

timestep        0.0005

neigh_modify    delay 7 every 1

include         in.deepmd
# This is deepMD model

# create groups ###
#group ox type 2
#group hy type 1

mass 2 15.999
mass 1 1.008

pair_style      deepmd ../graph.pb
pair_coeff      * *

bond_style      none
angle_style     none
dihedral_style  none
improper_style  none
neigh_modify exclude none


neighbor        2.0 bin
neigh_modify    every 10 delay 0 check no

thermo          ${out_freq}
thermo          500
thermo_style 	custom step temp pe etotal epair emol press lx ly lz vol pxx pyy pzz pxy pxz pyz
#thermo_modify	flush yes
restart 	${out_freq} restart.lmp.${pid} restart2.lmp.${pid}
restart 	500 restart.lmp.${pid} restart2.lmp.${pid}
restart 	500 restart.lmp.0 restart2.lmp.${pid}
restart 	500 restart.lmp.0 restart2.lmp.0

include		in.dump
dump            myDump all atom ${out_freq3} dump.water.${pid}
dump            myDump all atom 5000 dump.water.${pid}
dump            myDump all atom 5000 dump.water.0
dump            myDump2 all dcd ${out_freq2} dump.dcd.${pid}
dump            myDump2 all dcd 1000 dump.dcd.${pid}
dump            myDump2 all dcd 1000 dump.dcd.0
dump_modify     myDump append yes
dump_modify     myDump2 append yes


timer           timeout 23:50:00 every 1000
New timer settings: style=normal  mode=nosync  timeout=23:50:00

fix             1 all plumed plumedfile plumed.dat outfile plumed.out
fix             3 all nph x ${pressure} ${pressure} ${pressureDamp}
fix             3 all nph x 5066.25 ${pressure} ${pressureDamp}
fix             3 all nph x 5066.25 5066.25 ${pressureDamp}
fix             3 all nph x 5066.25 5066.25 1
Resetting global fix info from restart file:
  fix style: nph, fix ID: 3
fix             4 all temp/csvr ${temperature} ${temperature} ${tempDamp} ${seed}
fix             4 all temp/csvr 250 ${temperature} ${tempDamp} ${seed}
fix             4 all temp/csvr 250 250 ${tempDamp} ${seed}
fix             4 all temp/csvr 250 250 0.1 ${seed}
fix             4 all temp/csvr 250 250 0.1 745823
Resetting global fix info from restart file:
  fix style: temp/csvr, fix ID: 4

run             40000000 upto

CITE-CITE-CITE-CITE-CITE-CITE-CITE-CITE-CITE-CITE-CITE-CITE-CITE

Your simulation uses code contributions which should be cited:

- USER-DEEPMD package:

@article{Wang_ComputPhysCommun_2018_v228_p178,
  author = {Wang, Han and Zhang, Linfeng and Han, Jiequn and E, Weinan},
  doi = {10.1016/j.cpc.2018.03.016},
  url = {https://doi.org/10.1016/j.cpc.2018.03.016},
  year = 2018,
  month = {jul},
  publisher = {Elsevier {BV}},
  volume = 228,
  journal = {Comput. Phys. Commun.},
  title = {{DeePMD-kit: A deep learning package for many-body potential energy representation and molecular dynamics}},
  pages = {178--184}
}

CITE-CITE-CITE-CITE-CITE-CITE-CITE-CITE-CITE-CITE-CITE-CITE-CITE

Generated 0 of 1 mixed pair_coeff terms from geometric mixing rule
All restart file global fix info was re-assigned
Neighbor list info ...
  update every 10 steps, delay 0 steps, check no
  max neighbors/atom: 2000, page size: 100000
  master list distance cutoff = 8
  ghost atom cutoff = 8
  binsize = 4, bins = 12 6 6
  1 neighbor lists, perpetual/occasional/extra = 1 0 0
  (1) pair deepmd, perpetual
      attributes: full, newton on
      pair build: full/bin
      stencil: full/bin/3d
      bin: standard
Per MPI rank memory allocation (min/avg/max) = 6.148 | 6.149 | 6.15 Mbytes
   Step          Temp          PotEng         TotEng         E_pair         E_mol          Press            Lx             Ly             Lz           Volume          Pxx            Pyy            Pzz            Pxy            Pxz            Pyz      
  38989500   246.07942     -358.75289     -286.64356     -358.75289      0              3192.8241      46.022917      20.047001      20.857         19243.116      1043.3622      4550.1015      3985.0084      578.7668       504.71304     -1264.3679    
  38990000   246.74918     -354.8963      -282.59071     -354.89998      0              5937.8793      45.710701      20.047001      20.857         19112.572      6073.9508      8223.2741      3516.4129     -940.68103      192.46877     -1840.4695    
  38990500   250.96775     -359.18529     -285.64352     -359.19059      0              3709.8718      45.764084      20.047001      20.857         19134.892      3373.0803      3760.3845      3996.1505      230.77042     -437.28954     -20.077076    
  38991000   249.12566     -358.17103     -285.16906     -358.17585      0              5175.3318      46.058583      20.047001      20.857         19258.028      4741.9784      5933.7651      4850.252      -1020.6208     -225.2304       304.22545    
  38991500   240.14326     -358.9112      -288.54136     -358.91335      0              3963.8324      46.061011      20.047001      20.857         19259.044      1371.1053      6960.5883      3559.8036      1484.4498      1308.1891      1014.2838    
  38992000   244.48522     -357.47027     -285.82809     -357.4743       0              5367.731       45.844337      20.047001      20.857         19168.448      7399.2935      5263.3041      3440.5954     -97.68121      -404.31628     -87.70704     
  38992500   247.26333     -356.20047     -283.74422     -356.20453      0              6398.0756      45.883952      20.047001      20.857         19185.012      8806.7621      4445.2554      5942.2093      119.04664     -1296.6162     -825.35348    
  38993000   253.72399     -356.69285     -282.34342     -356.69667      0              5961.5359      46.021481      20.047001      20.857         19242.516      6134.5446      4512.6551      7237.408       356.26089     -1064.6723     -1361.5595    
  38993500   247.60058     -356.07097     -283.51589     -356.09207      0              5315.4505      46.047701      20.047001      20.857         19253.478      7575.2879      6125.9293      2245.1342     -1436.1225     -1464.3966     -1812.2924    
  38994000   255.59589     -355.51586     -280.61789     -355.51946      0              5398.1851      45.87184       20.047001      20.857         19179.948      4326.3905      6326.0475      5542.1173     -299.4323      -450.79119      2524.11      
  38994500   255.48457     -356.1748      -281.30946     -356.18053      0              4495.3706      45.976202      20.047001      20.857         19223.583      5041.8879      5544.4185      2899.8056      349.99238     -30.454384     -412.28808    
  38995000   258.1681      -356.29453     -280.64282     -356.29948      0              4747.9758      45.842911      20.047001      20.857         19167.852      4051.1069      7344.0485      2848.7721     -572.27265     -1725.0009      444.62966    
  38995500   243.60388     -356.56963     -285.18571     -356.57444      0              3736.0029      45.812044      20.047001      20.857         19154.946      4131.67        2959.9854      4116.3533     -344.29661      821.2239      -218.86056    
  38996000   249.37148     -354.56785     -281.49384     -354.5737       0              5594.0636      45.996141      20.047001      20.857         19231.92       7877.7428      3181.0742      5723.3738     -719.13658     -607.23081      1575.6177    
  38996500   253.51102     -356.8894      -282.60237     -356.89447      0              4639.906       45.953198      20.047001      20.857         19213.965      4459.6117      4991.5307      4468.5756      899.42075     -916.02289     -1471.7843    
  38997000   251.44893     -359.01569     -285.33292     -359.01965      0              6479.9466      45.958398      20.047001      20.857         19216.139      6557.8615      5963.3747      6918.6038      103.99108     -1221.713       205.25315    
  38997500   252.64376     -358.66822     -284.63532     -358.66855      0              3795.4057      45.863148      20.047001      20.857         19176.313      3669.5889      4003.8063      3712.8219     -363.70347     -662.64844     -1145.7211    
  38998000   245.69805     -355.94553     -283.94796     -355.94965      0              4178.0179      45.82737       20.047001      20.857         19161.354      4825.9732      5034.6013      2673.4792     -119.69883     -1084.1586      261.28709    
  38998500   251.4177      -355.0526      -281.37898     -355.05548      0              4742.2485      45.877298      20.047001      20.857         19182.23       4243.2999      6022.2971      3961.1484      1583.6871      320.32918      824.32316    
  38999000   244.13403     -356.1193      -284.58003     -356.11878      0              4000.2681      45.657568      20.047001      20.857         19090.356      2933.4712      5259.2694      3808.0636      78.376271      2237.8485      2681.5398    
  38999500   249.93426     -358.66464     -285.42572     -358.66471      0              5153.431       45.785466      20.047001      20.857         19143.833      4134.6638      6943.997       4381.6323      654.77421      640.38051     -1275.9253    
  39000000   243.96238     -358.43209     -286.94312     -358.42934      0              6024.6418      46.057605      20.047001      20.857         19257.619      5765.8661      7362.4846      4945.5747      457.61387     -262.65724      2151.3507    
  39000500   246.28145     -357.21839     -285.04986     -357.21343      0              4680.0602      45.983709      20.047001      20.857         19226.722      5079.1478      4573.1138      4387.9189     -211.23402     -562.61274     -321.13169    
  39001000   251.575       -357.22923     -283.50951     -357.23008      0              4078.8428      45.874507      20.047001      20.857         19181.063      4731.9296      4668.0123      2836.5864     -382.72607      486.79828      590.81421    
  39001500   249.52721     -359.29364     -286.174       -359.29472      0              3822.4183      46.0213        20.047001      20.857         19242.44       5669.764       3778.955       2018.5357     -74.693872      27.794413      1212.9409    
  39002000   243.11752     -360.21008     -288.96868     -360.21092      0              2358.5121      46.3768        20.047001      20.857         19391.082      3089.3389      1581.8599      2404.3377     -425.89214      325.77389      374.07328    
  39002500   242.8555      -359.28771     -288.1231      -359.28854      0              4828.3529      46.130203      20.047001      20.857         19287.974      5671.1932      4792.7814      4021.0843      1750.0653      29.319428     -879.72092    
  39003000   243.95972     -355.57649     -284.0883      -355.57663      0              4402.5035      45.621801      20.047001      20.857         19075.401      4968.8902      4227.8754      4010.7449      110.51749      1470.0213     -1110.2147    
  39003500   243.21404     -358.07329     -286.80361     -358.07742      0              3631.9191      45.940946      20.047001      20.857         19208.842      3288.7536      4817.8802      2789.1236      350.17674      1078.2523      1286.4179    
  39004000   251.62703     -356.2249      -282.48994     -356.23038      0              4088.5108      46.124658      20.047001      20.857         19285.656      5568.9976      2602.2863      4094.2486      745.34129      642.92133     -133.36655    
  39004500   261.60946     -357.02563     -280.36549     -357.02944      0              5807.3087      45.954125      20.047001      20.857         19214.352      6615.5068      4805.5736      6000.8455      174.16048      1227.1618      747.31262    
  39005000   255.43167     -356.29532     -281.44547     -356.29927      0              6795.4882      45.951843      20.047001      20.857         19213.399      7095.4277      6669.1548      6621.8821      2448.2002      1346.5463      2165.5182    
  39005500   245.68801     -357.74216     -285.74753     -357.74738      0              3843.4891      46.220136      20.047001      20.857         19325.577      3719.9306      4199.0174      3611.5195      1.2672481     -1053.8966      855.38135    
  39006000   244.08399     -358.84567     -287.32107     -358.85024      0              2185.6073      46.264935      20.047001      20.857         19344.308      2413.0223      2115.3436      2028.4559     -478.3013       306.05067      1481.494     
  39006500   251.99568     -359.29033     -285.44734     -359.29124      0              3372.1624      45.804678      20.047001      20.857         19151.866      3724.8307      4318.8678      2072.7887      6.6649085      1789.1993      1389.9284    
  39007000   248.58031     -357.06334     -284.22117     -357.06899      0              5009.4435      45.800072      20.047001      20.857         19149.94       3089.3887      5242.2899      6696.6518      2482.9427      1376.4167     -1493.1229    
  39007500   253.45627     -357.57048     -283.2995      -357.57449      0              2961.5424      45.947428      20.047001      20.857         19211.553      4237.2733      2568.0937      2079.2602     -852.54298      26.466612      1799.0402    
  39008000   246.43856     -359.16514     -286.95057     -359.1641       0              6239.3131      45.992545      20.047001      20.857         19230.417      5884.731       6618.9868      6214.2215      1061.4034      328.22636     -1036.3175    
  39008500   248.64411     -356.8261      -283.96523     -356.83144      0              5289.5513      45.837297      20.047001      20.857         19165.504      5201.5956      6066.9612      4600.0971      1636.9982     -607.83756      322.01122    
  39009000   255.62609     -359.84959     -284.94277     -359.85217      0              3945.8235      45.718649      20.047001      20.857         19115.895      5274.7304      2620.1574      3942.5828      290.2416       1794.0529      2356.0324    
  39009500   250.77789     -359.44963     -285.9635      -359.45147      0              2765.8171      45.748934      20.047001      20.857         19128.558      2224.2284      2770.6906      3302.5322      1747.3482     -976.57075     -683.32949    
  39010000   250.37645     -358.57601     -285.20751     -358.58047      0              3947.2297      45.681018      20.047001      20.857         19100.161      5854.9467      2692.5755      3294.1671      1485.4629      1409.7637     -385.86548    
  39010500   244.76885     -357.54326     -285.81798     -357.548        0              3160.8909      45.944556      20.047001      20.857         19210.351      3256.3741      2529.9249      3696.3738      1348.2545     -1152.891       590.18767    
  39011000   250.46797     -358.12959     -284.73427     -358.13379      0              5123.1617      45.852523      20.047001      20.857         19171.871      4939.1113      6288.3027      4142.0711     -464.35969      351.92427     -1183.6207    
  39011500   247.52714     -358.48354     -285.94998     -358.48928      0              4044.1613      45.847765      20.047001      20.857         19169.881      4806.0124      4022.8598      3303.6118     -746.46865      297.86985      578.33283    
  39012000   254.36396     -359.33652     -284.79955     -359.34205      0              5442.1937      45.688628      20.047001      20.857         19103.343      5404.484       5632.0362      5290.0607     -406.70002     -138.43639     -1068.4997    
  39012500   248.74427     -354.54482     -281.65461     -354.54971      0              6137.7678      45.693192      20.047001      20.857         19105.251      6549.5491      5556.373       6307.3814      2106.6722      701.138        20.077699    
  39013000   252.73979     -357.43224     -283.37121     -357.438        0              3513.3685      46.068728      20.047001      20.857         19262.271      4105.1088      2200.1818      4234.8148     -1077.2954      886.32427     -1655.5891    
  39013500   248.56499     -357.7581      -284.92042     -357.76308      0              4724.6264      46.320117      20.047001      20.857         19367.381      3416.276       4727.224       6030.3792      33.072832     -607.45233      593.1123     
  39014000   252.24008     -357.81095     -283.89635     -357.81487      0              4583.7997      45.930578      20.047001      20.857         19204.507      4989.7164      3609.9508      5151.7319      256.69891     -623.43068     -357.56281    
  39014500   248.97404     -357.98849     -285.03094     -357.98941      0              3806.2764      45.617778      20.047001      20.857         19073.719      4636.1946      4162.1803      2620.4544      465.24691      1497.7747      1246.3988    
  39015000   254.30751     -359.71019     -285.18976     -359.71423      0              4687.3953      46.025391      20.047001      20.857         19244.15       4476.3446      3757.0643      5828.777       1234.2736     -275.39129     -898.60399    
  39015500   246.14001     -358.12485     -285.99777     -358.12767      0              4496.2103      46.076938      20.047001      20.857         19265.703      4708.7139      4072.0187      4707.8982     -1052.8263      1705.0904      523.34975    
  39016000   249.78558     -358.56772     -285.37237     -358.56859      0              7548.317       45.877239      20.047001      20.857         19182.205      8577.0004      5499.4152      8568.5353      75.157551      719.02059      473.41843    
  39016500   248.56348     -358.22231     -285.38507     -358.22263      0              6132.0509      45.738876      20.047001      20.857         19124.353      7613.3128      4869.067       5913.773      -843.44797      35.0503        604.11633    
  39017000   248.12558     -358.88024     -286.17132     -358.88301      0              2492.8234      45.801881      20.047001      20.857         19150.696      3345.8044      3057.4211      1075.2446      796.47006     -890.22808     -601.96357    
  39017500   250.88854     -359.25046     -285.7319      -359.24924      0              3385.2161      45.877411      20.047001      20.857         19182.277      5358.356       3724.4026      1072.8896      1005.1732     -2655.495      -3.0865382    
  39018000   245.59884     -356.67787     -284.70936     -356.68231      0              5607.0562      45.907578      20.047001      20.857         19194.89       6338.2832      5173.3632      5309.5223     -1107.8371      2017.6992      306.92949    
  39018500   243.49961     -358.83947     -287.48611     -358.84142      0              1259.2232      45.974332      20.047001      20.857         19222.802      730.78498      1933.7741      1113.1106      699.13499      407.96073      402.42593    
  39019000   248.0532      -356.16761     -283.47989     -356.16847      0              6056.6935      45.875568      20.047001      20.857         19181.506      9452.3521      3552.8368      5164.8914      1019.449       649.48361      705.81448    
  39019500   252.07931     -357.06003     -283.19253     -357.06089      0              5432.8701      46.014885      20.047001      20.857         19239.757      5755.8024      4400.9992      6141.8086      263.04556      1446.2739      583.22106    
  39020000   245.51912     -358.66437     -286.71923     -358.66516      0              4001.0783      46.128941      20.047001      20.857         19287.447      3719.4107      4477.1687      3806.6555      430.172       -424.68431     -50.119734    
  39020500   249.13551     -356.35155     -283.34669     -356.3477       0              3993.337       46.147253      20.047001      20.857         19295.103      4114.0285      2403.4629      5462.5196      1061.931      -747.61071      221.60883    
  39021000   249.40276     -357.77791     -284.69473     -357.7748       0              5305.7017      45.899805      20.047001      20.857         19191.64       5913.3518      4020.4419      5983.3114     -70.213083      437.50979     -771.92942    
  39021500   260.56663     -359.77805     -283.42349     -359.77156      0              4343.5259      45.871297      20.047001      20.857         19179.721      4102.6759      3796.1727      5131.7289     -655.64724      1911.4963     -129.45545    
  39022000   256.24924     -357.87685     -282.78743     -357.87916      0              5147.04        45.873531      20.047001      20.857         19180.654      5842.0211      4460.2047      5138.8942      98.198667      473.07946     -527.84711    
  39022500   250.37768     -359.11837     -285.74951     -359.12201      0              4145.2331      45.874096      20.047001      20.857         19180.891      3769.4106      3480.1588      5186.1299      52.86733       1337.8389      1921.4348    
  39023000   250.61183     -358.9206      -285.48313     -358.91666      0              5093.3494      45.781448      20.047001      20.857         19142.153      5892.5942      4257.8543      5129.5997      1034.7167      136.06944     -566.44995    
  39023500   244.54072     -357.41058     -285.75214     -357.41049      0              3750.6621      45.96464       20.047001      20.857         19218.749      3819.9428      4931.8168      2500.2268     -548.78076     -1331.1237      1601.5104    
  39024000   247.40848     -358.14602     -285.64723     -358.1418       0              2500.3062      45.872117      20.047001      20.857         19180.064      4179           260.47741      3061.4412     -1212.7516     -1470.1528     -278.40357    
  39024500   248.06786     -360.29373     -287.60172     -360.28868      0              5423.4194      45.838647      20.047001      20.857         19166.069      7462.7196      5415.9739      3391.5647     -761.05275     -1093.3164     -251.61951    
  39025000   250.66025     -360.02735     -286.57569     -360.02879      0              4864.031       45.797244      20.047001      20.857         19148.758      4141.0841      5295.1299      5155.8791      869.20174     -470.36424     -558.4192     
  39025500   247.79827     -356.29664     -283.68363     -356.29692      0              4369.7909      45.780252      20.047001      20.857         19141.653      7638.6708      1266.7447      4203.957       668.295        74.852773      1461.218     
  39026000   251.90132     -358.93572     -285.12039     -358.93696      0              5382.5038      46.003267      20.047001      20.857         19234.9        4742.113       6869.4274      4535.9712      5.3298237     -210.58766     -59.220244    
  39026500   243.13052     -358.13381     -286.8886      -358.13745      0              2229.8388      46.186097      20.047001      20.857         19311.345     -630.7924       4413.74        2906.5687      49.012077      1910.4127     -280.28173    
  39027000   250.7771      -359.84639     -286.36049     -359.84877      0              4178.9631      45.973256      20.047001      20.857         19222.351      6834.3982      2109.9083      3592.5827      635.42041     -358.49078      810.65176    
  39027500   252.06765     -358.36181     -284.49773     -358.36314      0              5437.3431      45.83128       20.047001      20.857         19162.989      6156.4563      5232.4366      4923.1362      776.70856      865.4267       147.9921     
  39028000   251.46012     -359.43979     -285.75374     -359.44473      0              4455.7056      45.886776      20.047001      20.857         19186.193      5649.9948      1260.26        6456.862      -89.709232     -1030.5251     -185.09698    
  39028500   248.88352     -359.09407     -286.16305     -359.09432      0              4693.7093      45.791054      20.047001      20.857         19146.169      4667.09        5499.2409      3914.797      -618.38156     -196.98086      435.46953    
  39029000   246.34319     -354.90903     -282.7224      -354.9145       0              4966.5346      45.958578      20.047001      20.857         19216.214      6696.4888      3396.0431      4807.0719      5.0340215      391.56446      1591.2544    
  39029500   245.18132     -357.42341     -285.57725     -357.42612      0              1474.0972      46.157041      20.047001      20.857         19299.196      1161.5543     -47.60506       3308.3422     -588.13986     -56.844915      442.83318    
  39030000   246.20114     -358.02087     -285.87587     -358.02583      0              5883.8984      45.992546      20.047001      20.857         19230.417      7261.6452      5489.2898      4900.76        679.58526      142.28323     -522.04294    
  39030500   247.38929     -358.68419     -286.19102     -358.68637      0              6352.6223      45.883143      20.047001      20.857         19184.673      9194.207       4506.8832      5356.7768     -322.43655      944.95484     -1259.2098    
  39031000   246.17747     -358.56578     -286.42772     -358.56992      0              2609.8778      45.99927       20.047001      20.857         19233.229      1863.5182      5051.9761      914.13902      505.16885     -113.3423       1170.8447    
  39031500   252.46427     -357.58853     -283.60822     -357.59256      0              5113.2573      45.945346      20.047001      20.857         19210.682      5254.2406      4630.6358      5454.8954      662.7535      -1163.2426      997.5425     
  39032000   246.43836     -356.38103     -284.16652     -356.38651      0              4421.5816      45.784051      20.047001      20.857         19143.241      5316.5391      5055.064       2893.1417     -1958.1719      1413.3588     -1169.0097    
  39032500   250.97052     -358.98877     -285.44619     -358.98968      0              5052.6786      45.912539      20.047001      20.857         19196.964      6165.7295      5472.8936      3519.4126     -91.359733      917.38578      776.98385    
  39033000   250.49407     -359.81968     -286.41671     -359.82456      0              3791.2541      46.106425      20.047001      20.857         19278.032      4641.5718      2597.5268      4134.6637     -485.83621      1999.8675      988.82542    
  39033500   252.17919     -357.24392     -283.34716     -357.24788      0              1699.5786      46.107384      20.047001      20.857         19278.433      2413.385       2190.9641      494.3869      -1126.3376      746.61836      442.16431    
  39034000   245.86486     -356.13998     -284.09353     -356.14082      0              5548.7323      45.975166      20.047001      20.857         19223.15       7088.109       4938.3295      4619.7586      32.70987      -507.64325      814.01751    
  39034500   250.81695     -356.56679     -283.06921     -356.57258      0              6017.4836      45.767327      20.047001      20.857         19136.249      9798.6856      3059.5391      5194.2262     -122.72298     -643.25902     -2045.1814    
  39035000   244.45591     -357.357       -285.72341     -357.35859      0              6610.3711      45.519798      20.047001      20.857         19032.751      7468.7932      7573.6389      4788.6812      418.41631      172.87121      927.23699    
  39035500   243.31563     -356.65247     -285.35302     -356.65368      0              4328.0536      46.025289      20.047001      20.857         19244.108      6226.9104      3393.6154      3363.6351      752.52473      570.52051      192.82131    
  39036000   246.35626     -358.79158     -286.60113     -358.79282      0              2356.9001      46.351597      20.047001      20.857         19380.544      2282.2682      1757.1991      3031.2329      270.98379      1972.8997      921.72102    
  39036500   252.0803      -358.80907     -284.94129     -358.81323      0              4175.2944      46.107094      20.047001      20.857         19278.312      2437.2034      5906.2173      4182.4625      121.16286     -637.42081      851.50052    
  39037000   255.06039     -358.08238     -283.34133     -358.08756      0              5130.5905      45.921591      20.047001      20.857         19200.749      6083.7865      5572.5547      3735.4301     -1070.1182      667.46155      355.27464    
  39037500   249.48344     -354.61328     -281.50646     -354.61864      0              5164.3271      46.146043      20.047001      20.857         19294.597      6904.4822      3956.2016      4632.2974     -51.170704     -905.58912      55.865194    
  39038000   248.15035     -356.95391     -284.23773     -356.958        0              4924.1149      46.309289      20.047001      20.857         19362.854      4898.9151      5987.5278      3885.9017     -57.825207      406.56711      487.86854    
  39038500   254.95285     -359.17619     -284.46666     -359.17803      0              2601.3186      46.38031       20.047001      20.857         19392.549      2363.3637      1222.3463      4218.2458      36.486365     -1565.9454      846.46262    
  39039000   251.93196     -356.91973     -283.09541     -356.92156      0              3805.7703      46.075086      20.047001      20.857         19264.929      2859.8435      4072.6151      4484.8522      265.87895      2327.5389     -209.37905    
  39039500   248.46738     -357.60531     -284.79623     -357.60622      0              4889.4593      46.069695      20.047001      20.857         19262.675      4620.7093      7179.268       2868.4007     -1758.6888     -1997.5151      1076.2452    
  39040000   248.50098     -355.89848     -283.07956     -355.90328      0              2688.2813      46.230351      20.047001      20.857         19329.848      561.13921      4746.8844      2756.8203     -493.2625       1046.226       1636.0648    
  39040500   250.73313     -357.73364     -284.26062     -357.73504      0              3217.9828      46.444494      20.047001      20.857         19419.386      2610.5467      2678.1746      4365.2272     -853.60029     -1885.5234     -931.53435    
  39041000   251.30954     -356.57281     -282.93089     -356.57372      0              4318.1193      46.191496      20.047001      20.857         19313.602      5153.6379      5227.4861      2573.2338      1516.9529      1061.0653      848.53738    
  39041500   249.47001     -356.24695     -283.14406     -356.24949      0              3951.4825      45.858236      20.047001      20.857         19174.259      5136.325       1951.1546      4766.968      -578.51045      1138.7147     -458.52059    
  39042000   249.01966     -357.48504     -284.51412     -357.47959      0              6519.3996      45.574488      20.047001      20.857         19055.618      7346.2792      6062.5914      6149.3282      2408.9651     -1243.9433      1596.8906    
  39042500   247.12789     -358.01369     -285.59712     -358.01853      0              4574.7776      45.847164      20.047001      20.857         19169.63       5091.4153      3900.3753      4732.5421      1766.1514      742.40929      1676.8819    
  39043000   244.51116     -359.12913     -287.47936     -359.13147      0              4203.4974      45.856604      20.047001      20.857         19173.577      5422.8797      3226.7332      3960.8794     -265.84205     -561.32566     -413.70487    
  39043500   248.05582     -359.33958     -286.6511      -359.34009      0              5202.7965      45.866337      20.047001      20.857         19177.647      4692.3305      6317.9716      4598.0875      1480.4638     -135.5218       1184.249     
  39044000   251.50031     -357.35507     -283.65724     -357.35615      0              3477.777       46.107775      20.047001      20.857         19278.597      2870.8079      4521.4123      3041.1108     -356.07463      3198.2372      789.84352    
  39044500   255.06785     -358.75279     -284.00956     -358.75396      0              1349.51        46.043114      20.047001      20.857         19251.561      1046.9078      1367.0849      1634.5373      555.38105     -341.50362     -339.32468    
  39045000   251.91549     -360.90061     -287.08112     -360.90114      0              6022.0828      45.867546      20.047001      20.857         19178.152      9467.4331      2651.3016      5947.5138     -2318.5003      2006.5152      200.45618    
  39045500   256.20513     -357.78799     -282.7115      -357.78542      0              3439.7497      46.027652      20.047001      20.857         19245.096      3406.5907      1951.3682      4961.2904     -922.61656     -208.23016      221.51637    
  39046000   246.35006     -356.94114     -284.75251     -356.94088      0              2571.8179      46.164576      20.047001      20.857         19302.346      5917.943       508.75991      1288.7508      435.93218      1184.2356     -350.0834     
  39046500   254.09577     -357.39588     -282.9375      -357.39684      0              6099.8278      45.967732      20.047001      20.857         19220.042      6945.4207      4569.1609      6784.9019     -501.40888      22.65134      -982.51566    
  39047000   251.10843     -357.56503     -283.98204     -357.55694      0              3478.0612      45.977473      20.047001      20.857         19224.115      1911.2597      4025.0696      4497.8542     -908.71385      1020.4099      1529.4518    
  39047500   254.00593     -359.35524     -284.92319     -359.35581      0              4702.6011      46.244894      20.047001      20.857         19335.929      3855.6632      5539.6632      4712.477       1040.4141     -807.23111     -762.20889    
  39048000   249.16806     -357.20395     -284.18954     -357.19863      0              4405.0883      46.058888      20.047001      20.857         19258.156      5525.4784      3320.8913      4368.8952     -304.27719      2009.596      -1259.3043    
  39048500   249.98872     -358.31834     -285.06346     -358.31249      0              4275.1701      45.774807      20.047001      20.857         19139.376      3751.5249      6364.3109      2709.6745     -1106.3561      143.44047      1229.6372    
  39049000   252.61429     -359.84003     -285.81577     -359.84097      0              3123.4781      45.75541       20.047001      20.857         19131.266      4301.1001      1058.113       4011.2211     -620.25209      147.99949      340.05432    
  39049500   251.61389     -356.66272     -282.93161     -356.6629       0              6150.9988      45.948636      20.047001      20.857         19212.057      7169.8645      6308.6415      4974.4905      1515.3698      38.171736     -2920.1651    
  39050000   250.57979     -357.9837      -284.55562     -357.97659      0              3302.8199      45.928725      20.047001      20.857         19203.732      3582.1365      5985.094       341.22903      323.07739     -172.05852      1454.9516    
  39050500   247.00267     -357.89198     -285.51211     -357.88838      0              2935.5982      45.930948      20.047001      20.857         19204.662      1735.2729      3773.1797      3298.3419     -288.44731     -328.29524     -262.39135    
  39051000   245.77496     -356.12306     -284.10295     -356.11735      0              2463.8537      45.796545      20.047001      20.857         19148.465      4932.7099      1519.4311      939.41995     -206.3763       2160.4409     -474.99326    
  39051500   249.28982     -357.53358     -284.4835      -357.53081      0              2154.1783      45.88757       20.047001      20.857         19186.525      5011.4991      229.01644      1222.0192     -779.3685      -856.71269      1314.1413    
  39052000   250.06427     -357.74771     -284.47069     -357.74674      0              3996.8044      46.152187      20.047001      20.857         19297.166      4339.3192      3613.6464      4037.4475      2440.162      -694.69569      904.89038    
  39052500   253.54945     -358.53872     -284.24043     -358.54094      0              4502.45        46.209513      20.047001      20.857         19321.135      5523.7117      5525.3438      2458.2947     -381.46223     -884.6883      -614.76166    
  39053000   246.56661     -356.50697     -284.25488     -356.51015      0              2419.7072      46.106098      20.047001      20.857         19277.896      3960.9296      2295.0778      1003.1142      600.48681      1496.8451     -356.1296     
  39053500   254.64257     -358.7795      -284.16088     -358.77187      0              2122.7315      45.870955      20.047001      20.857         19179.577      1784.5218      2466.5029      2117.1697      1675.4323     -1365.1312      248.8172     
  39054000   248.448       -355.33408     -282.53068     -355.3348       0              5196.0086      45.800054      20.047001      20.857         19149.932      4414.692       5433.0547      5740.279       365.60297     -850.74528      655.82148    
  39054500   248.55165     -357.27454     -284.44077     -357.26799      0              2687.1432      46.211136      20.047001      20.857         19321.814      871.72991      3273.21        3916.4895      1753.1248      1201.6484     -950.52941    
  39055000   248.6715      -356.12258     -283.25369     -356.1235       0              5794.1316      46.097881      20.047001      20.857         19274.46       6501.4685      4539.2218      6341.7045      796.4275       1019.5247     -615.89249    
  39055500   248.40248     -356.60298     -283.81291     -356.60883      0              3276.8157      45.751263      20.047001      20.857         19129.532      3776.2307      2685.9898      3368.2267      310.58922     -130.70218      956.83792    
  39056000   247.45826     -357.37311     -284.85973     -357.37439      0              5408.3891      45.768623      20.047001      20.857         19136.79       5807.9722      6000.377       4416.8182      55.381166     -1060.8246      1441.3866    
  39056500   246.0892      -356.18196     -284.06977     -356.18831      0              4934.2244      45.971539      20.047001      20.857         19221.634      5918.6248      3496.7751      5387.2734     -548.19758     -2348.9364      312.29868    
  39057000   245.02213     -356.70754     -284.90803     -356.70846      0              4078.0456      45.795737      20.047001      20.857         19148.127      3695.9877      4720.0803      3818.069       435.3848       421.32477     -654.31431    
  39057500   254.24174     -358.28264     -283.78148     -358.28355      0              4663.8144      45.554857      20.047001      20.857         19047.411      4952.6746      3294.505       5744.2638      1179.3086     -721.74318      357.78038    
  39058000   251.96108     -357.2868      -283.45395     -357.28791      0              4642.3869      45.70353       20.047001      20.857         19109.573      4948.776       4324.9412      4653.4436      820.92569     -606.4432       148.6603     
  39058500   257.22856     -356.4512      -281.07481     -356.45624      0              3312.9346      45.993842      20.047001      20.857         19230.959      1913.7031      4179.5189      3845.5817      2492.5274     -469.22257      238.38179    
  39059000   252.6419      -358.42107     -284.38871     -358.42604      0              4719.0771      45.804963      20.047001      20.857         19151.985      6264.9458      4681.2675      3211.0179     -449.10827      1538.9602     -653.35578    
  39059500   249.98673     -357.22503     -283.97073     -357.23048      0              4121.0928      45.666777      20.047001      20.857         19094.206      3943.1142      4811.7448      3608.4195      185.27308     -465.49913      184.69166    
  39060000   253.66236     -355.64165     -281.31027     -355.6426       0              4336.265       45.671352      20.047001      20.857         19096.119      7534.6314      2617.6457      2856.5178     -518.15159      334.3485      -729.56441    
  39060500   243.87561     -354.82938     -283.36584     -354.83197      0              5009.96        45.800662      20.047001      20.857         19150.187      5641.3109      4941.9833      4446.5857      1027.9786      674.52553      219.05286    
  39061000   243.73316     -358.47665     -287.05485     -358.47913      0              4334.8613      45.660202      20.047001      20.857         19091.457      2625.4738      3864.1711      6514.9389     -940.72988      972.82896      359.40214    
  39061500   254.46566     -357.80975     -283.24298     -357.8107       0              4676.0214      45.619871      20.047001      20.857         19074.594      4279.2809      3811.5235      5937.2597      837.88196     -1858.2705      2089.9265    
  39062000   256.44509     -358.74127     -283.59446     -358.74704      0              4724.7483      45.764962      20.047001      20.857         19135.26       6372.4936      3385.2886      4416.4628     -1275.8887     -541.74568      84.978247    
  39062500   245.48477     -358.07301     -286.13793     -358.07768      0              4661.2869      46.063269      20.047001      20.857         19259.988      2854.2238      6050.1559      5079.4811      1340.9591      2493.3688     -252.1947     
  39063000   247.05436     -359.16739     -286.77238     -359.1688       0              3361.0068      45.879615      20.047001      20.857         19183.198      4824.0697      2965.4031      2293.5478      814.99467      579.27527      674.15562    
  39063500   245.19638     -358.71311     -286.86254     -358.71841      0              4263.7749      45.768589      20.047001      20.857         19136.776      6094.4563      2902.673       3794.1955      730.18068      214.90564     -1271.0388    
  39064000   253.0392      -358.26639     -284.11761     -358.27226      0              4619.1265      45.967312      20.047001      20.857         19219.866      4729.5302      3975.0775      5152.7719     -306.17601      192.86451     -427.11145    
  39064500   252.09171     -356.53806     -282.66693     -356.5421       0              2323.0095      46.328755      20.047001      20.857         19370.993      3151.9002      2148.0452      1669.0833     -1051.0177      521.82499     -715.29141    
  39065000   254.6059      -354.46172     -279.85386     -354.46677      0              2531.4125      46.233724      20.047001      20.857         19331.258      2439.3101      2149.1321      3005.7952      17.911209      572.04873     -893.86381    
  39065500   255.59408     -355.84134     -280.9439      -355.84721      0              4295.6438      46.099525      20.047001      20.857         19275.147      5400.4326      4012.3202      3474.1785     -431.77066      1566.6468      327.1357     
  39066000   253.12104     -356.18182     -282.00907     -356.18641      0              4466.0321      46.188862      20.047001      20.857         19312.501      3722.9065      5927.7744      3747.4153      1971.6956      1138.6909     -505.79321    
  39066500   250.28627     -356.24869     -282.90661     -356.25397      0              2465.6394      46.002717      20.047001      20.857         19234.67       2191.8954      2996.8694      2208.1534      682.3762      -920.27947      398.01045    
  39067000   249.246       -355.15782     -282.12058     -355.16263      0              4111.1548      45.959844      20.047001      20.857         19216.744      5635.6693      4761.0196      1936.7756      119.98326     -696.21623      1326.6234    
  39067500   251.89901     -356.48002     -282.66536     -356.48396      0              3309.5         46.368811      20.047001      20.857         19387.741      3856.7833      5108.0461      963.67046     -691.44559     -843.05362     -112.91149    
  39068000   249.44919     -356.53912     -283.44234     -356.54059      0              1688.2456      46.296119      20.047001      20.857         19357.347      1475.4405      1435.7421      2153.5542      251.75534     -1199.655      -54.048206    
  39068500   249.43711     -356.61953     -283.52629     -356.62332      0              4513.5829      46.035265      20.047001      20.857         19248.279      5430.3192      5719.3701      2391.0594     -1004.9895      1559.9735      126.56011    
  39069000   243.79181     -355.42493     -283.98594     -355.43055      0              4160.5986      45.999411      20.047001      20.857         19233.288      3054.4888      6478.8477      2948.4593      952.59284      702.27451     -840.97268    
  39069500   245.33195     -356.63468     -284.74439     -356.63934      0              3175.87        45.923627      20.047001      20.857         19201.601      3523.6713      195.64101      5808.2978     -1510.1048      1512.07        972.74522    
  39070000   252.38633     -356.56836     -282.6109      -356.56939      0              6842.1187      46.054082      20.047001      20.857         19256.146      9092.7243      4561.8825      6871.7493      94.093764     -894.63759     -22.957478    
  39070500   246.85176     -357.18101     -284.84536     -357.18246      0              4295.5685      46.228138      20.047001      20.857         19328.923      4982.7137      2953.5168      4950.4749      456.75591      813.66442     -1209.2995    
  39071000   241.46611     -357.03519     -286.27771     -357.04069      0              3354.6088      45.952321      20.047001      20.857         19213.598      4229.6695      2516.436       3317.721       527.48116      1258.3815     -179.836      
  39071500   256.05101     -358.12198     -283.09065     -358.12492      0              5559.2898      45.689811      20.047001      20.857         19103.838      8267.074       3061.4157      5349.3799      105.42453      758.79322      835.66611    
  39072000   253.94879     -355.46577     -281.05046     -355.47063      0              4524.6069      45.975111      20.047001      20.857         19223.127      3895.7054      3003.9523      6674.163       84.022873     -1337.7063      465.99006    
  39072500   255.66413     -353.52553     -278.60757     -353.53102      0              4195.8955      46.070207      20.047001      20.857         19262.889      5314.7864      2678.1523      4594.7479      519.45385      459.31143     -1237.0591    
  39073000   248.47999     -353.34336     -280.53058     -353.34867      0              3992.8374      46.009711      20.047001      20.857         19237.594      5721.7769      1956.6817      4300.0536     -293.40547      1098.4108     -461.70807    
  39073500   257.77815     -356.04002     -280.50258     -356.04086      0              2633.85        45.841537      20.047001      20.857         19167.277      2532.4942      4804.1459      564.90972     -71.18833       255.14049      626.88653    
  39074000   258.13075     -355.25802     -279.61726     -355.26355      0              7377.2985      45.962128      20.047001      20.857         19217.699      6935.9558      7374.6718      7821.268      -127.45538      71.377588      28.698577    
  39074500   254.35345     -355.71505     -281.18116     -355.72002      0              3147.3856      46.171515      20.047001      20.857         19305.248      3291.0072      2446.2964      3704.8534     -74.823382     -150.94603     -420.36621    
  39075000   255.08889     -356.79299     -282.04359     -356.7989       0              5713.567       45.829403      20.047001      20.857         19162.204      6877.2503      6838.7086      3424.7421     -847.82581     -1180.3845     -169.94595    
  39075500   254.06633     -356.40091     -281.95116     -356.40195      0              5887.8557      45.542392      20.047001      20.857         19042.199      4502.4822      6474.4401      6686.6449     -606.05138     -1720.5033      1497.7436    
  39076000   249.6996      -355.49514     -282.32497     -355.50067      0              4773.3387      45.758426      20.047001      20.857         19132.527      3627.8034      6964.0245      3728.1881      287.22156     -1271.684      -927.9236     
  39076500   256.489       -357.77133     -282.61166     -357.77696      0              4066.9812      45.944227      20.047001      20.857         19210.214      2920.7521      4740.1819      4540.0096      633.65487     -1185.2706     -474.20715    
  39077000   247.3432      -354.92437     -282.44472     -354.92614      0              3509.8702      45.974483      20.047001      20.857         19222.865      5497.9876      3173.6173      1858.0057      109.33401      1424.2132      907.18312    
  39077500   244.23591     -357.76789     -286.19877     -357.76916      0              7863.2923      45.701359      20.047001      20.857         19108.666      7538.9552      7945.3434      8105.5784      687.4733       360.66129     -411.90573    
  39078000   258.05315     -358.08541     -282.46738     -358.08554      0              5213.0111      45.694204      20.047001      20.857         19105.674      7659.6379      3891.6295      4087.7658      393.42067      322.85191      2515.1166    
  39078500   251.04205     -357.45443     -283.89089     -357.46029      0              3683.8609      45.858021      20.047001      20.857         19174.169      360.77883      5609.2683      5081.5356      1576.7987     -169.74523     -497.83625    
  39079000   254.00048     -357.16401     -282.73355     -357.16485      0              5075.9083      45.71602       20.047001      20.857         19114.796      5960.1297      4517.7689      4749.8262     -185.2048       856.72375      504.77049    
  39079500   248.87048     -357.39172     -284.46452     -357.39243      0              2619.2481      45.915544      20.047001      20.857         19198.221      3348.1512      2712.784       1796.809      -1089.9423     -278.39803      1123.6471    
  39080000   251.55902     -358.29348     -284.57845     -358.29227      0              4244.0579      46.072203      20.047001      20.857         19263.723      3709.4404      5549.9383      3472.7951     -1306.6642     -176.04058     -24.287435    
  39080500   255.07307     -358.19552     -283.45075     -358.19865      0              3165.0825      46.090258      20.047001      20.857         19271.273      3720.1052      1840.4939      3934.6485      681.84725      1344.1315      1476.6612    
  39081000   249.12043     -355.85499     -282.85454     -355.85952      0              5924.6689      45.883456      20.047001      20.857         19184.804      6724.0619      6559.5294      4490.4153     -8.8431946      1862.2012      494.91825    
  39081500   249.42693     -358.31529     -285.22503     -358.3194       0              3929.071       45.865319      20.047001      20.857         19177.221      2854.0859      6098.9741      2834.153       447.80168     -348.2112       587.23804    
  39082000   245.83254     -360.34306     -288.30607     -360.34547      0              6670.294       46.271255      20.047001      20.857         19346.951      4563.6295      10085.686      5361.5663     -363.46601     -1265.9479     -314.87256    
  39082500   250.10928     -358.97635     -285.68614     -358.9811       0              5580.6374      46.212166      20.047001      20.857         19322.245      6318.8907      5305.8128      5117.2086     -1291.7265      974.61163     -468.52863    
  39083000   247.05596     -356.02243     -283.62694     -356.02339      0              3895.3562      45.790858      20.047001      20.857         19146.087      5517.3441      3756.9128      2411.8118     -806.02144     -693.01732     -730.33408    
  39083500   250.37723     -358.60848     -285.23975     -358.61058      0              5496.185       45.872996      20.047001      20.857         19180.431      4874.399       6903.6273      4710.5287      867.13115     -1556.3997     -334.07078    
  39084000   255.86913     -359.77119     -284.79315     -359.77119      0              3290.9413      46.029634      20.047001      20.857         19245.924      2622.4053      3703.6443      3546.7742     -801.4957       488.16438     -367.85259    
  39084500   254.45381     -358.42046     -283.85716     -358.42187      0              3841.848       46.037332      20.047001      20.857         19249.143      5133.0494      3036.8579      3355.6367      614.82365     -698.31084     -1118.1651    
  39085000   252.88004     -357.57277     -283.47064     -357.57672      0              6502.5331      45.836406      20.047001      20.857         19165.132      8948.4022      5348.6988      5210.4981      816.96659     -330.82503     -1016.4851    
  39085500   257.01471     -355.88886     -280.57513     -355.8898       0              6140.9538      45.952353      20.047001      20.857         19213.612      7283.9962      6258.8952      4879.9699      806.98417     -13.332146      292.59673    
  39086000   254.92541     -356.60309     -281.9016      -356.60717      0              3540.6979      46.374314      20.047001      20.857         19390.042      4131.3104      3286.2295      3204.5537      933.44305      303.38377     -1188.6935    
  39086500   252.20648     -359.39599     -285.49123     -359.39754      0              4978.2674      46.19047       20.047001      20.857         19313.173      5611.1946      5598.7473      3724.8602     -839.83         1339.4108      1099.823     
  39087000   249.07657     -359.55483     -286.56724     -359.55581      0              4186.9764      45.642609      20.047001      20.857         19084.101      7321.0976      1414.3486      3825.4831     -823.39684     -453.34515     -518.57036    
  39087500   244.12027     -359.69367     -288.15844     -359.69303      0              4859.4933      45.512649      20.047001      20.857         19029.762      6044.097       4598.9673      3935.4155     -502.9973       1033.7543      189.03277    
  39088000   248.79553     -358.78513     -285.87989     -358.78653      0              4204.9823      45.947489      20.047001      20.857         19211.578      4050.5519      3663.0248      4901.3702     -529.60537      545.61394     -1171.134     
  39088500   255.94723     -359.63718     -284.63626     -359.64166      0              4151.5768      46.032684      20.047001      20.857         19247.2        5324.6643      4158.734       2971.3322     -1748.2537      1162.9964      1390.5994    
  39089000   250.20302     -357.47489     -284.15721     -357.47696      0              4109.7707      45.74759       20.047001      20.857         19127.996      5716.1766      5603.3069      1009.8286     -837.83466      128.05052      23.258481    
  39089500   246.73161     -358.9522      -286.65176     -358.95806      0              5007.3746      45.920668      20.047001      20.857         19200.364      5905.9507      3732.4228      5383.7503     -243.42195     -1097.2343      379.87465    
  39090000   249.89415     -356.55056     -283.32339     -356.55501      0              3786.0811      45.982417      20.047001      20.857         19226.182      3205.7045      3382.1724      4770.3663     -429.55067      851.05472      468.1314     
  39090500   257.94319     -358.57497     -282.98916     -358.57893      0              6391.4832      45.973095      20.047001      20.857         19222.284      6024.7128      7256.0676      5893.6691     -533.57512     -1054.2716      974.90879    
  39091000   257.36399     -360.25281     -284.83674     -360.25007      0              4127.8801      46.161957      20.047001      20.857         19301.251      4092.4664      4906.1634      3385.0105      86.46446       1259.5855      3381.7075    
  39091500   250.18552     -357.10719     -283.79463     -357.10814      0              2659.2973      46.24808       20.047001      20.857         19337.261      4077.2871      1057.0729      2843.5318      917.35534      1030.5295      1071.1445    
  39092000   246.87339     -355.75824     -283.41625     -355.76399      0              4901.4471      45.913163      20.047001      20.857         19197.225      6563.1214      4642.135       3499.0849      676.79432     -704.47027     -980.28404    
  39092500   249.10556     -359.84558     -286.84949     -359.84964      0              3999.3225      45.982682      20.047001      20.857         19226.293      5333.0236      1731.6946      4933.2492     -213.95127      347.4591      -392.88999    
  39093000   243.44255     -359.87268     -288.53604     -359.8745       0              5412.3222      46.143189      20.047001      20.857         19293.404      4183.5606      8021.9344      4031.4717      868.65888     -153.70525      1540.3032    
  39093500   252.25339     -358.05554     -284.13704     -358.06045      0              5317.4494      46.104008      20.047001      20.857         19277.022      5148.1134      7248.363       3555.8719      1778.5271      1398.3052      208.28997    
  39094000   249.9077      -355.98188     -282.75074     -355.9875       0              4642.8906      45.94957       20.047001      20.857         19212.448      4493.9434      4120.0773      5314.6512     -454.45801     -2321.0778      438.0943     
  39094500   248.90789     -357.02008     -284.08192     -357.02444      0              5264.862       45.731212      20.047001      20.857         19121.148      4741.5709      5920.7157      5132.2992      1071.5451      664.24754      1681.7803    
  39095000   253.91719     -358.67014     -284.26409     -358.67111      0              7272.1452      45.67812       20.047001      20.857         19098.949      6184.1944      9190.6693      6441.5719     -16.971859      625.78714     -1340.285     
  39095500   251.95864     -354.56749     -280.73535     -354.57313      0              4012.0175      45.849821      20.047001      20.857         19170.741      4662.8477      3783.2998      3589.905      -408.34433     -357.52682     -344.82397    
  39096000   250.14359     -358.28572     -284.98545     -358.29088      0              3182.8342      45.930816      20.047001      20.857         19204.607      2705.8606      3069.2992      3773.3427      843.12461      1436.0255      1297.2068    
  39096500   250.32903     -356.6398      -283.2852      -356.64165      0              4836.5664      45.819794      20.047001      20.857         19158.186      7186.3969      5114.9406      2208.3616     -1371.9251     -721.34835     -1476.0764    
  39097000   257.2103      -358.12468     -282.75364     -358.13046      0              4646.8292      45.984103      20.047001      20.857         19226.887      4319.9523      4916.1444      4704.391       1461.5983      1083.1665      793.687      
  39097500   249.01367     -357.04998     -284.08082     -357.04943      0              5184.9664      45.789958      20.047001      20.857         19145.711      5262.8976      4544.8881      5747.1133     -1167.1289     -197.25217     -97.098873    
  39098000   246.2507      -358.27512     -286.1156      -358.2794       0              6023.7686      45.684105      20.047001      20.857         19101.452      6239.1507      5174.8897      6657.2655      1492.1971     -697.7066       470.28348    
  39098500   248.48099     -356.64973     -283.83666     -356.65456      0              3864.9314      45.762262      20.047001      20.857         19134.131      6037.0975      3886.5692      1671.1276      215.00786      2157.9999      787.40183    
  39099000   246.34465     -357.91215     -285.7251      -357.91508      0              3713.5328      45.767811      20.047001      20.857         19136.451      3844.8459      3067.9944      4227.7582      1239.8912      588.31201     -412.23091    
  39099500   248.10381     -356.8769      -284.17436     -356.88136      0              5855.0878      45.922262      20.047001      20.857         19201.03       5691.8212      4557.7053      7315.737      -503.84388      1817.014       777.96031    
  39100000   249.38313     -358.45668     -285.37925     -358.455        0              4800.4196      45.861844      20.047001      20.857         19175.768      3941.0602      8075.0431      2385.1553      385.20382      1133.5411      967.30315    
  39100500   249.98265     -359.61587     -286.36276     -359.62095      0              1849.0509      45.870657      20.047001      20.857         19179.453      2193.2493      837.0778       2516.8256     -806.63032      63.863621     -691.9778     
  39101000   242.41645     -356.06476     -285.02881     -356.07067      0              3770.0913      45.65309       20.047001      20.857         19088.483      4383.3954      3263.2451      3663.6333     -624.61597      1203.6578      1089.3505    
  39101500   249.91689     -357.03233     -283.79849     -357.03816      0              6110.3825      45.652566      20.047001      20.857         19088.264      5690.3263      7483.7157      5157.1054     -511.93836     -399.3879       425.02239    
  39102000   247.7161      -356.6483      -284.05938     -356.65313      0              4999.8119      46.19079       20.047001      20.857         19313.307      4139.9954      5795.3581      5064.0823     -439.6157      -1758.9071     -487.54026    
  39102500   246.56661     -356.87443     -284.62234     -356.87993      0              3973.0531      46.119169      20.047001      20.857         19283.361      4201.5225      5182.4255      2535.2113      700.82034     -863.77152     -7.6353825    
  39103000   248.2279      -358.09523     -285.35632     -358.10023      0              5691.0751      45.931648      20.047001      20.857         19204.954      6383.479       5933.4281      4756.3184      1003.4401      570.52335      1340.9898    
  39103500   250.38197     -357.89019     -284.52007     -357.89596      0              5711.4797      45.91561       20.047001      20.857         19198.249      5551.6406      6925.9328      4656.8658      1342.6225      602.45318     -1290.9881    
  39104000   254.81507     -358.26734     -283.59818     -358.27295      0              5593.7708      45.971134      20.047001      20.857         19221.464      6230.852       6277.8202      4272.6402      1077.7969      91.519699      1613.5429    
  39104500   246.30682     -359.25166     -287.07569     -359.25674      0              4238.4068      46.069843      20.047001      20.857         19262.737      4515.4762      3826.6203      4373.124      -262.15784     -1165.2368     -965.38279    
  39105000   252.27868     -357.85571     -283.92979     -357.85894      0              3813.6787      45.88455       20.047001      20.857         19185.262      6551.5865      2027.6159      2861.8336      847.98197      1413.0424      613.72659    
  39105500   253.10826     -357.80391     -283.6349      -357.80401      0              6648.3048      45.878146      20.047001      20.857         19182.584      7159.4093      8707.8963      4077.6087      813.90877      219.33294      872.34884    
  39106000   249.68362     -358.69861     -285.53313     -358.7023       0              5343.2092      45.884928      20.047001      20.857         19185.42       6296.1135      5567.9934      4165.5207     -1908.6148      48.721605     -39.336031    
  39106500   244.98535     -356.11372     -284.32499     -356.11716      0              4836.2341      45.828378      20.047001      20.857         19161.775      4417.326       6268.3463      3823.03        466.81609      505.74307      210.81727    
  39107000   252.11854     -355.1728      -281.29381     -355.17827      0              4442.8212      45.784443      20.047001      20.857         19143.405      4664.7462      7210.9263      1452.7911     -1330.2798     -704.49759      1533.4585    
  39107500   254.77659     -357.14679     -282.48891     -357.15264      0              4159.5116      45.879824      20.047001      20.857         19183.286      3728.6093      4922.2996      3827.6258      221.80932     -118.40187      1055.0123    
  39108000   254.19993     -357.11245     -282.62354     -357.1173       0              3746.7806      45.962874      20.047001      20.857         19218.011      3135.8365      4742.4022      3362.1032      1924.9029     -1166.4217     -310.15916    
  39108500   255.23933     -357.15546     -282.36197     -357.16063      0              5638.8655      46.062639      20.047001      20.857         19259.724      4974.8902      6965.2487      4976.4576     -1669.2311      1190.7439      2020.7646    
  39109000   262.20997     -359.16081     -282.3247      -359.16569      0              4051.9024      46.04236       20.047001      20.857         19251.245      5852.8486      4429.4555      1873.403       990.96509     -517.53104      615.30265    
  39109500   251.75715     -354.44695     -280.67386     -354.45694      0              3537.273       45.836092      20.047001      20.857         19165          4762.1113      3520.9477      2328.7601     -1897.0717     -446.41885      622.10116    
  39110000   256.10821     -356.21881     -281.17072     -356.22398      0              5357.8723      46.063296      20.047001      20.857         19259.999      6228.6683      5757.8716      4087.0771      796.09451     -231.80344      20.10519     
  39110500   257.15696     -356.21656     -280.86115     -356.22147      0              4267.9203      46.307111      20.047001      20.857         19361.943      5321.3537      5609.2259      1873.1812     -585.47396     -645.87646     -562.89682    
  39111000   259.99677     -355.25585     -279.06828     -355.26078      0              5869.6616      46.006266      20.047001      20.857         19236.154      7577.5153      4502.8396      5528.6298     -905.69317      1081.8237     -676.05472    
  39111500   255.43334     -357.59927     -282.74894     -357.60285      0              4132.1166      45.747782      20.047001      20.857         19128.076      4930.2156      2387.287       5078.8473      1015.0283      709.38282     -184.8261     
  39112000   245.11641     -357.89042     -286.06329     -357.89569      0              2865.2504      45.876164      20.047001      20.857         19181.755      5891.6157      2162.7121      541.42336     -309.75557      343.89329     -1426.4821    
  39112500   257.07392     -359.1771      -283.84603     -359.22557      0              2424.3804      46.08417       20.047001      20.857         19268.727      1649.1062      1990.5258      3633.5092     -172.02953     -36.467078     -733.58588    
  39113000   242.64735     -359.1883      -288.08468     -359.19332      0              3311.1661      46.01473       20.047001      20.857         19239.693      3213.8293      4580.2097      2139.4592     -213.53391      1613.4573     -293.80396    
  39113500   251.30359     -358.77552     -285.13534     -358.78036      0              5388.7834      45.834402      20.047001      20.857         19164.294      4385.4069      6730.1727      5050.7706      751.79582     -331.63014      1069.136     
  39114000   247.02821     -359.03927     -286.65191     -359.03997      0              6583.553       45.70819       20.047001      20.857         19111.522      6970.0982      7511.0805      5269.4802      532.07353      380.11658      1933.3614    
  39114500   247.99308     -359.29505     -286.62496     -359.30773      0              1743.2118      45.81034       20.047001      20.857         19154.233      2735.0272      1994.1853      500.42293      214.42114     -614.4835      -490.2012     
  39115000   247.57344     -358.74164     -286.19451     -358.74461      0              5118.4248      45.839698      20.047001      20.857         19166.508      6545.6134      5861.6443      2948.0167     -854.62332      721.16902     -557.92702    
  39115500   241.76854     -358.02671     -287.18061     -358.02876      0              4035.1246      46.013029      20.047001      20.857         19238.981      3557.0293      4557.6119      3990.7326     -127.33182     -298.04245     -1365.5808    
  39116000   245.78639     -359.21754     -287.19408     -359.2215       0              2890.703       45.933861      20.047001      20.857         19205.88       3327.2947      2465.9219      2878.8926     -994.29867     -1943.2253      1675.0536    
  39116500   252.06757     -357.54086     -283.67681     -357.5457       0              4644.5808      46.033118      20.047001      20.857         19247.381      5598.9765      4008.9837      4325.7821      857.76186     -1088.6391      503.23429    
  39117000   247.59204     -356.09163     -283.53906     -356.09653      0              3836.1359      46.16844       20.047001      20.857         19303.962      5568.7445      2284.4         3655.2632      149.50358     -2298.5736      6.5610546    
  39117500   246.82689     -359.63234     -287.30398     -359.63615      0              4698.4736      45.965898      20.047001      20.857         19219.275      3063.1555      7162.673       3869.5923     -309.98301     -1407.7335      1160.4937    
  39118000   256.79926     -360.118       -284.86741     -360.12274      0              5771.9869      45.945469      20.047001      20.857         19210.733      6891.183       6029.4506      4395.3271     -998.89938     -456.57538      836.02881    
  39118500   258.55418     -356.94125     -281.17641     -356.94687      0              5375.6734      46.11395       20.047001      20.857         19281.179      5324.5183      5072.6978      5729.804       371.84785     -218.94144      1119.8955    
  39119000   258.87502     -357.35334     -281.49448     -357.3589       0              3639.8021      46.328797      20.047001      20.857         19371.011      4721.2872      4512.7989      1685.3204     -268.66138      1024.419      -806.39351    
  39119500   247.33028     -358.93518     -286.45931     -358.94041      0              2897.7557      46.140906      20.047001      20.857         19292.449      5619.5655      1029.6984      2044.0032      250.45328     -891.73891      1042.7702    
  39120000   245.94904     -358.614       -286.54288     -358.61724      0              7933.0416      45.894337      20.047001      20.857         19189.354      8657.0625      8390.5163      6751.5462      680.81574     -555.18087     -739.14653    
  39120500   252.26184     -359.06243     -285.14145     -359.06827      0              4774.2037      45.990102      20.047001      20.857         19229.395      8411.5005      3026.8153      2884.2953      858.39461      556.43738     -1420.5676    
  39121000   253.22149     -358.69996     -284.49778     -358.70489      0              6078.2709      46.131824      20.047001      20.857         19288.652      6170.1057      6424.8744      5639.8327     -1185.6521      2507.0924     -963.818      
  39121500   250.41787     -358.18252     -284.80189     -358.18672      0              4450.6528      45.972835      20.047001      20.857         19222.176      3766.6979      3957.3413      5627.9191     -356.79317      428.65691      1160.7192    
  39122000   246.78554     -357.57423     -285.25799     -357.5795       0              4731.1891      45.781645      20.047001      20.857         19142.235      4200.3472      5251.5622      4741.6578      766.5081       789.52841      840.89314    
  39122500   248.07291     -356.33316     -283.63967     -356.3391       0              4583.2693      45.920948      20.047001      20.857         19200.481      5499.9314      5702.8713      2547.0053     -637.71419      1129.8501     -1856.7002    
  39123000   246.8866      -356.19746     -283.85161     -356.2023       0              6776.427       45.78064       20.047001      20.857         19141.815      6118.8345      7289.2205      6921.226       457.81717     -255.58625      1545.1184    
  39123500   248.29788     -357.08487     -284.32546     -357.0899       0              5944.5955      45.640407      20.047001      20.857         19083.181      6683.7545      5164.4891      5985.5429      601.81507      180.19413     -859.3488     
  39124000   253.62303     -356.21586     -281.896       -356.2168       0              6826.1979      45.90598       20.047001      20.857         19194.222      4388.3343      8664.3508      7425.9086      1737.2566      795.70676      1015.545     
  39124500   253.84338     -358.82313     -284.43871     -358.82798      0              3752.4068      46.023666      20.047001      20.857         19243.429      3991.3501      4758.4012      2507.4691     -1412.5362      540.98397      1924.1974    
  39125000   244.01401     -357.15385     -285.64976     -357.15782      0              7124.5596      45.85587       20.047001      20.857         19173.27       8980.8416      5557.1562      6835.681       88.511676     -1478.1826      837.29762    
  39125500   248.37082     -357.57685     -284.79606     -357.57782      0              4227.0954      45.748023      20.047001      20.857         19128.177      7199.1156      2546.7211      2935.4496      175.12804     -403.88277      2103.2765    
  39126000   253.96851     -359.59591     -285.17482     -359.60082      0              4675.4523      45.836026      20.047001      20.857         19164.973      7081.0886      4369.9247      2575.3437      2400.703      -606.86849      399.99311    
  39126500   243.75939     -359.88225     -288.45277     -359.88742      0              4474.8592      46.049847      20.047001      20.857         19254.376      3787.7799      5624.4894      4012.3083      756.69318      1071.1554     -1092.9216    
  39127000   257.37276     -359.47704     -284.05839     -359.48198      0              5936.4541      45.785823      20.047001      20.857         19143.982      5820.7563      6209.2995      5779.3066      111.72069     -718.69546     -1574.1837    
  39127500   247.92177     -358.27914     -285.62994     -358.28482      0              4892.731       45.772343      20.047001      20.857         19138.346      8312.3044      2400.6344      3965.2541      552.29583     -1025.3832      1919.6254    
  39128000   242.6014      -358.50817     -287.41801     -358.51253      0              3113.1069      46.20191       20.047001      20.857         19317.956      1383.9383      5169.833       2785.5494      190.30801      452.88319     -930.38621    
  39128500   249.18541     -357.82469     -284.80521     -357.83052      0              5500.8977      45.878115      20.047001      20.857         19182.571      5019.1464      4785.0029      6698.5437     -790.42041     -1351.5884     -166.74989    
  39129000   241.15854     -357.48761     -286.82026     -357.49261      0              4839.8536      45.608397      20.047001      20.857         19069.797      5704.9687      4392.6665      4421.9255      344.94462      958.32992     -828.85609    
  39129500   247.66575     -358.1211      -285.54692     -358.12361      0              5595.7403      45.6989        20.047001      20.857         19107.638      8246.0922      4093.2606      4447.8681      828.09049      118.84916     -249.01778    
  39130000   247.89438     -355.7227      -283.08153     -355.72556      0              5850.889       45.932453      20.047001      20.857         19205.291      5998.5935      7750.7196      3803.3538      158.74825     -480.22672     -804.52433    
  39130500   250.10763     -356.05039     -282.76067     -356.05505      0              3419.4996      46.182098      20.047001      20.857         19309.673      6610.9808      1662.2603      1985.2576     -941.5527      -673.97975      27.97366     
  39131000   247.86615     -355.2714      -282.6385      -355.28437      0              4627.5564      45.949613      20.047001      20.857         19212.466      6864.1263      4366.3825      2652.1603      1356.9241     -381.93963     -628.2004     
  39131500   251.08543     -359.30122     -285.72497     -359.30342      0              4970.2911      45.741456      20.047001      20.857         19125.431      5467.9414      3655.4203      5787.5116      600.74536     -134.75318     -2008.7625    
  39132000   249.7412      -356.94751     -283.76516     -356.95236      0              4449.2808      45.881189      20.047001      20.857         19183.856      3448.5701      5126.2543      4773.0181      520.22161      1703.2574     -3674.0149    
  39132500   250.79805     -355.47911     -281.98707     -355.48689      0              4889.086       45.776521      20.047001      20.857         19140.093      5014.5223      4003.3628      5649.373      -1077.3729     -231.35914      550.35681    
  39133000   242.89426     -356.26486     -285.08889     -356.27075      0              5236.594       45.69928       20.047001      20.857         19107.797      4677.1432      6280.1832      4752.4557      194.8215      -317.65495     -1047.2997    
  39133500   251.54098     -356.10531     -282.39556     -356.11112      0              3706.014       45.720675      20.047001      20.857         19116.742      5868.3083      1454.7132      3795.0203      943.17212     -495.38389     -498.47742    
  39134000   260.79752     -355.00295     -278.58073     -355.00791      0              5652.1351      45.658586      20.047001      20.857         19090.782      6152.0551      6997.1252      3807.225       819.19786     -2370.7563     -627.03818    
  39134500   254.90021     -356.36674     -281.67263     -356.37189      0              3360.6843      45.798141      20.047001      20.857         19149.132      6861.0297      1400.0766      1820.9465     -1421.8467     -1596.0325     -1091.0823    
  39135000   254.06811     -357.51489     -283.06462     -357.51999      0              2915.4817      45.797062      20.047001      20.857         19148.681      1822.1454      4367.6569      2556.6428      424.17926      834.51711     -611.27129    
[...]
  39964500   258.33479     -357.39803     -281.69748     -357.40329      0              3542.3665      45.928798      20.047001      20.857         19203.763      1659.7339      4114.4755      4852.8899     -1377.2611      1246.08        760.22555    
  39965000   249.70267     -355.00047     -281.82941     -355.0069       0              4729.8326      45.997984      20.047001      20.857         19232.691      4761.4105      5530.8784      3897.209      -559.58866     -1008.0272     -612.76485    
  39965500   247.49049     -358.35122     -285.82841     -358.35713      0              2990.5077      46.111778      20.047001      20.857         19280.271      3372.3662      2768.5351      2830.6217      1370.0384     -555.04956     -1064.24      
  39966000   253.74473     -356.64203     -282.28651     -356.64738      0              6414.5844      45.997937      20.047001      20.857         19232.671      6240.8054      5302.2535      7700.6943      509.90741      206.28953     -1107.4631    
  39966500   251.16408     -356.17346     -282.57416     -356.17876      0              4819.8763      46.061337      20.047001      20.857         19259.18       4395.3987      5936.4833      4127.7468     -347.86583      61.294289      775.33439    
  39967000   243.3781      -359.02854     -287.71079     -359.03409      0              4048.2596      45.939924      20.047001      20.857         19208.415      5410.3351      4252.8152      2481.6284      1490.8674     -814.88287      196.92459    
  39967500   252.26276     -358.26565     -284.3444      -358.27186      0              6837.7461      45.673253      20.047001      20.857         19096.914      5571.5688      10586.257      4355.4124      715.70175      1697.1092     -1340.4585    
  39968000   249.71787     -357.15962     -283.9841      -357.16304      0              3775.1876      45.972826      20.047001      20.857         19222.172      3337.273       3180.7399      4807.5497      411.11559      386.24165     -2362.9738    
  39968500   248.4319      -358.78924     -285.99056     -358.7953       0              3801.2367      46.179907      20.047001      20.857         19308.757      2972.4391      5104.7329      3326.5382      1198.9942     -727.00751      1718.7725    
  39969000   249.28056     -356.64111     -283.59374     -356.64551      0              5863.7235      45.926709      20.047001      20.857         19202.889      6907.839       5062.212       5621.1194     -398.06386      690.1861      -716.78518    
  39969500   253.06296     -355.89009     -281.73436     -355.89542      0              3713.0455      45.695339      20.047001      20.857         19106.149      5420.5217      3299.8421      2418.7728      1025.1458      2208.4153     -238.49581    
  39970000   252.00324     -354.52351     -280.67831     -354.52788      0              4640.3703      45.900706      20.047001      20.857         19192.017      6149.2594      3727.3221      4044.5295     -1309.6195      1801.9631     -2.2342094    
  39970500   246.0137      -358.04559     -285.95552     -358.05066      0              4907.2647      46.10409       20.047001      20.857         19277.056      5989.6722      4550.5582      4181.5636      1322.1862      1026.5231     -1245.2235    
  39971000   256.23724     -357.90497     -282.81907     -357.90874      0              3572.4968      45.970435      20.047001      20.857         19221.172      2825.2023      4623.1191      3269.1692     -438.77138      1635.772       336.96892    
  39971500   251.54776     -357.77603     -284.0643      -357.78233      0              7375.1074      45.646231      20.047001      20.857         19085.616      7197.1302      8766.2814      6161.9107     -378.75276     -360.90124      868.59968    
  39972000   249.61509     -358.21497     -285.06957     -358.22118      0              4437.5773      46.153784      20.047001      20.857         19297.834      6439.7829      4029.1325      2843.8166     -1875.8818      1457.9801      1693.8913    
  39972500   253.3898      -357.56977     -283.31826     -357.57388      0              3808.6589      46.301245      20.047001      20.857         19359.491      5047.9185      2878.1087      3499.9494      636.93671     -816.76935     -1035.6668    
  39973000   243.03799     -356.58804     -285.36995     -356.58992      0              5175.5491      45.881241      20.047001      20.857         19183.878      7922.8387      4407.1459      3196.6628     -741.52202      142.36034     -593.86318    
  39973500   248.03106     -356.14215     -283.46093     -356.14335      0              4248.8013      45.582201      20.047001      20.857         19058.844      3503.8222      6151.3608      3091.221      -8.5719217     -1153.5126      371.30608    
  39974000   248.45398     -355.61242     -282.80727     -355.61335      0              7083.837       45.896192      20.047001      20.857         19190.13       7480.866       7369.6397      6401.0052      228.92914      392.55569      1190.1257    
  39974500   251.36248     -355.51732     -281.85989     -355.52183      0              3498.0774      46.309128      20.047001      20.857         19362.786      2185.2877      5208.6017      3100.3428     -266.16217      125.30172      954.84237    
  39975000   252.96294     -356.88093     -282.75451     -356.88562      0              4594.3085      46.015111      20.047001      20.857         19239.852      7594.3985      2220.9457      3967.5812      159.9489      -876.05731     -579.19562    
  39975500   250.12512     -355.43134     -282.13649     -355.43528      0              5644.1063      45.711754      20.047001      20.857         19113.012      3653.397       8393.1364      4885.7855      308.6924      -1678.1938      2021.9187    
  39976000   247.51721     -359.83755     -287.3069      -359.84234      0              6378.6993      45.748602      20.047001      20.857         19128.419      5376.4413      7402.2799      6357.3767      724.99849      1275.7435     -1322.6435    
  39976500   239.03201     -359.14016     -289.09595     -359.1461       0              3970.6944      46.010647      20.047001      20.857         19237.985      2924.1964      4724.5608      4263.3261      492.89962      291.18712     -101.15489    
  39977000   248.55269     -357.97889     -285.14481     -357.98385      0              2867.8895      46.031218      20.047001      20.857         19246.587      3041.3195      3727.7548      1834.5942     -837.66717      1403.0635     -1116.3065    
  39977500   244.90938     -359.63993     -287.87346     -359.63937      0              3733.3718      45.882898      20.047001      20.857         19184.571      6514.2652      1540.3734      3145.4769      436.0147      -7.9993854      305.68459    
  39978000   243.03277     -358.33857     -287.12201     -358.34505      0              6142.6803      45.95552       20.047001      20.857         19214.936      7097.0389      6806.4543      4524.5478      100.43141      610.31979      1991.4538    
  39978500   256.32376     -358.12226     -283.011       -358.12761      0              5446.3397      45.932625      20.047001      20.857         19205.363      6612.9212      5122.4041      4603.6938     -965.38474     -229.05338     -184.40462    
  39979000   251.12632     -355.18504     -281.59681     -355.19128      0              4779.387       45.954324      20.047001      20.857         19214.436      4748.2829      4917.3922      4672.4859     -1145.3938     -208.94072      1395.8834    
  39979500   254.51637     -355.63485     -281.05322     -355.64054      0              5146.0682      46.129845      20.047001      20.857         19287.824      6184.3768      5316.688       3937.1396     -1082.2518     -1986.59       -592.07291    
  39980000   249.43443     -355.5081      -282.41564     -355.51461      0              3581.9296      46.021769      20.047001      20.857         19242.636      2393.0248      5239.5893      3113.1747      1516.7179      1312.7763      1207.9193    
  39980500   251.65525     -357.56957     -283.82634     -357.57458      0              4896.4791      46.183803      20.047001      20.857         19310.386      4833.0581      5027.4626      4828.9165     -82.743587     -251.49831     -703.74886    
  39981000   246.352       -356.93945     -284.75025     -356.94056      0              2837.7943      46.040384      20.047001      20.857         19250.419      1077.9319      4487.5798      2947.8711     -76.503302      587.04123     -2177.459     
  39981500   253.40039     -357.32828     -283.07367     -357.3323       0              4457.4498      45.835662      20.047001      20.857         19164.821      5593.876       3712.259       4066.2144     -1148.5977     -1231.1783     -269.47426    
  39982000   251.2554      -357.84524     -284.21918     -357.85052      0              4969.9699      46.092679      20.047001      20.857         19272.285      3118.1907      7210.9115      4580.8076      470.05467      410.64036      240.14562    
  39982500   247.12011     -357.08288     -284.6686      -357.08909      0              4759.6237      46.469938      20.047001      20.857         19430.024      5119.805       4548.8995      4610.1668     -620.9602       19.938937      504.37056    
  39983000   247.44322     -356.28895     -283.77998     -356.29241      0              4283.635       46.346347      20.047001      20.857         19378.349      6226.5684      2854.722       3769.6145     -76.376166      744.52849     -909.17829    
  39983500   249.69188     -358.28179     -285.11389     -358.2861       0              5370.5203      46.079047      20.047001      20.857         19266.585      4427.2837      6958.3847      4725.8925     -9.556616      -21.365515     -542.55652    
  39984000   243.68729     -357.82347     -286.41512     -357.82705      0              6914.5736      46.363753      20.047001      20.857         19385.626      10390.097      4762.0639      5591.5604     -407.96091      230.24211     -555.66085    
  39984500   250.47585     -360.06619     -286.66856     -360.07194      0              3747.8008      46.501321      20.047001      20.857         19443.146      4226.6337      2693.7258      4323.043       222.13228     -70.471596      634.37309    
  39985000   254.392       -354.58265     -280.03747     -354.58795      0              6307.204       46.175966      20.047001      20.857         19307.109      6423.6652      5150.3435      7347.6033      481.37928      1020.2409     -1676.6374    
  39985500   249.01073     -354.33874     -281.37045     -354.34447      0              3086.9729      46.34532       20.047001      20.857         19377.919      1499.9903      5030.3337      2730.5946      178.58859     -471.73669      2135.454     
  39986000   251.79917     -357.81747     -284.03207     -357.82395      0              3254.3764      46.514791      20.047001      20.857         19448.778      2356.4174      1948.2359      5458.476      -912.41186     -158.49392      34.811013    
  39986500   251.73575     -358.86346     -285.09664     -358.8689       0              4595.7744      46.251301      20.047001      20.857         19338.608      5705.7432      4668.1933      3413.3868      134.24764      694.65152      34.96632     
  39987000   248.0201      -359.2452      -286.56719     -359.25069      0              7905.4253      45.654991      20.047001      20.857         19089.278      7096.5324      9177.1992      7442.5444      684.64187      1372.9901      1108.8263    
  39987500   259.78599     -360.44941     -284.32361     -360.45045      0              4220.2492      46.155198      20.047001      20.857         19298.425      5509.146       3230.5863      3921.0153      52.406757     -682.73016      952.41254    
  39988000   251.40595     -357.82318     -284.15301     -357.82872      0              3646.9784      46.536065      20.047001      20.857         19457.674      4257.2976      2788.1009      3895.5368      1167.8999     -306.34129      299.2553     
  39988500   251.42333     -358.42616     -284.75089     -358.42734      0              5697.8042      46.055594      20.047001      20.857         19256.779      4852.1278      6127.5726      6113.7122      1543.551       177.00379      1859.7924    
  39989000   247.97716     -357.50004     -284.83461     -357.50144      0              5524.2257      46.137709      20.047001      20.857         19291.113      4616.5608      5622.791       6333.3253     -590.97714      857.04412     -1046.699     
  39989500   244.3272      -358.70251     -287.10664     -358.70832      0              3389.0557      46.386975      20.047001      20.857         19395.336      3251.7388      2810.1503      4105.2779      413.47645      681.32004      694.32733    
  39990000   250.09173     -359.70642     -286.42135     -359.70738      0              5617.7678      46.204565      20.047001      20.857         19319.067      4896.9789      5828.0072      6128.3173     -806.51297     -433.02927     -384.6584     
  39990500   249.80924     -358.62141     -285.41912     -358.62446      0              4277.2808      46.411984      20.047001      20.857         19405.793      3973.3943      4600.3966      4258.0515     -997.21799     -150.59021     -1335.1626    
  39991000   248.18315     -357.72567     -284.99988     -357.72984      0              4233.0113      46.217165      20.047001      20.857         19324.335      6365.5643      3772.2799      2561.1896      449.20184     -613.45853      1732.9993    
  39991500   242.74164     -359.11023     -287.97897     -359.11635      0              3647.0473      46.099134      20.047001      20.857         19274.984      2699.505       5258.9574      2982.6795     -508.66904      162.16258     -646.1735     
  39992000   248.72782     -360.8284      -287.943       -360.83303      0              5690.8039      46.080339      20.047001      20.857         19267.125      6182.7123      5495.8095      5393.8899      1153.4682      388.28215     -1455.3867    
  39992500   243.88813     -357.82899     -286.36178     -357.83493      0              4932.5359      46.280784      20.047001      20.857         19350.935      5453.301       4132.3608      5211.9458     -1025.2831     -1275.4097      166.28936    
  39993000   245.37941     -359.92144     -288.01723     -359.92712      0              4775.8197      46.090046      20.047001      20.857         19271.184      2993.4028      5121.5479      6212.5084     -1519.8501     -707.30595     -1162.2303    
  39993500   240.81083     -356.11321     -285.54775     -356.11559      0              4384.5377      45.810293      20.047001      20.857         19154.214      7098.7352      3221.5007      2833.3771      949.30465      518.22511     -1590.3987    
  39994000   250.65138     -356.34859     -282.89953     -356.34936      0              4818.2311      46.047247      20.047001      20.857         19253.289      4763.3613      6376.1964      3315.1357     -1862.1001      666.12506      2298.7221    
  39994500   252.30956     -360.6832      -286.74823     -360.68433      0              4901.7517      46.316595      20.047001      20.857         19365.908      3925.124       5109.1906      5670.9404      871.96266     -507.37116      991.57125    
  39995000   253.56966     -357.27634     -282.97213     -357.28058      0              5353.2218      46.031549      20.047001      20.857         19246.725      5725.1581      5759.3333      4575.174       393.78465      1423.1757      53.915322    
  39995500   246.25581     -357.17173     -285.01071     -357.17731      0              6354.7602      45.974865      20.047001      20.857         19223.024      6264.1636      5326.4529      7473.664       671.87392     -1071.8433      864.52898    
  39996000   252.97904     -357.91631     -283.78517     -357.92131      0              5116.3633      46.214946      20.047001      20.857         19323.407      5166.0114      5774.396       4408.6824     -786.58307      744.29317      751.75182    
  39996500   251.92389     -356.89187     -283.06992     -356.89734      0              4383.1988      46.307273      20.047001      20.857         19362.011      5376.8131      2648.5336      5124.2497      97.730348      355.95921      1056.6598    
  39997000   250.38755     -356.65244     -283.28068     -356.65728      0              4780.3002      46.209185      20.047001      20.857         19320.998      6699.3907      4890.8247      2750.6852     -29.514        -1413.5008     -1408.9287    
  39997500   252.74763     -359.57989     -285.51656     -359.58223      0              3742.7926      46.285831      20.047001      20.857         19353.045      3610.7095      3338.6036      4279.0646     -1842.4526      59.18122       1721.6932    
  39998000   244.60066     -357.11447     -285.43846     -357.11287      0              4318.6804      46.25671       20.047001      20.857         19340.869      5275.7147      5344.2322      2336.0944      941.2242      -429.19018     -52.053771    
  39998500   249.64161     -357.09971     -283.94655     -357.13508      0              1584.9466      46.211772      20.047001      20.857         19322.08       523.10463      2067.6466      2164.0886      103.18557      40.729255      774.13036    
  39999000   249.23681     -357.08035     -284.0458      -357.08471      0              4568.693       46.251744      20.047001      20.857         19338.793      3886.5366      4981.8117      4837.7308      144.07051     -267.01232      60.034919    
  39999500   253.78462     -358.86309     -284.49589     -358.86808      0              4460.4237      46.294706      20.047001      20.857         19356.756      6583.9737      2557.915       4239.3825      1660.535      -257.76205     -1037.3991    
  40000000   246.79026     -357.34433     -285.0267      -357.35072      0              4588.4411      46.246059      20.047001      20.857         19336.416      4558.372       4313.6335      4893.3178     -315.88745      707.93753      1760.1159    
Loop time of 23348.6 on 4 procs for 1010500 steps with 2268 atoms

Performance: 1.870 ns/day, 12.837 hours/ns, 43.279 timesteps/s
944.9% CPU use with 4 MPI tasks x no OpenMP threads

MPI task timing breakdown:
Section |  min time  |  avg time  |  max time  |%varavg| %total
---------------------------------------------------------------
Pair    | 12753      | 12806      | 12854      |  36.9 | 54.85
Bond    | 0.11173    | 0.12303    | 0.13267    |   2.4 |  0.00
Neigh   | 329.06     | 334.84     | 340.87     |  22.9 |  1.43
Comm    | 1301.7     | 1338.5     | 1376.9     |  90.9 |  5.73
Output  | 967.13     | 967.13     | 967.14     |   0.0 |  4.14
Modify  | 7882.3     | 7899.5     | 7925.8     |  18.8 | 33.83
Other   |            | 2.938      |            |       |  0.01

Nlocal:            567 ave         578 max         557 min
Histogram: 1 0 1 0 0 0 1 0 0 1
Nghost:           3729 ave        3756 max        3675 min
Histogram: 1 0 0 0 0 0 0 1 1 1
Neighs:              0 ave           0 max           0 min
Histogram: 4 0 0 0 0 0 0 0 0 0
FullNghs:       142654 ave      145284 max      140727 min
Histogram: 1 1 0 0 0 1 0 0 0 1

Total # of neighbors = 570616
Ave neighs/atom = 251.59436
Ave special neighs/atom = 0
Neighbor list builds = 101050
Dangerous builds not checked

unfix		4
unfix		3
unfix		1

write_data	data.final.${pid}
write_data	data.final.0
System init for write_data ...
Generated 0 of 1 mixed pair_coeff terms from geometric mixing rule
write_restart	restart.lmp.${pid}
write_restart	restart.lmp.0
System init for write_restart ...
Generated 0 of 1 mixed pair_coeff terms from geometric mixing rule
Total wall time: 6:29:27
