LAMMPS (23 Jun 2022)
echo both

include		in.partitions
variable        pid world 0
include		in.temp
variable	temperature equal 250.0
variable        tempDamp equal 0.100 # this is 0.1 ps
include		in.pressure
variable        pressure equal 5066.25
variable        pressureDamp equal 1.0 #this is 1ps
include		in.seed
variable        seed world 745823

units           metal
atom_style	full
read_restart	restart.lmp.${pid}
read_restart	restart.lmp.0
Reading restart file ...
  restart file = 23 Jun 2022, LAMMPS = 23 Jun 2022
  restoring atom style full from restart
  orthogonal box = (0.64957757 0 0) to (46.801121 20.047001 20.857)
  4 by 1 by 1 MPI processor grid
Summary of lammps deepmd module ...
  >>> Info of deepmd-kit:
  installed to:       /u/sigbjobo/software/DEEPMD_FROM_SOURCE/deepmd-kit/install
  source:             v2.1.3
  source branch:       master
  source commit:      5a32c49
  source commit at:   2022-07-01 09:52:58 +0800
  surpport model ver.:1.1 
  build float prec:   double
  build with tf inc:  /u/sigbjobo/software/DEEPMD_FROM_SOURCE/tensorflow/install/include;/u/sigbjobo/software/DEEPMD_FROM_SOURCE/tensorflow/install/include
  build with tf lib:  /u/sigbjobo/software/DEEPMD_FROM_SOURCE/tensorflow/install/lib/libtensorflow_cc.so;/u/sigbjobo/software/DEEPMD_FROM_SOURCE/tensorflow/install/lib/libtensorflow_framework.so
  set tf intra_op_parallelism_threads: 0
  set tf inter_op_parallelism_threads: 0
  >>> Info of lammps module:
  use deepmd-kit at:  /u/sigbjobo/software/DEEPMD_FROM_SOURCE/deepmd-kit/install
  source:             v2.1.3
  source branch:      master
  source commit:      5a32c49
  source commit at:   2022-07-01 09:52:58 +0800
  build float prec:   double
  build with tf inc:  /u/sigbjobo/software/DEEPMD_FROM_SOURCE/tensorflow/install/include;/u/sigbjobo/software/DEEPMD_FROM_SOURCE/tensorflow/install/include
  build with tf lib:  /u/sigbjobo/software/DEEPMD_FROM_SOURCE/tensorflow/install/lib/libtensorflow_cc.so;/u/sigbjobo/software/DEEPMD_FROM_SOURCE/tensorflow/install/lib/libtensorflow_framework.so
  restoring pair style deepmd from restart
  2268 atoms
Finding 1-2 1-3 1-4 neighbors ...
  special bond factors lj:    0        0        0       
  special bond factors coul:  0        0        0       
     0 = max # of 1-2 neighbors
     0 = max # of 1-3 neighbors
     0 = max # of 1-4 neighbors
     1 = max # of special neighbors
  special bonds CPU = 0.000 seconds
  read_restart CPU = 0.011 seconds
include 	in.setup
variable	out_freq equal 500
variable	out_freq2 equal 1000
variable	out_freq3 equal 5000

timestep        0.0005

neigh_modify    delay 7 every 1

include         in.deepmd
# This is deepMD model

# create groups ###
#group ox type 2
#group hy type 1

mass 2 15.999
mass 1 1.008

pair_style      deepmd ../graph.pb
pair_coeff      * *

bond_style      none
angle_style     none
dihedral_style  none
improper_style  none
neigh_modify exclude none


neighbor        2.0 bin
neigh_modify    every 10 delay 0 check no

thermo          ${out_freq}
thermo          500
thermo_style 	custom step temp pe etotal epair emol press lx ly lz vol pxx pyy pzz pxy pxz pyz
#thermo_modify	flush yes
restart 	${out_freq} restart.lmp.${pid} restart2.lmp.${pid}
restart 	500 restart.lmp.${pid} restart2.lmp.${pid}
restart 	500 restart.lmp.0 restart2.lmp.${pid}
restart 	500 restart.lmp.0 restart2.lmp.0

include		in.dump
dump            myDump all atom ${out_freq3} dump.water.${pid}
dump            myDump all atom 5000 dump.water.${pid}
dump            myDump all atom 5000 dump.water.0
dump            myDump2 all dcd ${out_freq2} dump.dcd.${pid}
dump            myDump2 all dcd 1000 dump.dcd.${pid}
dump            myDump2 all dcd 1000 dump.dcd.0
dump_modify     myDump append yes
dump_modify     myDump2 append yes


timer           timeout 23:50:00 every 1000
New timer settings: style=normal  mode=nosync  timeout=23:50:00

fix             1 all plumed plumedfile plumed.dat outfile plumed.out
fix             3 all nph x ${pressure} ${pressure} ${pressureDamp}
fix             3 all nph x 5066.25 ${pressure} ${pressureDamp}
fix             3 all nph x 5066.25 5066.25 ${pressureDamp}
fix             3 all nph x 5066.25 5066.25 1
Resetting global fix info from restart file:
  fix style: nph, fix ID: 3
fix             4 all temp/csvr ${temperature} ${temperature} ${tempDamp} ${seed}
fix             4 all temp/csvr 250 ${temperature} ${tempDamp} ${seed}
fix             4 all temp/csvr 250 250 ${tempDamp} ${seed}
fix             4 all temp/csvr 250 250 0.1 ${seed}
fix             4 all temp/csvr 250 250 0.1 745823
Resetting global fix info from restart file:
  fix style: temp/csvr, fix ID: 4

run             40000000 upto

CITE-CITE-CITE-CITE-CITE-CITE-CITE-CITE-CITE-CITE-CITE-CITE-CITE

Your simulation uses code contributions which should be cited:

- USER-DEEPMD package:

@article{Wang_ComputPhysCommun_2018_v228_p178,
  author = {Wang, Han and Zhang, Linfeng and Han, Jiequn and E, Weinan},
  doi = {10.1016/j.cpc.2018.03.016},
  url = {https://doi.org/10.1016/j.cpc.2018.03.016},
  year = 2018,
  month = {jul},
  publisher = {Elsevier {BV}},
  volume = 228,
  journal = {Comput. Phys. Commun.},
  title = {{DeePMD-kit: A deep learning package for many-body potential energy representation and molecular dynamics}},
  pages = {178--184}
}

CITE-CITE-CITE-CITE-CITE-CITE-CITE-CITE-CITE-CITE-CITE-CITE-CITE

Generated 0 of 1 mixed pair_coeff terms from geometric mixing rule
All restart file global fix info was re-assigned
Neighbor list info ...
  update every 10 steps, delay 0 steps, check no
  max neighbors/atom: 2000, page size: 100000
  master list distance cutoff = 8
  ghost atom cutoff = 8
  binsize = 4, bins = 12 6 6
  1 neighbor lists, perpetual/occasional/extra = 1 0 0
  (1) pair deepmd, perpetual
      attributes: full, newton on
      pair build: full/bin
      stencil: full/bin/3d
      bin: standard
Per MPI rank memory allocation (min/avg/max) = 6.144 | 6.148 | 6.152 Mbytes
   Step          Temp          PotEng         TotEng         E_pair         E_mol          Press            Lx             Ly             Lz           Volume          Pxx            Pyy            Pzz            Pxy            Pxz            Pyz      
  28897500   255.99373     -355.89235     -280.87781     -355.89235      0              4992.5163      46.151544      20.047001      20.857         19296.897      5265.3502      3753.1271      5959.0717     -1101.1405      276.02176     -1391.2066    
  28898000   253.44341     -358.96791     -284.70069     -358.96946      0              5921.6796      46.127533      20.047001      20.857         19286.858      8339.0697      4945.2613      4480.708      -696.75577      1459.9694     -640.00888    
  28898500   248.3035      -357.73912     -284.97806     -357.7287       0              3612.2426      46.053333      20.047001      20.857         19255.833      3761.4833      3684.1698      3391.0748     -246.25692      168.55154      2334.1758    
  28899000   245.24353     -357.88647     -286.02208     -357.8853       0              6968.412       45.788197      20.047001      20.857         19144.975      5320.2994      9949.688       5635.2485      407.84441      226.62109     -733.81489    
  28899500   243.13431     -358.05618     -286.80986     -358.0538       0              4114.506       45.738046      20.047001      20.857         19124.006      5415.1271      3836.3252      3092.0656     -440.9905       300.44888     -783.13496    
  28900000   251.12462     -358.75808     -285.17034     -358.75607      0              4194.1509      46.173396      20.047001      20.857         19306.034      4855.9874      4882.3643      2844.101       1118.3274     -533.03443      1672.1987    
  28900500   252.51943     -356.48757     -282.49111     -356.47686      0              4437.0681      46.345043      20.047001      20.857         19377.803      4609.018       3959.2183      4742.968       1099.6262     -1022.5905      897.24993    
  28901000   247.75851     -357.67106     -285.0697      -357.6655       0              7279.4948      45.941093      20.047001      20.857         19208.904      9109.1077      5656.6126      7072.7641      1378.1197     -636.32995      863.59661    
  28901500   253.6657      -358.06239     -283.73003     -358.05342      0              5807.8793      45.979864      20.047001      20.857         19225.115      6689.8513      5743.5567      4990.2299      1558.8444     -67.089245      373.19967    
  28902000   245.83166     -359.21536     -287.17863     -359.20875      0              4103.1735      46.107478      20.047001      20.857         19278.473      7462.4688      1926.7691      2920.2825      1549.9572      1364.866       890.0265     
  28902500   250.80319     -359.31209     -285.81854     -359.30035      0              4274.0411      46.097114      20.047001      20.857         19274.139      6436.2498      2136.558       4249.3154      554.91271     -1198.8919     -1581.1924    
  28903000   246.6165      -354.84967     -282.58296     -354.83687      0              4423.5764      46.178914      20.047001      20.857         19308.341      8404.6805      2821.6498      2044.3991      1473.8604      1023.4736     -1064.8641    
  28903500   252.17912     -356.87294     -282.9762      -356.86334      0              4199.2807      46.174342      20.047001      20.857         19306.43       5528.9471      3151.0563      3917.8386     -258.87402      337.33593      686.38978    
  28904000   240.65354     -358.5363      -288.01693     -358.52992      0              4334.682       46.282794      20.047001      20.857         19351.776      3805.9514      5169.7574      4028.3374      88.592296     -1070.3108      10.239347    
  28904500   247.11651     -358.59509     -286.18186     -358.59551      0              4183.2833      46.145603      20.047001      20.857         19294.413      4850.5016      5265.1486      2434.1998      1618.3818     -317.52807      1112.7912    
  28905000   249.43173     -357.4254      -284.33373     -357.41357      0              5280.2202      46.140392      20.047001      20.857         19292.235      7629.6498      5001.9873      3209.0233     -256.41946     -12.815833      1785.1819    
  28905500   257.5966      -360.06669     -284.58245     -360.05863      0              2553.0125      46.123174      20.047001      20.857         19285.035      2153.602       2676.9285      2828.507       354.40505     -257.87121      483.56601    
  28906000   251.18165     -356.59704     -282.99259     -356.59107      0              5258.9227      45.884168      20.047001      20.857         19185.102      7753.6845      3949.9297      4073.1538      335.50922      313.01063      540.91257    
  28906500   255.64955     -358.70935     -283.79566     -358.70117      0              3684.5015      46.097269      20.047001      20.857         19274.204      4969.5886      3595.2843      2488.6317     -277.21521     -1520.3215     -2235.1128    
  28907000   253.17015     -359.41163     -285.22448     -359.41         0              3901.0754      46.164798      20.047001      20.857         19302.439      2077.9106      5512.0098      4113.3059     -339.11483     -191.48938     -372.32835    
  28907500   249.65252     -357.06951     -283.91315     -357.06366      0              2207.0149      46.147989      20.047001      20.857         19295.411      1543.4035      2043.9569      3033.6842     -1416.6701     -924.51977     -798.90759    
  28908000   244.92676     -356.61313     -284.84157     -356.605        0              4636.1287      46.227596      20.047001      20.857         19328.696      5339.9278      4721.0045      3847.4537      1354.1433     -1094.8501      3404.2211    
  28908500   249.41166     -358.88182     -285.79604     -358.87232      0              3727.7771      46.20136       20.047001      20.857         19317.727      4295.4973      3462.3982      3425.4356     -2290.588      -864.35392     -389.65281    
  28909000   252.75727     -358.23887     -284.17271     -358.22673      0              4801.5393      46.135768      20.047001      20.857         19290.301      6165.1132      3473.6584      4765.8464      471.78237      323.43212     -868.7905     
  28909500   248.45781     -356.72709     -283.92082     -356.71313      0              5963.1572      46.22751       20.047001      20.857         19328.66       4113.4097      6470.0155      7306.0464      687.97592      542.37757     -686.92561    
  28910000   247.25604     -358.77388     -286.31976     -358.76665      0              3492.0409      46.018851      20.047001      20.857         19241.416      5769.0354      3194.4713      1512.616      -943.91704     -29.309537     -39.950804    
  28910500   242.4877      -360.0939      -289.03706     -360.08726      0              4229.9359      46.054497      20.047001      20.857         19256.32       4955.1388      4901.4469      2833.222       1441.1725      885.23454      190.10889    
  28911000   247.27497     -358.80318     -286.34351     -358.79664      0              5680.8976      46.086042      20.047001      20.857         19269.51       6757.766       6998.4794      3286.4473     -33.961216     -125.10125      654.60818    
  28911500   250.4579      -359.45437     -286.062       -359.43935      0              2459.874       46.345055      20.047001      20.857         19377.808      4458.1049      521.46011      2400.0571      459.5852      -1036.0406      819.57414    
  28912000   248.04214     -359.03491     -286.35044     -359.03276      0              2964.1642      46.330766      20.047001      20.857         19371.834      3552.6896      3383.5168      1956.2861      876.19101      236.27282      348.86038    
  28912500   253.07605     -357.27973     -283.12016     -357.27644      0              5322.8615      45.784799      20.047001      20.857         19143.554      6974.8425      4436.9686      4556.7735     -417.95973      588.41186      1540.7063    
  28913000   251.57314     -357.43108     -283.71192     -357.4161       0              3522.7394      45.910639      20.047001      20.857         19196.17       2361.8633      4380.2056      3826.1492      68.289531     -870.06103     -72.260863    
  28913500   253.05445     -359.84733     -285.69409     -359.84334      0              4013.3389      46.054474      20.047001      20.857         19256.311      1693.166       6811.7411      3535.1095      1149.0626      660.0558      -739.70403    
  28914000   251.16323     -358.31649     -284.71744     -358.32109      0              4401.0428      45.994692      20.047001      20.857         19231.315      4876.5384      2917.7039      5408.8861      788.10145      389.19452      1017.6066    
  28914500   252.6147      -358.26178     -284.2374      -358.26147      0              5222.8628      45.93481       20.047001      20.857         19206.277      7375.1556      5196.163       3097.2697     -848.05223     -216.11214     -2065.3992    
  28915000   246.79866     -357.24474     -284.92465     -357.23949      0              6470.8832      45.905294      20.047001      20.857         19193.935      6521.2265      6588.9229      6302.5003     -170.34826      2002.251       511.19555    
  28915500   253.12366     -358.44852     -284.275       -358.43408      0              2847.7124      45.889045      20.047001      20.857         19187.141      4424.6913      2752.3873      1366.0587     -971.5693       84.987915     -1035.1818    
  28916000   244.45889     -360.03293     -288.39847     -360.02066      0              5996.4906      45.857567      20.047001      20.857         19173.979      4078.4105      7665.9252      6245.1362      597.1786      -84.593599      1037.4458    
  28916500   251.9766      -359.06641     -285.22901     -359.05234      0              6255.2701      46.003063      20.047001      20.857         19234.814      7154.1499      3381.7081      8229.9523      1286.3921      552.79964     -696.99394    
  28917000   249.09363     -357.80473     -284.81214     -357.79124      0              4326.5515      46.200645      20.047001      20.857         19317.427      6155.9103      3832.4248      2991.3195     -14.219664      648.69085     -781.44579    
  28917500   250.77895     -356.41841     -282.93196     -356.40603      0              3226.2144      46.275876      20.047001      20.857         19348.883      3050.2863      1925.3217      4703.0353      891.43931      1047.2342     -454.38367    
  28918000   255.93497     -358.78932     -283.79199     -358.77863      0              5884.3217      45.954156      20.047001      20.857         19214.365      6293.7222      7029.8247      4329.4182      271.35826     -46.235475     -532.0981     
  28918500   251.61004     -356.25998     -282.53        -356.24793      0              3934.0492      45.669726      20.047001      20.857         19095.439      6626.2595     -29.374593      5205.2628     -405.00844      2791.0129      1618.8757    
  28919000   253.51316     -359.95931     -285.67165     -359.94585      0              4031.7302      45.960779      20.047001      20.857         19217.135      5213.6951      2404.3487      4477.1467     -189.99381      1215.7151     -423.65244    
  28919500   246.86141     -361.09817     -288.75969     -361.08526      0              5098.0197      46.374078      20.047001      20.857         19389.944      6517.0983      5348.5664      3428.3943      957.55914      284.9528      -1462.6841    
  28920000   247.0049      -360.4705      -288.08997     -360.45719      0              912.02703      46.225189      20.047001      20.857         19327.69       559.48782      688.42227      1488.171      -378.66821     -116.78135      937.223      
  28920500   248.41717     -359.24615     -286.45178     -359.23764      0              5999.2226      45.748804      20.047001      20.857         19128.504      7642.0946      5126.5232      5229.0502      853.45045      1612.4814     -221.66106    
  28921000   250.64129     -360.21023     -286.76412     -360.20379      0              5578.5499      45.855432      20.047001      20.857         19173.087      4886.8581      7728.998       4119.7935      1477.204      -704.22378     -1498.989     
  28921500   247.50336     -360.26266     -287.73607     -360.25764      0              4673.3979      46.064693      20.047001      20.857         19260.583      6654.6647      2001.0599      5364.4691     -426.26483      2418.5815      712.75873    
  28922000   247.70275     -359.02818     -286.44316     -359.02464      0              4103.1428      46.066462      20.047001      20.857         19261.323      6198.4473      3133.9679      2977.013       1635.7481     -202.34919     -1352.8888    
  28922500   247.68503     -358.2314      -285.65157     -358.22376      0              3480.8998      46.261978      20.047001      20.857         19343.072      3796.3625      2421.0137      4225.3231      493.67754      834.17322      190.40435    
  28923000   249.48734     -357.55202     -284.44406     -357.54577      0              5207.9638      45.974068      20.047001      20.857         19222.691      6953.1285      6743.7659      1926.997       443.72648     -837.59836      18.821596    
  28923500   247.64054     -357.57787     -285.01108     -357.56405      0              5522.4382      45.923027      20.047001      20.857         19201.35       7300.3488      4613.277       4653.6887      914.26351      1866.7385     -240.12522    
  28924000   253.15871     -360.11216     -285.92836     -360.10651      0              3859.5823      46.062641      20.047001      20.857         19259.725      3666.003       5801.6338      2111.1101     -1388.2968     -794.92416      305.51688    
  28924500   251.78034     -359.21218     -285.43229     -359.21171      0              4120.6249      46.015831      20.047001      20.857         19240.153      4629.428       3226.357       4506.0898      293.53406      687.27281      1154.0217    
  28925000   255.49165     -359.00506     -284.13764     -358.99923      0              6063.1709      46.058927      20.047001      20.857         19258.172      5465.4773      6376.8933      6347.1421      258.03285     -491.14791      1481.2446    
  28925500   254.13358     -357.42737     -282.95791     -357.41535      0              4091.6943      46.110677      20.047001      20.857         19279.81       3918.501       3003.6588      5352.923       852.54461     -699.98377      1656.4966    
  28926000   245.23645     -360.3886      -288.52629     -360.38867      0              3882.5627      45.91443       20.047001      20.857         19197.755      5356.3862      3217.7164      3073.5854      308.61673      892.2396      -1696.5549    
  28926500   251.69132     -356.72988     -282.97608     -356.72678      0              5711.3902      45.905955      20.047001      20.857         19194.212      5145.5707      4256.8773      7731.7225     -1198.9295     -1231.435       507.01997    
  28927000   251.26719     -358.30105     -284.67153     -358.29912      0              4377.4852      46.270374      20.047001      20.857         19346.583      4491.1428      3272.79        5368.5228     -1133.2193      1359.1028      1373.746     
  28927500   247.13616     -357.7882      -285.36921     -357.78234      0              4802.6578      46.275642      20.047001      20.857         19348.785      6318.4419      4216.6824      3872.8491      74.832504     -1326.1904      1305.9614    
  28928000   256.36006     -359.71956     -284.59766     -359.76721      0              6661.4137      46.098606      20.047001      20.857         19274.763      7425.3272      6968.1425      5590.7713     -367.90724      734.76396      1355.1934    
  28928500   257.98616     -357.97404     -282.37565     -357.9718       0              2478.9856      46.042212      20.047001      20.857         19251.183      4640.4862      658.01425      2138.4563      164.88284      428.15334      784.3609     
  28929000   249.28757     -356.92823     -283.87881     -356.91951      0              3929.846       45.862541      20.047001      20.857         19176.059      3275.5476      3512.149       5001.8413     -550.66835     -699.12175     -225.80798    
  28929500   254.24402     -359.26221     -284.76039     -359.26619      0              5334.2309      45.759442      20.047001      20.857         19132.952      7596.4129      5084.7761      3321.5036     -767.14929      67.298497     -902.74045    
  28930000   248.86844     -360.45389     -287.52728     -360.4529       0              1849.8762      45.916394      20.047001      20.857         19198.576      2507.4404     -18.263777      3060.452      -847.32828      1389.4054      2567.6567    
  28930500   245.71907     -356.46228     -284.45855     -356.45368      0              3508.2298      45.950472      20.047001      20.857         19212.825      4168.85        4083.0667      2272.7726     -1164.2944      1708.4793     -765.67307    
  28931000   249.18879     -359.26566     -286.24519     -359.2661       0              4281.8413      45.711804      20.047001      20.857         19113.033      5559.8554      2748.7945      4536.8739     -81.197805      146.09192      1663.9326    
  28931500   250.6635      -358.46247     -285.00986     -358.45825      0              5405.8337      45.858476      20.047001      20.857         19174.36       8149.9165      3928.261       4139.3236     -1043.3457     -1277.4545     -683.42954    
  28932000   254.70473     -360.34386     -285.70704     -360.33147      0              3701.3259      46.316081      20.047001      20.857         19365.694      5837.7077      1261.4938      4004.7763      463.81317      761.1065       1252.4383    
  28932500   254.45947     -361.99197     -287.42702     -361.97787      0              3981.8212      46.062357      20.047001      20.857         19259.607      4821.8472      2005.4345      5118.1817      915.73656      551.00084      1860.8922    
  28933000   244.23987     -356.64863     -285.07835     -356.63366      0              3159.9629      45.46709       20.047001      20.857         19010.713      2502.9191      5125.3246      1851.645      -300.54177      915.62577     -204.13005    
  28933500   247.46137     -359.17585     -286.66156     -359.17192      0              4541.9353      45.702615      20.047001      20.857         19109.191      6158.5885      2911.7666      4555.4508     -1562.9692     -1054.0738     -38.19494     
  28934000   247.72408     -358.50605     -285.91478     -358.49907      0              3748.8944      46.247571      20.047001      20.857         19337.048      2613.7939      4618.8664      4014.0229      190.72107     -487.9081       596.81129    
  28934500   247.55342     -358.59756     -286.0563      -358.60613      0              3516.3517      45.910808      20.047001      20.857         19196.241      4704.3135      2682.979       3161.7626      404.95851     -579.86993      1992.5513    
  28935000   252.02391     -361.98869     -288.13743     -361.99709      0              6200.7593      45.683024      20.047001      20.857         19101          7356.0245      6112.2659      5133.9874     -1504.3622      1082.6881      567.90125    
  28935500   253.91682     -360.1128      -285.70685     -360.10403      0              3577.1588      45.900023      20.047001      20.857         19191.731      4497.928       1531.7505      4701.798      -429.38043      587.33243     -573.09446    
  28936000   240.66528     -359.18439     -288.66158     -359.17898      0              2161.4584      45.99511       20.047001      20.857         19231.489      3296.9911      775.48085      2411.9034      163.91482      2075.4007      1057.0497    
  28936500   247.90735     -359.34114     -286.69617     -359.34066      0              3372.061       45.797409      20.047001      20.857         19148.826      3279.2633      4172.1576      2664.762       1227.2188     -559.70201     -1547.6528    
  28937000   254.24926     -359.2731      -284.76974     -359.26149      0              5564.2609      45.896992      20.047001      20.857         19190.464      4675.9784      5588.6332      6428.171      -807.9552       2999.4619      472.31262    
  28937500   251.08117     -359.93153     -286.35653     -359.92845      0              4083.9786      45.761348      20.047001      20.857         19133.749      5381.8689      2523.0274      4347.0394      514.72372     -441.57335      1967.8597    
  28938000   251.05571     -357.61311     -284.04556     -357.60669      0              4835.4091      45.815231      20.047001      20.857         19156.278      5575.6671      4943.4946      3987.0656     -233.14465      3378.2472      2702.8068    
  28938500   249.09667     -361.40507     -288.41159     -361.39916      0              6233.443       45.792416      20.047001      20.857         19146.739      4195.2584      8936.5268      5568.5438     -60.590708      160.64227      505.28437    
  28939000   248.86163     -359.18193     -286.25733     -359.17568      0              4838.7466      45.835096      20.047001      20.857         19164.584      5510.6956      4695.6133      4309.9311      183.59739     -770.84578      654.57636    
  28939500   246.01771     -358.44582     -286.35457     -358.46308      0              5776.8125      45.80452       20.047001      20.857         19151.8        5500.5093      4886.5639      6943.3642     -1215.9593      175.49422     -359.89222    
  28940000   250.90425     -359.51        -285.98684     -359.50337      0              5851.8119      45.705231      20.047001      20.857         19110.285      7414.7031      3474.6269      6666.1057     -1007.199      -346.78057     -648.4557     
  28940500   250.20462     -359.49764     -286.17949     -359.48854      0              6907.1784      45.696884      20.047001      20.857         19106.795      7799.3822      7875.565       5046.5879     -209.82934     -1567.61       -1084.3746    
  28941000   246.50532     -360.20312     -287.96898     -360.22105      0              4425.9615      45.794181      20.047001      20.857         19147.477      5515.4391      3093.754       4668.6913     -136.83649     -764.6467      -275.78781    
  28941500   246.41937     -360.75619     -288.54725     -360.74337      0              3477.7642      45.96995       20.047001      20.857         19220.969      5623.171       787.17456      4022.9471     -511.10045      25.303137      757.96335    
  28942000   246.02709     -361.30725     -289.21325     -361.29967      0              2739.3026      45.867109      20.047001      20.857         19177.969      4554.3267      1319.6281      2343.9529      30.37621      -791.77295      638.07349    
  28942500   241.29213     -359.36378     -288.65728     -359.36966      0              5134.24        45.701551      20.047001      20.857         19108.746      6944.6983      3442.3877      5015.634      -955.5424       617.86785      853.92297    
  28943000   255.27767     -357.33939     -282.53467     -357.33913      0              3424.4796      45.936151      20.047001      20.857         19206.837      3398.8267      3273.4284      3601.1836     -780.92805     -36.720323     -1020.4812    
  28943500   251.63945     -357.81569     -284.07709     -357.80484      0              3599.8335      46.238258      20.047001      20.857         19333.154      4822.52        3184.5983      2792.3822     -193.29585      540.03653     -2807.1659    
  28944000   254.88483     -360.32064     -285.63104     -360.34729      0              6020.2146      46.073962      20.047001      20.857         19264.459      5742.5441      6223.3335      6094.7663      378.49697     -1165.898       664.07829    
  28944500   254.57616     -360.0754      -285.47625     -360.10315      0              4783.1463      45.634415      20.047001      20.857         19080.675      5085.9031      2739.7697      6523.7661     -2927.2087     -372.00592      837.82498    
  28945000   258.38999     -361.40811     -285.69138     -361.4192       0              5433.6251      45.616304      20.047001      20.857         19073.103      5887.9391      4409.3947      6003.5415      1878.0697     -145.4312      -562.10574    
  28945500   254.03884     -360.42984     -285.98814     -360.43634      0              4791.3733      45.8791        20.047001      20.857         19182.983      6540.2388      3393.6387      4440.2424     -849.32173     -1358.5255     -992.66943    
  28946000   250.96092     -358.13933     -284.59956     -358.14419      0              4938.5672      45.881658      20.047001      20.857         19184.053      6048.7105      5173.9676      3593.0235      1265.4467     -192.50439      897.55061    
  28946500   247.81342     -358.72314     -286.1057      -358.73549      0              6429.3293      45.682295      20.047001      20.857         19100.695      5673.2951      6504.5561      7110.1365     -555.64329     -689.50931     -282.81863    
  28947000   252.46216     -363.1143      -289.13462     -363.11853      0              2929.4845      45.931478      20.047001      20.857         19204.883      4616.2386      2348.0766      1824.1383     -399.86017     -875.9535       639.85098    
  28947500   251.85007     -361.30639     -287.50607     -361.32627      0              4643.0744      45.900836      20.047001      20.857         19192.071      4831.7902      3714.8383      5382.5949     -148.86417      586.14153     -680.6419     
  28948000   243.91665     -360.14439     -288.66883     -360.13845      0              7996.6372      45.730101      20.047001      20.857         19120.683      9796.1735      6800.7797      7392.9583      144.74185     -425.45007      1410.5369    
  28948500   244.81392     -360.76676     -289.02827     -360.76096      0              3754.4115      45.756374      20.047001      20.857         19131.669      3834.6829      2877.2458      4551.3059     -942.13935      954.96261      910.1399     
  28949000   250.42718     -360.42445     -287.04109     -360.44461      0              5649.3598      45.778383      20.047001      20.857         19140.871      6494.5767      5587.1878      4866.3148     -494.73009      833.9958       545.58928    
  28949500   254.53853     -362.71004     -288.12191     -362.70739      0              3778.7443      45.893955      20.047001      20.857         19189.194      3190.3463      3813.1077      4332.779      -1198.9576     -1445.9044      84.031786    
  28950000   246.95634     -358.43967     -286.07338     -358.47515      0              6907.7945      45.899446      20.047001      20.857         19191.49       9919.6394      6046.1655      4757.5785      479.82593     -732.38543      552.45863    
  28950500   251.85618     -360.01954     -286.21743     -360.01989      0              2055.0311      46.074659      20.047001      20.857         19264.75       3930.0448      115.78856      2119.26        2206.816       413.5829      -1248.5748    
  28951000   253.6074      -359.1961      -284.88083     -359.19267      0              4427.3679      46.127934      20.047001      20.857         19287.026      2977.7349      5705.0929      4599.2759     -586.68953     -111.50753     -439.63801    
  28951500   250.95056     -360.22642     -286.68969     -360.22258      0              5529.9803      45.84021       20.047001      20.857         19166.722      6382.271       5070.5269      5137.143       1224.1235      177.51813     -591.59691    
  28952000   255.67868     -360.57935     -285.65713     -360.58127      0              6086.158       45.787744      20.047001      20.857         19144.785      5779.8742      4883.8967      7594.7032     -354.61704     -837.42544      384.60598    
  28952500   247.07626     -360.59412     -288.19268     -360.5807       0              4016.0958      46.065634      20.047001      20.857         19260.977      6921.5128      1469.9536      3656.821       661.80017     -1702.4394     -677.54862    
  28953000   248.1546      -359.8893      -287.17187     -359.90003      0              3099.6825      45.982296      20.047001      20.857         19226.131      4200.0945      612.68259      4486.2705     -302.70149      1928.4969     -1255.3712    
  28953500   251.58004     -358.43176     -284.71056     -358.43017      0              4664.4249      45.650101      20.047001      20.857         19087.234      5262.1898      5506.4348      3224.6503     -188.80563      153.03643      802.65294    
  28954000   250.00649     -361.99943     -288.73934     -361.99987      0              4658.0862      45.813995      20.047001      20.857         19155.761      4232.0087      5294.79        4447.4599      615.61824     -363.59612      131.9063     
  28954500   253.58714     -362.69402     -288.38468     -362.68814      0              2113.6682      45.894713      20.047001      20.857         19189.511      1666.3524      2829.1325      1845.5198     -1453.3402      35.829932     -1448.2178    
  28955000   249.39501     -362.10635     -289.02545     -362.10967      0              4162.2882      45.657343      20.047001      20.857         19090.262      5759.4296      3895.3023      2832.1326     -1605.6837     -849.13306      1679.6702    
  28955500   251.824       -359.59208     -285.7994      -359.59639      0              5184.6524      45.534041      20.047001      20.857         19038.707      6293.251       3384.3001      5876.4061     -92.092377      1676.915       326.7922     
  28956000   254.99915     -360.28419     -285.56109     -360.27751      0              4378.9328      45.93646       20.047001      20.857         19206.967      4624.0674      4049.0647      4463.6662      1060.782       168.33516     -623.86381    
  28956500   243.79517     -361.81736     -290.37739     -361.81688      0              4037.8033      46.217782      20.047001      20.857         19324.593      4122.0865      3382.6771      4608.6463      28.669886      826.56162      1362.5704    
  28957000   246.31904     -363.78836     -291.60882     -363.78349      0              4867.6422      45.83421       20.047001      20.857         19164.214      6027.9191      5240.0304      3334.9771     -205.26753      209.70781     -29.683465    
  28957500   248.29745     -361.80382     -289.04453     -361.79653      0              5506.5976      45.73883       20.047001      20.857         19124.333      6680.2567      3704.8461      6134.69        312.63685     -391.55542     -210.95614    
  28958000   248.04895     -360.29773     -287.61126     -360.29053      0              2225.233       45.971663      20.047001      20.857         19221.686      1137.9881      3590.0844      1947.6264     -804.14362     -1576.3753      1602.2526    
  28958500   248.62467     -358.58466     -285.72949     -358.5776       0              4344.763       46.096404      20.047001      20.857         19273.842      6220.1739      3617.8333      3196.2818      699.60787      60.05575      -516.8976     
  28959000   249.35093     -359.65946     -286.59148     -359.65497      0              4523.283       45.895137      20.047001      20.857         19189.688      4749.9464      4975.5229      3844.3796     -854.99745      611.07423      1097.0008    
  28959500   245.26298     -357.8008      -285.93072     -357.8013       0              3761.0305      45.742558      20.047001      20.857         19125.892      4084.8002      4572.3285      2625.9626     -194.02005     -103.38514     -867.86426    
  28960000   248.34475     -361.19538     -288.42223     -361.18338      0              2416.5891      46.104757      20.047001      20.857         19277.335      2610.1578      2324.3014      2315.308      -371.41924     -401.14234      1047.0177    
  28960500   249.95533     -359.7625      -286.5174      -359.75571      0              3844.3881      45.887952      20.047001      20.857         19186.684      6363.429       2968.3091      2201.4263      14.183841     -782.83221     -960.63216    
  28961000   258.25288     -360.93714     -285.26059     -360.93827      0              4599.3864      45.677886      20.047001      20.857         19098.851      4593.7164      5252.3394      3952.1034      970.13591      135.52801     -527.32701    
  28961500   249.83669     -359.1887      -285.97837     -359.18542      0              5935.7714      45.868371      20.047001      20.857         19178.497      5812.9731      6084.298       5910.043       820.53991      189.00079      478.6815     
  28962000   249.03578     -359.79327     -286.81763     -359.79921      0              4294.5871      45.964149      20.047001      20.857         19218.544      5768.4349      5427.0957      1688.2307      2160.893       724.7563       363.7954     
  28962500   247.51428     -359.07849     -286.5487      -359.08386      0              4067.3537      45.953908      20.047001      20.857         19214.262      2665.9484      5663.0275      3873.0851     -523.6889       674.54673     -524.12835    
  28963000   249.37183     -359.53988     -286.46576     -359.55738      0              5815.2436      46.097407      20.047001      20.857         19274.262      8093.6552      4320.5858      5031.4899     -311.50624     -919.69735     -321.40803    
  28963500   256.08316     -361.57313     -286.53238     -361.57143      0              4211.515       46.054569      20.047001      20.857         19256.35       5510.3424      4338.6425      2785.56        551.74367      391.08107      1032.081     
  28964000   255.33247     -358.44003     -283.61925     -358.4342       0              5855.4988      45.657903      20.047001      20.857         19090.496      6052.4241      6026.9652      5487.1071     -1563.0934      969.77797     -362.58204    
  28964500   256.74431     -359.37869     -284.1442      -359.37915      0              5055.9246      45.699104      20.047001      20.857         19107.723      5463.22        5414.9521      4289.6019     -677.57657      191.66501      1003.0795    
  28965000   248.29386     -360.83597     -288.07774     -360.83449      0              4088.6047      46.025779      20.047001      20.857         19244.313      4946.4831      3293.9907      4025.3404     -361.41582     -720.58192      231.43146    
  28965500   243.53073     -359.16963     -287.80715     -359.17062      0              5531.1421      45.888077      20.047001      20.857         19186.737      5250.2186      6025.6334      5317.5743      443.93172     -485.86609      2066.5661    
  28966000   255.64698     -359.87236     -284.95942     -359.8729       0              4864.6615      45.743315      20.047001      20.857         19126.209      8200.3976      2873.5421      3520.0447      65.572148     -1514.3639      1309.7318    
  28966500   256.25823     -359.91065     -284.81859     -359.90629      0              4974.5898      45.805535      20.047001      20.857         19152.224      4507.0425      4584.1116      5832.6153      1067.2978     -200.10617      324.78542    
  28967000   248.37162     -356.85337     -284.07235     -356.84279      0              4220.4364      45.928221      20.047001      20.857         19203.522      5630.9481      3983.1377      3047.2234      893.53082     -791.33388     -52.648675    
  28967500   253.75901     -360.32346     -285.96376     -360.32802      0              5374.996       45.845981      20.047001      20.857         19169.135      6976.3094      3320.2184      5828.4602      177.03891      833.04657     -1901.8742    
  28968000   248.65116     -360.60965     -287.74672     -360.61919      0              4380.2032      45.818727      20.047001      20.857         19157.74       5338.2547      5069.8739      2732.481      -294.16621     -395.59377      3029.2938    
  28968500   249.75599     -360.64206     -287.45538     -360.6447       0              4318.5527      45.733566      20.047001      20.857         19122.132      2983.0206      4388.3884      5584.249      -183.27393     -540.21919     -45.647251    
  28969000   247.84297     -358.26301     -285.63691     -358.25489      0              4579.994       45.71336       20.047001      20.857         19113.684      6339.9753      3699.2224      3700.7843      869.532       -1054.4074      2192.5203    
  28969500   243.24646     -360.19614     -288.91696     -360.19387      0              5126.1982      45.701308      20.047001      20.857         19108.645      5594.4241      5358.7806      4425.3899      614.19058     -1089.53        1315.8472    
  28970000   245.80524     -359.36106     -287.33208     -359.36079      0              7120.9634      45.614522      20.047001      20.857         19072.358      8549.0825      6030.4533      6783.3544      65.265471     -781.48599     -1366.7059    
  28970500   249.49889     -359.61195     -286.50061     -359.60137      0              3758.1225      45.770833      20.047001      20.857         19137.715      3425.1768      4891.1959      2957.9949      42.189461     -845.5422      -542.02614    
  28971000   254.42356     -360.92276     -286.36832     -360.93405      0              3913.8878      45.886167      20.047001      20.857         19185.938      3352.721       4266.5226      4122.4199     -714.90644     -2281.097       1314.4868    
  28971500   254.05465     -362.63236     -288.18603     -362.62822      0              7347.2041      45.942429      20.047001      20.857         19209.462      8721.9814      5691.6325      7627.9983      1693.6828      636.88723     -347.98695    
  28972000   246.79078     -358.12254     -285.80476     -358.10941      0              4247.1584      45.671173      20.047001      20.857         19096.044      4448.8219      4537.7338      3754.9194      224.13651     -1006.3479     -455.78688    
  28972500   248.53113     -360.08462     -287.25686     -360.07127      0              5070.7681      45.502661      20.047001      20.857         19025.586      6086.3077      5530.1403      3595.8564      1650.9382     -497.15987     -674.58744    
  28973000   245.39726     -360.78973     -288.88029     -360.78398      0              4753.8854      45.896503      20.047001      20.857         19190.26       5029.5389      4838.983       4393.1344     -112.44206     -169.46826     -773.2951     
  28973500   251.85301     -359.64319     -285.84202     -359.63225      0              3519.7956      46.273269      20.047001      20.857         19347.793      4424.5897      2139.254       3995.543       1484.8815     -1402.2023      2207.3526    
  28974000   252.30867     -358.35886     -284.42415     -358.35874      0              4522.6172      46.043951      20.047001      20.857         19251.91       4370.6652      4123.2348      5073.9516      1107.9173     -300.75819      220.01793    
  28974500   255.46823     -357.59928     -282.73873     -357.59087      0              4838.5749      45.562602      20.047001      20.857         19050.649      5577.9086      3024.9763      5912.8399      151.56746      473.72662     -1116.5091    
  28975000   252.3748      -356.56713     -282.61305     -356.56179      0              4320.5887      45.55823       20.047001      20.857         19048.821      6608.693       2585.9334      3767.1398     -560.43217     -873.81085      993.65938    
  28975500   249.42634     -358.36265     -285.27257     -358.35847      0              3270.3699      45.933819      20.047001      20.857         19205.862      5258.9987      2758.7454      1793.3657      521.94389     -113.15641      185.81665    
  28976000   252.09617     -360.6939      -286.82147     -360.69488      0              5228.4059      45.8235        20.047001      20.857         19159.736      5916.4373      4619.7877      5148.9928     -576.5469       172.17315      2064.8909    
  28976500   248.45805     -360.54639     -287.74004     -360.53535      0              6392.8252      45.661931      20.047001      20.857         19092.18       6422.735       7130.8811      5624.8595      432.28681      425.54013     -364.84114    
  28977000   247.31644     -359.48719     -287.01538     -359.48681      0              4849.6647      45.864592      20.047001      20.857         19176.917      3237.423       5227.9257      6083.6454      426.53276      1848.2246      722.12309    
  28977500   247.26071     -358.08423     -285.62875     -358.07503      0              6253.0742      45.969319      20.047001      20.857         19220.706      7645.4014      6063.5187      5050.3026      343.10407     -1290.3522      1984.78      
  28978000   248.41643     -358.32425     -285.5301      -358.31089      0              2960.2009      46.019498      20.047001      20.857         19241.686      3866.1135      1182.4859      3832.0031     -624.73335     -355.92121      857.16896    
  28978500   243.04826     -357.25495     -286.03385     -357.24208      0              4043.263       45.86861       20.047001      20.857         19178.597      4867.8857      3651.5945      3610.3088      303.03953     -558.35788      930.70519    
  28979000   244.32028     -360.18861     -288.59477     -360.1835       0              4453.4686      45.681277      20.047001      20.857         19100.269      5997.3585      3335.7155      4027.3319      195.01638      31.119825      1009.2084    
  28979500   251.45405     -360.25885     -286.57458     -360.25069      0              3738.554       45.649335      20.047001      20.857         19086.913      4465.9808      4518.6254      2231.0557      1333.8105     -506.70103     -37.912588    
  28980000   243.66417     -360.13669     -288.73511     -360.12844      0              3271.798       45.834577      20.047001      20.857         19164.367      5103.2825      2670.2138      2041.8977      330.92249     -879.5052       1299.0289    
  28980500   244.94505     -358.46921     -286.69229     -358.46323      0              5166.6056      45.938803      20.047001      20.857         19207.946      3860.4032      9312.3115      2327.1022      620.51001     -674.6128      -90.343836    
  28981000   246.43502     -359.65657     -287.44304     -359.64914      0              3520.14        45.823236      20.047001      20.857         19159.625      6583.627       1106.8131      2869.9797     -845.16414      1234.6531     -139.30821    
  28981500   247.69569     -360.79201     -288.20906     -360.78562      0              3542.5226      45.919449      20.047001      20.857         19199.854      3148.1546      3290.4671      4188.9462      1362.0412     -1237.2626      69.90813     
  28982000   251.904       -358.46151     -284.64539     -358.45238      0              6661.6271      45.833833      20.047001      20.857         19164.056      5532.8644      7569.6973      6882.3196     -115.05778     -2378.2428     -693.78315    
  28982500   251.58629     -358.25368     -284.53066     -358.24179      0              4576.0244      45.769063      20.047001      20.857         19136.974      3284.8476      6509.1296      3934.0959      373.58409     -214.75253     -319.20507    
  28983000   252.6889      -359.55209     -285.50597     -359.54294      0              5261.6471      45.776732      20.047001      20.857         19140.181      5135.4585      4601.376       6048.1068      608.24086      1444.2217      1518.566     
  28983500   250.4799      -358.61865     -285.21984     -358.61283      0              5956.0801      45.944058      20.047001      20.857         19210.143      5874.0315      6298.872       5695.337       797.19587     -569.79025     -46.99012     
  28984000   245.22734     -359.72974     -287.8701      -359.73946      0              4791.5484      45.732279      20.047001      20.857         19121.594      4062.3531      4568.1753      5744.1167      1945.5745      1028.3014      752.40929    
  28984500   242.51383     -357.12905     -286.06455     -357.12525      0              3817.7279      45.715206      20.047001      20.857         19114.456      6018.4869      987.16873      4447.528      -239.88693      792.33861     -32.984011    
  28985000   258.85335     -359.61719     -283.76468     -359.61156      0              3279.2384      45.840223      20.047001      20.857         19166.728      4784.804       4326.632       726.27914      1065.8709      1011.3637     -504.25298    
  28985500   246.22955     -355.93559     -283.78227     -355.92933      0              4366.4953      45.855195      20.047001      20.857         19172.988      4561.9831      3988.8394      4548.6635      1303.0569      936.28574     -1308.0495    
  28986000   252.43626     -357.51395     -283.54186     -357.50834      0              5807.3002      45.653581      20.047001      20.857         19088.689      6661.1931      5642.2288      5118.4786     -512.21553     -979.30019     -816.28846    
  28986500   263.52533     -361.2298      -284.00825     -361.22112      0              6458.8702      45.60547       20.047001      20.857         19068.573      5305.3327      7313.5276      6757.7503      789.6316      -2021.0423      773.82081    
  28987000   255.10972     -359.77347     -285.01796     -359.76781      0              2205.3988      45.826877      20.047001      20.857         19161.147      3434.5195      1112.0423      2069.6346      797.45571      2208.1514     -653.69272    
  28987500   251.47251     -359.40533     -285.71565     -359.39124      0              4668.8844      45.751308      20.047001      20.857         19129.551      5290.4411      4831.1475      3885.0646      190.28591      28.414475      458.98837    
  28988000   250.44496     -359.43246     -286.04389     -359.42274      0              5557.8082      45.761271      20.047001      20.857         19133.716      8090.2084      5729.1978      2854.0185     -249.07503      945.96152      178.1877     
  28988500   249.97312     -357.71013     -284.45982     -357.7026       0              3865.8485      45.729562      20.047001      20.857         19120.458      4620.9168      1745.2782      5231.3503      968.41034     -853.95205      775.57463    
  28989000   257.36379     -360.34433     -284.92831     -360.33294      0              4852.2016      45.925684      20.047001      20.857         19202.461      6696.7223      4650.8698      3209.0126     -811.06155     -1570.6647     -88.141551    
  28989500   252.55254     -360.04854     -286.04238     -360.04326      0              3476.6294      45.885036      20.047001      20.857         19185.465      2311.5479      3238.2475      4880.0929      555.26224     -160.90698      1046.4705    
  28990000   239.12539     -360.20929     -290.13772     -360.20459      0              4023.4306      45.659718      20.047001      20.857         19091.255      4402.9604      2932.4279      4734.9034      163.2945       510.19825     -682.29296    
  28990500   246.50168     -360.02766     -287.7946      -360.02623      0              7334.9286      45.491364      20.047001      20.857         19020.863      10167.914      6848.5687      4988.3031      329.20501     -1613.8154      792.30158    
  28991000   245.3668      -358.13295     -286.23245     -358.12488      0              6821.0599      45.81321       20.047001      20.857         19155.433      7374.0726      5576.6924      7512.4147     -159.93475     -97.899731      92.434133    
  28991500   253.58442     -358.11586     -283.80732     -358.10985      0              2667.0734      45.926122      20.047001      20.857         19202.644      3726.3027      1596.2514      2678.6661     -626.17191      709.65911     -1080.1262    
  28992000   253.15608     -358.80867     -284.62565     -358.80336      0              6901.7015      45.677921      20.047001      20.857         19098.866      8746.0983      6618.8698      5340.1364     -966.91443     -1350.4619      290.61613    
  28992500   254.52187     -357.01669     -282.43344     -357.00352      0              4060.5177      45.690365      20.047001      20.857         19104.069      6669.9962      2584.1881      2927.3688      459.35153      761.00723      2.5395095    
  28993000   252.22815     -357.02697     -283.11586     -357.01626      0              4170.4825      46.011215      20.047001      20.857         19238.223      5445.6193      3752.9676      3312.8607     -986.12678     -798.03452      2789.185     
  28993500   246.65661     -359.6815      -287.40303     -359.68608      0              2325.2023      45.959422      20.047001      20.857         19216.567      3031.3483      797.02548      3147.2331      1893.0056     -699.86306      410.56201    
  28994000   248.00312     -358.275       -285.60197     -358.26905      0              3115.8662      45.450367      20.047001      20.857         19003.721      3910.8414      2986.0973      2450.6599      841.98648      165.19488      807.25971    
  28994500   242.0733      -357.5018      -286.5664      -357.50028      0              4596.3459      45.676757      20.047001      20.857         19098.379      6762.3935      3703.1383      3323.5058      23.921998     -950.2953      -186.62814    
  28995000   253.23341     -358.81507     -284.60939     -358.81078      0              4914.6133      46.176493      20.047001      20.857         19307.329      7596.5163      4628.6514      2518.6721     -120.3054      -118.82141     -854.11711    
  28995500   259.01115     -360.06008     -284.16134     -360.05709      0              5798.1799      45.880546      20.047001      20.857         19183.588      4317.8198      4573.8335      8502.8862     -121.20315     -1272.5981      942.01993    
  28996000   247.92495     -356.52339     -283.87326     -356.52265      0              4653.7495      45.673513      20.047001      20.857         19097.023      5007.7387      4398.541       4554.9687     -686.9628      -138.83556      425.35175    
  28996500   243.54212     -356.74399     -285.37817     -356.74009      0              5581.7772      45.516383      20.047001      20.857         19031.324      5471.5326      4009.0077      7264.7911      428.42211     -949.50624      478.65902    
  28997000   246.88674     -357.80292     -285.45702     -357.79777      0              2949.2945      45.780223      20.047001      20.857         19141.641      3152.5607      2914.9828      2780.34        89.905739      466.80492     -630.62551    
  28997500   247.70977     -358.91747     -286.3304      -358.9169       0              3477.8861      45.768095      20.047001      20.857         19136.57       3504.9558      5088.5102      1840.1924     -558.96732     -1444.5858      741.99721    
  28998000   255.02067     -359.22385     -284.49444     -359.21828      0              3547.1335      45.760382      20.047001      20.857         19133.345      3785.5321      4262.434       2593.4344     -1124.0259     -147.13508      134.56106    
  28998500   240.71799     -358.51174     -287.97349     -358.51128      0              5119.2424      45.842209      20.047001      20.857         19167.558      5909.5457      4489.6855      4958.4959      173.02184     -617.74955     -266.59783    
  28999000   240.09596     -358.423       -288.06702     -358.42039      0              1242.4685      46.05164       20.047001      20.857         19255.126     -1553.1613      2608.0332      2672.5335      1142.5049     -380.63104     -33.337887    
  28999500   244.83833     -357.94545     -286.19981     -357.93207      0              5063.6933      46.018426      20.047001      20.857         19241.238      5320.0374      4933.0709      4937.9714     -481.94813      806.47366      578.13734    
  29000000   253.31617     -358.55187     -284.32194     -358.54011      0              5580.1684      45.996894      20.047001      20.857         19232.235      7171.1906      5273.5297      4295.7848      61.952862      463.9941       399.84806    
  29000500   244.69622     -357.01674     -285.31274     -357.00971      0              3546.3686      46.04036       20.047001      20.857         19250.409      3848.2828      3536.8263      3253.9966      829.34084     -397.86135     -576.21751    
  29001000   249.56114     -357.75147     -284.62189     -357.74791      0              6976.326       46.048898      20.047001      20.857         19253.979      6498.1661      7038.1465      7392.6655      67.639065      1382.9209     -12.687111    
  29001500   247.84989     -358.27695     -285.64882     -358.27154      0              5484.0431      45.925441      20.047001      20.857         19202.359      5115.4398      7160.4084      4176.2812      759.11616      799.89555     -259.47223    
  29002000   245.42898     -360.00845     -288.08972     -360.00127      0              6433.27        45.53357       20.047001      20.857         19038.51       6462.8974      7295.2226      5541.6898      650.34804      2291.4589      583.74599    
  29002500   253.0775      -360.50101     -286.34101     -360.49464      0              4820.1271      45.615842      20.047001      20.857         19072.91       4113.6709      5533.5165      4813.194       905.61431     -1995.7856      612.68238    
  29003000   252.33053     -358.80957     -284.86846     -358.80255      0              3040.2125      46.157064      20.047001      20.857         19299.205      3139.9105      3887.0874      2093.6396      1065.7693     -222.74395     -508.54676    
  29003500   252.34539     -359.90832     -285.96286     -359.90111      0              4693.4243      46.00495       20.047001      20.857         19235.603      5398.4856      3834.0842      4847.7031     -388.10408     -517.84173     -755.63872    
  29004000   247.54731     -361.34487     -288.8054      -361.3435       0              3564.8507      45.844555      20.047001      20.857         19168.539      5267.614       2564.3803      2862.5578      1100.6639     -580.16854      930.22425    
  29004500   247.93347     -359.13461     -286.48199     -359.13027      0              3910.4947      45.606962      20.047001      20.857         19069.197      4783.376       2579.6309      4368.4773     -661.88819     -777.70018     -2806.518     
  29005000   247.64618     -360.01432     -287.44588     -359.99921      0              5220.1861      45.740806      20.047001      20.857         19125.16       7331.0033      5153.9841      3175.571      -880.15225      87.990592     -509.34117    
  29005500   251.44984     -359.06808     -285.38505     -359.06141      0              2916.9933      45.838385      20.047001      20.857         19165.959      552.15608      4045.9433      4152.8806      729.18131     -404.68948     -1013.3791    
  29006000   246.01545     -357.73264     -285.64206     -357.73614      0              5608.0235      45.825206      20.047001      20.857         19160.449      6413.4318      4858.2064      5552.4324      88.337567     -1420.3291      166.02451    
  29006500   255.87062     -358.87747     -283.899       -358.87034      0              3997.6399      45.708296      20.047001      20.857         19111.567      4811.1424      3949.7682      3232.0092     -429.10264      772.23668     -1914.9537    
  29007000   247.45863     -356.51564     -284.00215     -356.5567       0              5417.5157      45.771825      20.047001      20.857         19138.129      4841.7772      6210.7843      5199.9858     -1830.6749      554.64508      581.94833    
  29007500   248.88559     -357.33313     -284.4015      -357.32653      0              3862.0123      45.994554      20.047001      20.857         19231.257      2964.0756      5320.2372      3301.7242      241.24009      1230.9478     -719.98333    
  29008000   251.628       -358.59181     -284.85656     -358.58765      0              5207.9469      45.863219      20.047001      20.857         19176.343      5040.5529      5337.5173      5245.7706     -289.107       -1376.7743     -1334.2205    
  29008500   254.39019     -358.99055     -284.44589     -358.98488      0              4017.9622      45.761789      20.047001      20.857         19133.933      3279.1845      5165.724       3608.9779     -143.56974     -32.702388      1685.3515    
  29009000   245.61233     -360.39871     -288.42626     -360.39283      0              5131.1494      45.714242      20.047001      20.857         19114.053      5995.0325      5619.0696      3779.3462      271.93118      237.04551     -662.4657     
  29009500   242.13779     -358.28108     -287.32678     -358.26988      0              2198.7312      45.569759      20.047001      20.857         19053.641      2920.4744      3611.1787      64.540464     -749.36496     -1056.6831      700.17874    
  29010000   249.181       -359.29094     -286.27275     -359.29196      0              4735.907       45.316333      20.047001      20.857         18947.679      5947.1609      2963.1713      5297.3888      758.43527      1060.2468      109.78241    
  29010500   249.98524     -360.1863      -286.93243     -360.18007      0              3280.7085      45.575077      20.047001      20.857         19055.865      1178.5203      5418.1557      3245.4495     -1339.2612      381.99961     -569.61973    
  29011000   245.24681     -359.15917     -287.29383     -359.15933      0              4546.518       45.756448      20.047001      20.857         19131.7        6352.8813      3477.1661      3809.5065     -687.51569      694.07924      2235.8214    
  29011500   249.92395     -356.89355     -283.65764     -356.88714      0              3948.4549      45.70891       20.047001      20.857         19111.823      4230.9601      5584.5223      2029.8824      538.76981     -1400.6662      812.84418    
  29012000   252.47094     -359.0611      -285.07885     -359.05302      0              4664.5392      45.646298      20.047001      20.857         19085.644      3827.2389      5581.5748      4584.8039     -433.47182     -1200.1155      800.61237    
  29012500   248.28045     -359.37629     -286.62199     -359.36212      0              4743.2284      45.423305      20.047001      20.857         18992.406      4360.9084      4880.8395      4987.9373     -554.4318      -980.28593     -575.32415    
  29013000   241.52278     -357.31473     -286.54065     -357.30593      0              3012.8517      45.474828      20.047001      20.857         19013.949      2974.9621      4266.1555      1797.4377     -1025.1917     -1061.3447     -1826.581     
  29013500   249.5428      -361.97872     -288.8545      -361.96919      0              3693.6466      45.533817      20.047001      20.857         19038.613      2983.657       4438.4157      3658.8669     -753.22956      275.57033      1462.6734    
  29014000   243.01091     -360.34521     -289.13505     -360.34716      0              4460.7498      45.803627      20.047001      20.857         19151.426      3390.5257      6016.7121      3975.0116     -149.11104     -89.655804      1420.0772    
  29014500   245.35148     -360.00391     -288.10789     -359.99456      0              4649.3093      45.69154       20.047001      20.857         19104.561      3673.5504      4721.4492      5552.9283      445.95006     -342.70016      791.3875     
  29015000   249.38583     -359.77145     -286.69324     -359.76174      0              3922.023       45.478365      20.047001      20.857         19015.427      6735.358       1853.9597      3176.7513     -554.28053     -1378.6716      1921.6634    
  29015500   254.92265     -359.37436     -284.67367     -359.3679       0              5826.2181      45.512904      20.047001      20.857         19029.869      8314.1565      4808.9656      4355.5323      254.45526     -5.7466913     -225.12704    
  29016000   247.50877     -358.96928     -286.4411      -358.96278      0              4035.8753      46.057989      20.047001      20.857         19257.78       3755.0769      4783.3532      3569.1958     -1605.6211     -465.18658     -1247.5052    
  29016500   243.6759      -360.0901      -288.68508     -360.08568      0              3462.017       46.105657      20.047001      20.857         19277.711      2674.2306      2580.2649      5131.5555      1121.2011      666.16974      679.62014    
  29017000   248.58502     -359.52855     -286.685       -359.51963      0              6684.5365      45.571319      20.047001      20.857         19054.294      7963.2672      6477.5721      5612.7703      339.11057      329.66277     -105.77529    
  29017500   248.7424      -356.24576     -283.35609     -356.23194      0              5264.5228      45.664994      20.047001      20.857         19093.461      4737.5563      5195.335       5860.6772      1246.2943     -1170.2214     -1456.3146    
  29018000   256.57594     -361.35564     -286.17049     -361.35209      0              5670.4336      45.958517      20.047001      20.857         19216.189      4252.4002      7267.895       5491.0056     -123.93807      1041.9977      1235.6467    
  29018500   251.0372      -358.79424     -285.23212     -358.79673      0              4284.4504      46.22322       20.047001      20.857         19326.866      3376.0262      4920.9352      4556.3897      1599.177      -575.40564      756.31669    
  29019000   239.28374     -359.78566     -289.66768     -359.77969      0              4159.0766      46.057311      20.047001      20.857         19257.497      6121.6555      2185.7686      4169.8058      409.9636      -444.10157     -1594.9749    
  29019500   248.5504      -361.80951     -288.9761      -361.8044       0              2721.8241      45.805525      20.047001      20.857         19152.22       3836.7708      1763.9723      2564.7293      562.29849      82.244913     -630.97281    
  29020000   256.57515     -363.21277     -288.02785     -363.20318      0              4687.4789      46.010564      20.047001      20.857         19237.951      7351.462       3238.5833      3472.3916     -70.427134     -1277.2576     -196.80117    
  29020500   242.81468     -360.57332     -289.42066     -360.56092      0              3302.3228      46.171792      20.047001      20.857         19305.364      2434.4421      6301.8202      1170.706       236.60202     -187.38654     -625.7272     
  29021000   252.37086     -361.00021     -287.04728     -360.99332      0              3726.8096      45.885985      20.047001      20.857         19185.862      6005.4914      1799.6584      3375.279       978.46299     -1233.2716     -820.69628    
  29021500   249.56888     -357.98795     -284.8561      -357.97353      0              2903.7467      45.953259      20.047001      20.857         19213.99       4749.1892      1935.1139      2026.937       108.72597      2361.5051      454.81743    
  29022000   244.22636     -363.35453     -291.78821     -363.3525       0              3776.1881      45.869519      20.047001      20.857         19178.977      3552.9168      4005.636       3770.0117     -247.76596     -373.92066     -394.30632    
  29022500   241.92033     -362.45481     -291.56423     -362.44118      0              2835.5142      45.938693      20.047001      20.857         19207.9        3614.6754      2804.7877      2087.0794      707.63561      2618.0395      1877.145     
  29023000   254.09341     -361.36517     -286.90747     -361.36859      0              5460.0996      45.850059      20.047001      20.857         19170.84       6127.5502      3341.0004      6911.7484     -564.675        1866.1685      234.5431     
  29023500   254.74043     -359.27617     -284.62888     -359.26117      0              3714.5477      45.684744      20.047001      20.857         19101.719      3686.7087      3263.7176      4193.2167      362.35014      149.16952     -480.48294    
  29024000   248.55034     -359.5964      -286.76301     -359.58375      0              7121.2642      45.758972      20.047001      20.857         19132.755      4446.1145      9734.7685      7182.9097     -638.19823     -1462.2938     -979.70801    
  29024500   250.47019     -359.65792     -286.26195     -359.6549       0              4867.9931      45.978492      20.047001      20.857         19224.541      7668.6685      2675.1655      4260.1453      130.11177      1471.0054     -182.98147    
  29025000   244.42006     -357.97255     -286.34947     -357.96631      0              3460.4452      45.954159      20.047001      20.857         19214.367      2043.9741      4487.4331      3849.9285      1059.581      -77.246326     -1176.708     
  29025500   249.57052     -356.89316     -283.76082     -356.88053      0              6041.5763      45.862613      20.047001      20.857         19176.089      9171.85        3348.5599      5604.3188      508.01321      77.593376      730.21827    
  29026000   248.11088     -359.32284     -286.61823     -359.31566      0              2631.4156      45.959818      20.047001      20.857         19216.733      3148.8785      1794.2649      2951.1033     -197.96561      835.168       -358.68833    
  29026500   249.29827     -360.69492     -287.64237     -360.68641      0              5795.4258      45.762987      20.047001      20.857         19134.434      10246.557      3378.9857      3760.7346     -849.31168      1448.2558     -1110.032     
  29027000   246.18349     -359.44334     -287.30352     -359.43645      0              3990.5982      45.693215      20.047001      20.857         19105.261      4914.0788      3702.9483      3354.7675     -193.51075     -876.75714     -1820.3765    
  29027500   250.13954     -355.043       -281.74392     -355.03328      0              3522.8185      45.957846      20.047001      20.857         19215.908      2851.7674      3889.6012      3827.0869      1355.8526      790.29754      320.31813    
  29028000   250.98269     -359.7496      -286.20346     -359.77878      0              2505.3767      46.224494      20.047001      20.857         19327.399      2464.4784      1633.9528      3417.6989     -602.32759      153.55338     -529.67368    
  29028500   252.94051     -356.75607     -282.63622     -356.74114      0              3974.8979      46.114747      20.047001      20.857         19281.512      3350.495       4767.0935      3807.1053     -545.61376     -334.11711      2162.9868    
  29029000   249.28385     -359.0677      -286.01937     -359.05474      0              3671.9914      45.981727      20.047001      20.857         19225.894      4984.0189      1688.1469      4343.8082      1225.62        191.7046      -1160.5024    
  29029500   247.37154     -359.72945     -287.24148     -359.72484      0              4240.9706      46.017523      20.047001      20.857         19240.86       3182.4473      5884.2504      3656.2142      1678.6345      118.97608      743.69208    
  29030000   249.57057     -361.17348     -288.04113     -361.15885      0              5786.7052      45.979207      20.047001      20.857         19224.84       6012.1679      4209.9673      7137.9804      739.75901      1372.6864     -281.74923    
  29030500   253.5139      -359.61035     -285.32247     -359.59522      0              4877.9995      45.827384      20.047001      20.857         19161.359      4298.2061      4980.5486      5355.2438     -501.62994     -2092.8027      571.41401    
  29031000   253.30826     -358.13522     -283.9076      -358.12591      0              5141.6962      45.962497      20.047001      20.857         19217.853      6801.2443      4251.2198      4372.6246      1260.0929      718.4776       704.72066    
  29031500   257.69759     -359.08088     -283.56705     -359.06963      0              5246.2178      46.174828      20.047001      20.857         19306.633      5719.8905      5320.8181      4697.9448      630.44458      296.80207      1415.2444    
  29032000   254.04817     -357.83909     -283.39466     -357.83363      0              4702.0089      45.833455      20.047001      20.857         19163.898      5645.8921      3342.1279      5118.0066     -410.70387      255.21222     -2482.0738    
  29032500   257.43722     -360.61869     -285.18115     -360.61324      0              4510.5134      45.743919      20.047001      20.857         19126.461      5763.2269      5659.3706      2108.9426      601.53408      1250.348      -869.45274    
  29033000   256.54504     -361.40182     -286.22572     -361.38712      0              4117.3644      46.010612      20.047001      20.857         19237.971      4913.1115      2835.0828      4603.8989      377.7384       467.34407     -478.3657     
  29033500   247.89408     -359.81411     -287.17303     -359.81155      0              4527.3228      46.183736      20.047001      20.857         19310.357      3637.6811      4801.3156      5142.9718      723.29234      826.12926      385.38908    
  29034000   253.61775     -359.16783     -284.84952     -359.15286      0              4942.7614      46.015213      20.047001      20.857         19239.895      7007.3663      1605.1664      6215.7515      73.891191     -377.36876      1306.5569    
  29034500   249.78429     -358.51252     -285.31754     -358.50037      0              5141.0225      46.006589      20.047001      20.857         19236.289      5878.3516      3904.386       5640.3299      501.87632     -1034.3801      3348.9176    
  29035000   243.55416     -357.91893     -286.54959     -357.91976      0              5874.741       45.740471      20.047001      20.857         19125.019      5929.9646      5727.8344      5966.424      -1314.9863     -365.20616      274.41775    
  29035500   245.27281     -360.34626     -288.47329     -360.34599      0              2951.2162      45.832888      20.047001      20.857         19163.661      3684.8508      1335.1269      3833.671      -1095.8549      176.22832     -1180.8225    
  29036000   251.69245     -360.5831      -286.82897     -360.57464      0              6325.4767      46.111488      20.047001      20.857         19280.149      4817.1828      6985.726       7173.5213     -441.90882      619.15494      1225.9869    
  29036500   245.93587     -358.58497     -286.51771     -358.5828       0              3129.8873      46.244887      20.047001      20.857         19335.926      3597.6708      2624.3647      3167.6264      427.84831      513.70427     -1291.8164    
  29037000   249.83436     -360.66769     -287.45804     -360.65591      0              1157.7489      46.126505      20.047001      20.857         19286.428      4501.6328     -873.69209     -154.69402      835.9404      -552.30586     -1251.6093    
  29037500   250.98866     -358.05564     -284.50774     -358.04208      0              3649.7256      45.779827      20.047001      20.857         19141.475      3318.6526      5152.0645      2478.4597      575.09255      690.02877      187.1103     
  29038000   250.44436     -360.37617     -286.98778     -360.36115      0              5008.043       46.019317      20.047001      20.857         19241.611      6865.3773      4328.8403      3829.9116      69.802701      326.3502       26.455276    
  29038500   242.67385     -359.62364     -288.51226     -359.61672      0              3198.3871      46.156135      20.047001      20.857         19298.817      3209.2295      4115.6567      2270.2749      1334.1045      9.5775431      861.9981     
  29039000   245.52262     -360.12912     -288.18295     -360.12125      0              5282.3078      46.141975      20.047001      20.857         19292.896      5648.7772      6022.9848      4175.1614      855.13294      1054.0757      704.73586    
  29039500   244.55553     -359.90226     -288.23948     -359.89787      0              5527.1128      45.790074      20.047001      20.857         19145.759      4687.1742      5759.9354      6134.2289     -1318.8911     -1663.8432     -977.09752    
  29040000   251.58864     -358.51832     -284.79461     -358.50435      0              4042.221       46.061562      20.047001      20.857         19259.274      5015.0653      1543.9257      5567.6721      34.226727      1287.3697      1149.9158    
  29040500   253.80218     -360.95534     -286.58299     -360.94442      0              2281.745       46.356163      20.047001      20.857         19382.453      1281.9142      2547.9967      3015.324       388.86201      43.885695     -811.63561    
  29041000   255.74437     -359.39665     -284.45517     -359.3849       0              4076.9615      46.034007      20.047001      20.857         19247.753      6869.5398      1922.7081      3438.6366      633.17265      173.82018      924.55279    
  29041500   248.22511     -359.95284     -287.21475     -359.9411       0              4363.9795      46.065961      20.047001      20.857         19261.113      5800.532       4020.4293      3270.9773     -1382.7927      1314.541      -376.36869    
  29042000   242.63246     -358.08746     -286.98821     -358.07946      0              4590.8678      46.096921      20.047001      20.857         19274.058      6615.8369      3458.5627      3698.2038      2169.1844     -1901.1037      164.69176    
  29042500   249.57749     -361.71442     -288.58005     -361.71028      0              4733.8942      46.089411      20.047001      20.857         19270.918      5293.2422      4917.063       3991.3775      479.84789      1751.741      -1208.3122    
  29043000   248.5765      -359.22883     -286.38778     -359.22618      0              5222.0772      46.0587        20.047001      20.857         19258.077      7229.7824      3497.7339      4938.7153     -913.71898     -20.174756     -2097.2847    
[...]
  30013000   247.52461     -356.06558     -283.53277     -356.05292      0              2408.01        46.460371      20.047001      20.857         19426.024      3558.8245      2288.1276      1377.078       631.9654      -1183.0691     -1342.8991    
  30013500   253.43772     -356.31822     -282.05267     -356.30717      0              5685.3396      46.23534       20.047001      20.857         19331.934      7264.5972      3581.5328      6209.8889     -441.82823      1214.0862     -870.71302    
  30014000   252.52056     -358.37672     -284.37993     -358.36945      0              2791.5736      46.381796      20.047001      20.857         19393.17       1638.6751      2828.4888      3907.557       1399.6033     -1132.2707      1215.4667    
  30014500   251.01502     -357.53282     -283.9772      -357.51948      0              5883.2562      46.24927       20.047001      20.857         19337.758      6181.7254      7126.0171      4342.0261      154.14188      1194.7972     -458.66183    
  30015000   255.00856     -357.17607     -282.45021     -357.16407      0              6409.3476      46.168913      20.047001      20.857         19304.16       6951.3762      6503.0665      5773.6003      29.004393      493.03061     -54.698012    
  30015500   255.32822     -357.65494     -282.8354      -357.64257      0              1646.8806      46.295508      20.047001      20.857         19357.092      55.330746      1937.0579      2948.2532     -639.83888     -48.324334      316.04265    
  30016000   254.12325     -358.4227      -283.95627     -358.41261      0              5276.459       46.24228       20.047001      20.857         19334.836      6570.185       3493.3168      5765.8754      173.59687     -665.05691     -1545.3818    
  30016500   248.42184     -356.7844      -283.98867     -356.77169      0              5020.6511      45.828278      20.047001      20.857         19161.733      7164.8507      2188.2439      5708.8586      95.774964     -336.75616     -858.83026    
  30017000   247.86547     -357.96291     -285.33021     -357.95047      0              3148.5881      45.880643      20.047001      20.857         19183.628      4987.74        1732.0989      2725.9254      334.01559     -808.09022      662.69262    
  30017500   241.23967     -356.74998     -286.05885     -356.73742      0              4302.7978      46.15186       20.047001      20.857         19297.029      3497.9935      4899.8646      4510.5353      724.97346     -595.95352     -229.05702    
  30018000   243.48896     -357.12178     -285.77154     -357.10885      0              6027.717       45.815835      20.047001      20.857         19156.531      7228.149       5903.5381      4951.4639      1563.7231     -734.04624     -1541.1607    
  30018500   239.45252     -357.03533     -286.8679      -357.02484      0              5118.9298      46.023278      20.047001      20.857         19243.267      4893.0351      5821.4502      4642.3042      435.01679      223.44647     -811.74438    
  30019000   245.90065     -358.50069     -286.44375     -358.49575      0              3774.2873      46.04436       20.047001      20.857         19252.081      2610.1544      4422.116       4290.5917     -264.15798     -1195.2652      1101.8601    
  30019500   247.41741     -355.33579     -282.83439     -355.32364      0              1812.7435      45.984645      20.047001      20.857         19227.114      2201.3798      982.32304      2254.5278      616.26826     -405.1595      -547.2207     
  30020000   254.57974     -357.42465     -282.82446     -357.41148      0              3462.5201      46.098719      20.047001      20.857         19274.81       3555.0668      3091.2025      3741.2912      745.63425      825.12203     -900.88377    
  30020500   248.82444     -359.82251     -286.9088      -359.81118      0              5636.1642      46.164126      20.047001      20.857         19302.158      5725.1227      6527.388       4655.982       1256.2928     -767.68603      226.03421    
  30021000   244.14795     -359.33418     -287.79083     -359.32082      0              4753.7358      46.107288      20.047001      20.857         19278.393      5075.9656      3963.9729      5221.269      -1726.5075     -2608.1625     -688.49656    
  30021500   246.18182     -356.6575      -284.51816     -356.6457       0              5208.8013      45.881806      20.047001      20.857         19184.114      7740.2752      5293.3735      2592.7553     -171.2917       1288.3694      1517.9719    
  30022000   245.43921     -357.6191      -285.69737     -357.61418      0              5640.8005      46.011596      20.047001      20.857         19238.382      6647.1109      5698.1639      4577.1266     -1303.274      -406.20534     -412.54553    
  30022500   250.87914     -357.84085     -284.32505     -357.82951      0              2031.9295      46.393545      20.047001      20.857         19398.083      1887.379       3327.4842      880.92541     -1533.9324      284.95228      1253.5446    
  30023000   256.76231     -358.00358     -282.76381     -358.00378      0              5915.7684      45.989158      20.047001      20.857         19229          6715.7854      5249.5502      5781.9696      840.18271      2307.4063      584.48581    
  30023500   245.27316     -356.17843     -284.30536     -356.16507      0              6187.1498      45.71434       20.047001      20.857         19114.094      8014.1516      7334.2676      3213.03       -44.983796      756.58024      372.03407    
  30024000   256.05937     -356.62193     -281.58815     -356.61406      0              4918.7952      46.036954      20.047001      20.857         19248.985      6010.6934      3129.3918      5616.3004     -748.91446     -580.10761      614.98703    
  30024500   252.43199     -357.83295     -283.86211     -357.81963      0              3503.2462      46.33864       20.047001      20.857         19375.126      3440.3071      5614.1352      1455.2962      987.21765      736.90332     -1781.6432    
  30025000   252.33972     -355.95164     -282.00784     -355.94027      0              4123.8188      45.997425      20.047001      20.857         19232.457      4198.3237      2921.6325      5251.5003      1000.2502      1784.3751      1163.066     
  30025500   245.39765     -358.93116     -287.02162     -358.92818      0              3965.9708      45.64362       20.047001      20.857         19084.524      5341.5522      1196.3235      5360.0367      1174.2303      808.77961     -961.2899     
  30026000   247.60675     -357.34753     -284.79064     -357.33566      0              3047.1839      45.867318      20.047001      20.857         19178.057      5893.2588      2056.7729      1191.52       -1554.438       827.00757     -132.23078    
  30026500   245.15725     -357.29864     -285.45954     -357.287        0              6271.74        46.184043      20.047001      20.857         19310.486      6890.7384      6866.5389      5057.9428      301.36844     -189.58472     -521.51874    
  30027000   251.86328     -357.11076     -283.30657     -357.0974       0              5034.6366      46.038543      20.047001      20.857         19249.65       6544.9231      4253.9849      4305.002      -1110.4416      930.5699      -1951.6621    
  30027500   255.06443     -358.76421     -284.02198     -358.75197      0              3968.7918      45.817227      20.047001      20.857         19157.113      5466.5036      3456.5368      2983.3349      899.59776      1387.8926     -779.06109    
  30028000   245.80267     -357.81422     -285.78599     -357.80118      0              3883.024       45.881451      20.047001      20.857         19183.966      3650.1136      6629.2465      1369.712       821.99734      860.45594      392.97574    
  30028500   247.99698     -358.48936     -285.81812     -358.47811      0              4725.0507      45.919627      20.047001      20.857         19199.928      8185.528       1361.5171      4628.1071      93.670582     -170.53523      14.976408    
  30029000   246.77341     -357.78868     -285.47599     -357.77536      0              3601.3612      46.22731       20.047001      20.857         19328.577      7779.9707      1605.2655      1418.8474      97.211807      1113.6921      212.76924    
  30029500   249.50752     -357.72929     -284.61542     -357.71603      0              4832.0156      46.111149      20.047001      20.857         19280.007      6239.6467      3151.5432      5104.8569     -766.89401     -728.13114     -667.99758    
  30030000   252.44882     -358.02168     -284.04591     -358.00981      0              5887.04        46.047391      20.047001      20.857         19253.349      4996.539       9796.1368      2868.4443      1292.0269      833.03014      1231.7034    
  30030500   252.02696     -356.43913     -282.58698     -356.42777      0              3951.8913      46.077165      20.047001      20.857         19265.798      6133.8807      1768.3725      3953.4207      207.53058     -260.41069     -97.628646    
  30031000   249.65761     -358.06632     -284.90847     -358.05453      0              5831.1688      46.098098      20.047001      20.857         19274.551      7126.4212      6828.5137      3538.5715      160.82684      1808.1741     -1557.8073    
  30031500   258.24093     -358.27412     -282.60107     -358.26339      0              3267.9535      46.103492      20.047001      20.857         19276.806      3250.3225      2597.3966      3956.1415     -889.2514       454.52661     -410.74948    
  30032000   246.02048     -357.21394     -285.12189     -357.20211      0              6114.4398      45.982613      20.047001      20.857         19226.264      6869.092       4820.7315      6653.4959      1078.9904      1047.8256     -1793.7127    
  30032500   249.34301     -358.81588     -285.75021     -358.8035       0              3626.4034      46.009255      20.047001      20.857         19237.403      3237.1673      3752.9084      3889.1345     -493.28801     -1607.2609      6.4160878    
  30033000   247.6071      -358.16559     -285.60861     -358.15239      0              7151.8446      46.131768      20.047001      20.857         19288.629      8397.1262      5627.8622      7430.5455      796.9788       1463.2774      1184.6277    
  30033500   249.36713     -358.36938     -285.29664     -358.36229      0              2754.0644      46.230285      20.047001      20.857         19329.821      689.10486      5577.628       1995.4604     -1119.4339      19.515415     -1117.1986    
  30034000   236.89078     -356.9808      -287.56404     -356.9732       0              4940.6002      45.855777      20.047001      20.857         19173.231      7336.2791      2215.6252      5269.8963     -1724.3415      1375.4115     -1780.4864    
  30034500   242.89107     -359.15816     -287.98313     -359.14604      0              5282.2193      45.77647       20.047001      20.857         19140.071      6852.799       6285.9087      2707.9502      866.46615      370.28472      735.40312    
  30035000   251.49045     -359.51894     -285.824       -359.50746      0              4508.8141      46.171283      20.047001      20.857         19305.151      6222.2288      4075.977       3228.2365      490.95947     -1553.5006     -757.76157    
  30035500   249.98139     -359.61413     -286.3614      -359.60083      0              2957.1864      46.49374       20.047001      20.857         19439.977      4723.0139      1838.0921      2310.4531     -261.21773     -50.098961      461.15648    
  30036000   246.40907     -358.05506     -285.84913     -358.04222      0              3364.2512      46.303949      20.047001      20.857         19360.621      5289.6916      4815.3765     -12.31462      -508.72307     -754.75494      1557.6474    
  30036500   246.25676     -359.32326     -287.16196     -359.31738      0              2908.707       46.012011      20.047001      20.857         19238.556      6279.9616      2921.5422     -475.38287      81.24065       223.58319      733.93192    
  30037000   247.17733     -355.25209     -282.82103     -355.24162      0              4802.5857      46.102916      20.047001      20.857         19276.565      8182.9452      3814.0358      2410.776      -81.631295      50.268525     -1106.5538    
  30037500   257.29216     -356.30702     -280.91199     -356.29584      0              4018.2237      46.415231      20.047001      20.857         19407.15       4139.9971      5088.6678      2826.0063     -383.8951       927.64453     -223.9948     
  30038000   255.31854     -356.91351     -282.09682     -356.90088      0              2955.0008      46.57537       20.047001      20.857         19474.108      3590.2411      1540.1608      3734.6004     -455.51424     -961.23475      734.69583    
  30038500   250.3786      -357.00204     -283.63291     -356.99018      0              2424.8632      46.355449      20.047001      20.857         19382.154      3693.8226      2980.2331      600.53386     -193.6087       1367.8822     -358.72915    
  30039000   255.93581     -358.96529     -283.96771     -358.9627       0              5278.439       46.074051      20.047001      20.857         19264.496      7972.23        4809.8736      3053.2135     -419.47388      1126.4559     -769.63871    
  30039500   242.78411     -356.9423      -285.79861     -356.93056      0              3430.9625      46.112363      20.047001      20.857         19280.515      3558.1926      4568.2755      2166.4194     -79.094605      232.84846     -1803.872     
  30040000   251.96904     -359.38171     -285.54653     -359.37026      0              4046.4941      46.236574      20.047001      20.857         19332.45       1668.3425      6955.9988      3515.1412      84.317106      2239.2727     -1088.284     
  30040500   254.20302     -357.69193     -283.20212     -357.67984      0              3894.5383      46.17854       20.047001      20.857         19308.185      4526.2501      3221.6512      3935.7137      237.04583      1680.0677      616.95599    
  30041000   256.01674     -357.81604     -282.79475     -357.81385      0              6065.0305      46.033232      20.047001      20.857         19247.429      7077.107       4851.4369      6266.5477     -1259.3459      1154.7079      14.846693    
  30041500   254.62153     -358.21154     -283.5991      -358.20012      0              3241.4162      46.183755      20.047001      20.857         19310.366      2487.6473      3382.6042      3853.9971     -193.31698     -373.64974     -1675.328     
  30042000   246.68313     -356.72079     -284.43456     -356.7075       0              4407.3091      46.382803      20.047001      20.857         19393.591      4241.819       5333.1311      3646.9772      1555.5458     -1002.3053      1051.062     
  30042500   246.18518     -359.42671     -287.28639     -359.41503      0              4405.6365      46.234653      20.047001      20.857         19331.647      3734.549       7172.7038      2309.6567     -816.37504      706.09923      612.89049    
  30043000   250.84936     -357.25826     -283.75119     -357.24594      0              5529.863       45.971803      20.047001      20.857         19221.744      7360.6827      6263.0933      2965.8128      784.51512     -120.39        -45.462203    
  30043500   247.01791     -356.96931     -284.58498     -356.95893      0              4792.0419      46.355196      20.047001      20.857         19382.048      5515.901       4371.1422      4489.0826     -863.29759     -551.17966     -498.91703    
  30044000   251.63018     -359.10328     -285.36739     -359.09134      0              4219.8354      46.347575      20.047001      20.857         19378.862      6638.6872      4461.2477      1559.5714      340.60306      698.30387     -1482.9829    
  30044500   245.92992     -358.69588     -286.63036     -358.68406      0              4408.9242      45.952549      20.047001      20.857         19213.693      5137.112       2581.2502      5508.4105     -699.01474      2253.4805     -217.00949    
  30045000   243.69036     -355.87721     -284.46795     -355.86446      0              2329.7681      46.099334      20.047001      20.857         19275.067      5552.352       770.76084      666.19158      2067.8087     -251.0182      -1888.4915    
  30045500   249.44965     -357.05324     -283.95632     -357.04505      0              3969.9626      46.375881      20.047001      20.857         19390.697      4889.0653      2321.2187      4699.6039     -1701.3019      187.87875     -905.89424    
  30046000   247.66009     -355.53599     -282.96348     -355.52627      0              3933.9809      46.390927      20.047001      20.857         19396.988      3129.9181      6186.4956      2485.5289      924.12226     -1770.4907     -266.90284    
  30046500   249.92151     -354.75423     -281.51904     -354.74191      0              5717.087       46.171996      20.047001      20.857         19305.449      6646.4183      5334.6334      5170.2094     -685.16321     -155.95144     -46.483596    
  30047000   244.31911     -360.0264      -288.4329      -360.01337      0              6311.2779      46.08903       20.047001      20.857         19270.759      7293.8303      5179.8956      6460.1078      109.50868     -785.68823      1021.1676    
  30047500   240.22877     -358.21211     -287.81722     -358.20026      0              3074.8737      46.233899      20.047001      20.857         19331.332      3561.8778      2976.0017      2686.7414      156.15812     -1951.7465      714.74503    
  30048000   241.08715     -357.41682     -286.77039     -357.40487      0              5980.2582      46.068168      20.047001      20.857         19262.036      6100.5375      6259.4266      5580.8103      618.34175      28.929121      24.661119    
  30048500   253.35277     -357.92445     -283.68379     -357.91121      0              4422.3356      45.875656      20.047001      20.857         19181.543      4699.4518      4887.2389      3680.3162     -1493.9532      345.92836     -353.73272    
  30049000   253.08432     -356.44594     -282.28395     -356.43613      0              4411.9535      46.068006      20.047001      20.857         19261.969      3722.7972      5109.2797      4403.7835      75.875264      1805.9027     -1078.7588    
  30049500   256.11396     -357.16751     -282.11773     -357.15652      0              5775.775       46.309771      20.047001      20.857         19363.055      6906.2039      7017.141       3403.9801      1154.1901     -58.858642     -2266.5193    
  30050000   255.36678     -359.14884     -284.31802     -359.14089      0              1619.9733      46.378399      20.047001      20.857         19391.75       4341.1236     -53.375983      572.17218     -569.48409      312.8248       106.66686    
  30050500   256.21538     -359.28707     -284.20757     -359.2739       0              3820.7411      45.95433       20.047001      20.857         19214.438      6036.1226      3124.4297      2301.671      -70.607529      308.9854      -725.70375    
  30051000   252.71406     -357.89948     -283.84599     -357.89105      0              7007.6628      45.801142      20.047001      20.857         19150.387      8742.2475      5729.1131      6551.6278     -330.20488     -1441.4124      229.93399    
  30051500   254.39072     -357.36673     -282.82192     -357.35512      0              1793.7821      46.154439      20.047001      20.857         19298.108      4159.5772      322.28003      899.48905      1314.5098     -997.41278     -1292.8896    
ERROR on proc 0: Cannot open restart file restart.lmp.0: Permission denied (../write_restart.cpp:233)
Last command: run             40000000 upto
