LAMMPS data file via write_data, version 29 Sep 2021, timestep = 400000

972 atoms
2 atom types

-0.12006500860737646 20.111118008608464 xlo xhi
-0.028174904576793836 20.01922790457673 ylo yhi
0.19190081870143771 20.608871181297708 zlo zhi

Masses

1 1.008
2 15.999

Atoms # full

2 0 2 0 2.030051138841688 2.628572199555335 1.1883138696374398 0 0 0
31 0 1 0 1.0257753999593442 2.276296670799147 2.642136222119134 0 0 0
32 0 2 0 0.9594343142722874 1.3477697842968424 2.953035011567335 0 0 0
33 0 2 0 1.134133421518096 2.7382250188621033 3.5035720643331016 0 0 0
5 0 2 0 3.482742508455607 0.9793324040539708 3.6090403033858536 0 0 0
16 0 1 0 3.911657394421476 3.8896563825695876 3.7862100840731894 0 0 0
1 0 1 0 2.6275151900009566 2.7543720175129423 0.4623263610625071 0 0 0
18 0 2 0 4.098499682333303 2.9367862538141867 3.5829637890180726 0 0 0
4 0 1 0 4.228760124984416 1.4197211950888724 3.09612124072774 0 0 0
35 0 2 0 4.661240576046638 2.6705107783481163 0.7778107793561221 0 0 0
36 0 2 0 6.174154967968165 2.4644214391211734 1.275833939232348 0 0 0
6 0 2 0 4.996276781492172 1.2137730198489283 3.6630649003107956 0 0 0
67 0 1 0 7.57308031696256 2.0234124300485234 2.302689218320427 0 0 0
272 0 2 0 7.8586538687644 0.27931382466325955 1.9911465761304166 0 1 0
68 0 2 0 7.632564980551131 2.648118906284999 3.0619433305524475 0 0 0
34 0 1 0 5.657247105822746 2.7802613247279298 0.5338010007399757 0 0 0
69 0 2 0 8.310645672010839 2.3010698673824352 1.7669425700888408 0 0 0
40 0 1 0 10.819078006952433 0.9957224683314545 3.3506222790710067 0 0 0
54 0 2 0 11.06734440355948 3.022752049926888 3.1687201946740924 0 0 0
41 0 2 0 9.961876322389774 1.2022882550016945 3.8511068443630476 0 0 0
266 0 2 0 10.957631117839192 0.0073918434651414 1.7446723208368904 0 1 0
42 0 2 0 11.443054944325839 0.7452422488716223 4.078841179893505 0 0 0
52 0 1 0 10.957588150034764 3.919325411217819 3.440710658263475 0 0 0
70 0 1 0 12.091072387457299 2.6149165416951647 0.5029383818687794 0 0 0
72 0 2 0 12.795954301626201 2.390583376780577 1.1373261121102751 0 0 0
84 0 2 0 14.606761019962036 3.2197417315135057 3.240876754669286 0 0 0
103 0 1 0 14.3645018434515 1.8546178808154308 1.9320265959770622 0 0 0
105 0 2 0 14.285007427945645 0.8864021036731446 2.0797067040332697 0 0 0
104 0 2 0 15.134608161730442 1.9649753444535554 1.3573911424334293 0 0 0
108 0 2 0 20.078892544393096 2.854234404088102 1.5415882323344396 0 0 0
76 0 1 0 17.676315802199536 1.527661337156895 3.1602714476950995 0 0 0
77 0 2 0 17.642072907572484 0.8540352108313245 2.4537281624298055 0 0 0
89 0 2 0 17.419774291018644 3.3783493968908314 3.485974538281746 0 0 0
107 0 2 0 18.54213348930956 2.697633156429796 1.2658075556931976 0 0 0
78 0 2 0 18.521364531656097 1.42323047553357 3.66464160367545 0 0 0
96 0 2 0 16.159137973051923 1.134599126701713 4.185858615183754 0 0 0
106 0 1 0 19.407240847850044 2.743608738672323 0.7742612962862652 0 0 0
12 0 2 0 2.3459090121721204 4.369996196504144 4.2354480192920185 0 0 0
10 0 1 0 1.3282933245236044 4.4056676350888315 4.26049070832542 0 0 0
20 0 2 0 0.7588588370389575 5.682697798790694 2.888244061809508 0 0 0
19 0 1 0 0.5763500607004719 6.082064277197601 2.0177489269612576 0 0 0
21 0 2 0 0.6094763555305329 7.020135851461673 2.219662531206915 0 0 0
675 0 2 0 1.9857331654630332 5.663195220983044 0.8859070950577435 0 0 1
131 0 2 0 2.6714612708220793 7.73693239443692 4.1812902464792625 0 0 0
673 0 1 0 2.7355764028150578 5.615666438479984 0.2537273857264904 0 0 1
14 0 2 0 4.220614444190723 6.029217304382605 1.0977325480976114 0 0 0
17 0 2 0 4.094199248214456 4.394048747418019 2.9872844649839534 0 0 0
114 0 2 0 4.567110580240707 7.578954722409001 2.6671230978942466 0 0 0
13 0 1 0 4.837477123251879 6.118759404326798 1.88301101545674 0 0 0
15 0 2 0 5.736737996181305 5.800745066273905 1.659526492123564 0 0 0
55 0 1 0 7.6422348394474655 5.788592622506298 2.0638937768460535 0 0 0
56 0 2 0 7.74842425274206 5.212646650674647 2.8703991215827696 0 0 0
46 0 1 0 7.705636010417128 4.214067997661275 4.057151790704091 0 0 0
177 0 2 0 7.324466558918577 7.694079985690154 2.0319561050103667 0 0 0
57 0 2 0 8.311270590344703 5.509927049589428 1.4300291999115244 0 0 0
51 0 2 0 11.268107406072007 4.8610022549368805 2.022855585542973 0 0 0
149 0 2 0 10.183526169338863 6.838943193308023 3.9853484633234957 0 0 0
49 0 1 0 11.411876185516233 5.529033803067863 1.3898522224752436 0 0 0
50 0 2 0 10.75770391881478 5.3787988940003375 0.6798253236988238 0 0 0
150 0 2 0 11.052598621385677 6.511475445197419 2.6487258620726744 0 0 0
148 0 1 0 11.034295947615316 7.037713088980261 3.445657641723239 0 0 0
82 0 1 0 14.626920203503015 4.125691050265053 3.690407732418379 0 0 0
83 0 2 0 14.398730768216819 4.744674370293727 3.0328766739062694 0 0 0
91 0 1 0 13.939531636015918 6.276121008955565 1.4472416289951369 0 0 0
92 0 2 0 13.68734015391935 6.936758820839369 2.1009345567602735 0 0 0
93 0 2 0 13.053754195311976 5.9212567299399375 1.345842895924666 0 0 0
747 0 2 0 15.05041893802626 5.539064937695485 0.4768205566815878 0 0 1
90 0 2 0 16.300459564728403 4.371872119097854 3.8247323190588514 0 0 0
88 0 1 0 17.274322383581524 4.298427571489935 3.7037920421790513 0 0 0
86 0 2 0 17.844716334499278 5.203995330178368 2.181607695226708 0 0 0
85 0 1 0 18.05334262031058 5.94252824343408 1.6221743575957865 0 0 0
87 0 2 0 18.98824788625361 5.699480232957358 1.405160028359037 0 0 0
185 0 2 0 17.624498510885118 7.645826491668373 2.6710656783714652 0 0 0
746 0 2 0 16.562853456069018 5.452864639444939 0.48698186601490995 0 0 1
139 0 1 0 0.41579846536831655 9.146127021441766 2.1176450291200126 0 0 0
141 0 2 0 1.1495490136211777 9.325493584806624 1.5068140790732827 0 0 0
119 0 2 0 0.7639696997611667 10.196646732158696 3.914976262738569 0 0 0
110 0 2 0 3.4670842450888997 9.34947740987972 0.42981729317454953 0 0 0
126 0 2 0 3.878786275586039 10.010800939312231 2.9816537264960417 0 0 0
124 0 1 0 3.569268306665381 10.93429655850357 3.2742210906427314 0 0 0
120 0 2 0 2.053628542026357 10.956208231164412 4.063725784485089 0 0 0
109 0 1 0 2.5002607129129455 9.50165459005365 0.2577978927053871 0 0 0
112 0 1 0 4.332964925773921 8.339658179596576 3.250851268780352 0 0 0
176 0 2 0 6.469175153952566 8.876391641502646 1.7694053763210036 0 0 0
175 0 1 0 7.362878847186201 8.642122351924813 2.063240284998237 0 0 0
142 0 1 0 5.162551550615013 9.117354214692712 0.5573783308511678 0 0 0
155 0 2 0 7.650666228371824 9.709077822206917 3.421313014327458 0 0 0
156 0 2 0 7.742815744280966 11.225060323288501 3.521467969052548 0 0 0
154 0 1 0 7.892519272232162 10.420767483504761 4.04040895206755 0 0 0
143 0 2 0 5.59740038128157 9.949589978386665 0.20212555919616268 0 0 0
122 0 2 0 4.168612092663407 11.785691188225949 2.125790299918559 0 0 0
113 0 2 0 4.798596834534669 8.226507023409297 4.076399869235173 0 0 0
125 0 2 0 4.275330634023975 11.137649532859909 3.9204944495877188 0 0 0
147 0 2 0 8.705438020424017 8.878395554039713 0.8255243548769972 0 0 0
162 0 2 0 11.013648817255513 9.08157958696588 3.508853108581764 0 0 0
179 0 2 0 10.950145857717601 8.877486215547723 0.6196537950533745 0 0 0
160 0 1 0 10.932758343844734 9.999904969047968 3.7846025838639896 0 0 0
158 0 2 0 11.11514780616219 11.577427649028442 2.523659016902771 0 0 0
178 0 1 0 11.934689043197347 8.747475420506083 0.593212323393769 0 0 0
145 0 1 0 9.424393015582856 9.221028673539 0.2299564546338309 0 0 0
161 0 2 0 10.027925912964703 10.118122867477242 4.055254471762787 0 0 0
211 0 1 0 13.966766684775514 8.7348687048891 2.5314890419512546 0 0 0
212 0 2 0 14.264538114309014 9.516647548784446 2.9901275280193627 0 0 0
213 0 2 0 13.101838028812749 9.015193697465087 2.164539661782137 0 0 0
183 0 2 0 14.952613347090576 8.616468951850596 1.0152128960959002 0 0 0
191 0 2 0 14.832610842538973 11.709268042043051 3.370940323896508 0 0 0
190 0 1 0 14.8852751136946 10.882828914024389 3.9196235689862737 0 0 0
192 0 2 0 15.84922470878817 10.77505182392577 4.131947128892515 0 0 0
855 0 2 0 15.275895487684885 11.80436352792059 0.6583215894772441 0 0 1
181 0 1 0 15.54254454757954 8.87652381214273 0.25887689525146074 0 0 0
184 0 1 0 17.413388855026373 8.18050108290139 3.4875142356069233 0 0 0
140 0 2 0 19.816855000564342 9.187814100954611 1.5616602530785155 -1 0 0
186 0 2 0 17.45046306203173 9.127907755176475 3.2456007846411623 0 0 0
196 0 1 0 17.63834901867663 10.993177918723921 4.167562159215251 0 0 0
197 0 2 0 17.707953155012024 11.551873065659574 3.383389711674091 0 0 0
216 0 2 0 17.51305878602405 8.838986117929974 0.7462930322019781 0 0 0
214 0 1 0 18.400902576612953 8.943485318174067 0.35659548392000406 0 0 0
129 0 2 0 0.7454128269357104 12.202087347259186 2.915834100281517 0 0 0
782 0 2 0 1.5591144052758266 12.476952732083259 0.7407969381396426 0 0 1
249 0 2 0 0.6083048815900144 14.502317601205268 2.5926930702451734 0 0 0
127 0 1 0 0.5388692111083881 12.614995800281156 2.0808168491440853 0 0 0
221 0 2 0 3.1187052005307057 14.54127206885031 3.6258723862231927 0 0 0
247 0 1 0 0.6501178836080941 15.447700745815117 2.4737142930209823 0 0 0
218 0 2 0 1.9193704290408702 15.879815104317457 1.3185237489360206 0 0 0
123 0 2 0 3.912353802717889 12.602062203497926 0.8849037153368986 0 0 0
220 0 1 0 4.021406102877959 14.67559582217928 3.319843801461683 0 0 0
222 0 2 0 4.225568116308888 13.995070898442528 2.716044212708732 0 0 0
121 0 1 0 4.5757909725577 12.504190293116729 1.5418489986346293 0 0 0
165 0 2 0 6.376484321109042 12.4059524372741 1.7559933935162273 0 0 0
163 0 1 0 7.265485629650252 12.502286603124583 2.083421772195508 0 0 0
164 0 2 0 7.429922531015877 13.441890128366465 2.1895119273856856 0 0 0
283 0 1 0 7.682140606616675 15.336375986676366 2.0739809321793796 0 0 0
284 0 2 0 6.839864325766996 15.499851265904464 1.6677158207826126 0 0 0
818 0 2 0 9.952608156640931 12.23823127402151 0.40722347054834096 0 0 1
819 0 2 0 8.479791920582624 12.13805751922 0.8553201925806436 0 0 1
258 0 2 0 10.039635088425872 14.68648639996676 3.7026585057904997 0 0 0
157 0 1 0 11.323236700393538 12.27040538564114 1.8451564455193719 0 0 0
159 0 2 0 11.14657868587102 13.0636877363001 2.360167134822558 0 0 0
256 0 1 0 10.806621236690324 14.532165124219622 3.121715787468903 0 0 0
257 0 2 0 11.132981859975262 15.446690941550083 2.9429540159025023 0 0 0
285 0 2 0 8.325328395576221 15.482575830796442 1.3349639293124496 0 0 0
255 0 2 0 10.365195697272997 15.496231571122648 0.2373373902326196 0 0 0
200 0 2 0 13.173747724393717 12.400229644495036 1.6974027773681453 0 0 0
199 0 1 0 14.067289579360892 12.700675286820676 1.8820867115278976 0 0 0
201 0 2 0 13.993862956679882 13.647353277806316 1.9714925672265768 0 0 0
319 0 1 0 14.140355117830657 15.465762927184839 2.0844001371333913 0 0 0
320 0 2 0 13.459234105235954 15.685539418776413 1.4061616179249457 0 0 0
286 0 1 0 12.109683543275015 15.761670859145054 0.32947073207999134 0 0 0
291 0 2 0 15.633878829886743 15.794810197490998 1.0693078412057107 0 0 0
248 0 2 0 20.09409326715793 15.63661903158382 1.8943024690530725 -1 0 0
128 0 2 0 19.8563379761015 12.376574535975875 2.013449302104788 -1 0 0
195 0 2 0 17.352263491938622 12.206179929431864 1.0237963692487122 0 0 0
193 0 1 0 18.02640603119857 12.436425116602852 1.6729427484826225 0 0 0
194 0 2 0 17.69526518854573 13.202275052881744 2.1064382501658407 0 0 0
292 0 1 0 17.25140052057906 14.9859584353455 3.0668057706974583 0 0 0
294 0 2 0 16.445501591189302 14.776515054123937 3.543522132794834 0 0 0
293 0 2 0 17.233984036099326 15.938253174317891 3.082163562351628 0 0 0
290 0 2 0 17.041728703047593 15.907509239453452 0.5923345773934898 0 0 0
289 0 1 0 16.139601140907672 15.75263614317844 0.26123325168020817 0 0 0
217 0 1 0 2.416957131403519 16.253173794352083 0.49547703139887733 0 0 0
227 0 2 0 1.1365249557033557 17.058738827114777 3.4442575859884164 0 0 0
236 0 2 0 0.9077181502181262 19.115926865537546 2.5695371465163244 0 0 0
237 0 2 0 1.1607125360126673 19.526186015903384 1.150505040064561 0 0 0
235 0 1 0 0.5604244928529097 19.7064381931058 1.92649773931668 0 0 0
226 0 1 0 1.5124365415291703 17.842379766136165 3.805337245809423 0 0 0
228 0 2 0 2.509014920183703 17.71876909348827 3.801639949457202 0 0 0
891 0 2 0 3.413505353647738 19.035336861919934 0.7272712297372945 0 0 1
889 0 1 0 2.5828535770734007 18.923712808995475 0.2657607035502688 0 0 1
890 0 2 0 2.400496142809202 17.998869797796118 0.41319525944365443 0 0 1
230 0 2 0 4.5039184630167 19.815673267910555 2.256285365834769 0 0 0
232 0 1 0 4.236284953531114 17.417389206489563 3.688438229468024 0 0 0
251 0 2 0 4.41599793524663 16.198453519696464 0.7058946765519969 0 0 0
250 0 1 0 5.391276966654597 16.202718860936365 0.7640755695715848 0 0 0
233 0 2 0 4.227045678171784 16.44264983630131 3.4720872928390705 0 0 0
234 0 2 0 4.49866884337384 17.830137839411186 2.8469513105953417 0 0 0
229 0 1 0 4.853228670980439 19.043813945831676 1.7794045984698463 0 0 0
231 0 2 0 5.782308327714127 19.14692602250283 1.6148515759006812 0 0 0
271 0 1 0 7.52116675471121 19.414530566188912 1.7073581529363302 0 0 0
273 0 2 0 7.853537990515589 18.769429412353123 2.38954656477975 0 0 0
263 0 2 0 7.8891244422092015 16.814827271296977 3.2168721643482 0 0 0
252 0 2 0 5.632337350193159 17.004311713396163 0.25309338815019616 0 0 0
262 0 1 0 8.11511772625741 17.62562591489298 3.6846283904912003 0 0 0
927 0 2 0 8.336769821116185 18.775458361142388 0.35711903033125275 0 0 1
265 0 1 0 11.087629888889795 19.242677779093363 1.2106729721869869 0 0 0
267 0 2 0 10.247552058888797 19.064024263792774 0.6551688711836092 0 0 0
268 0 1 0 11.016723239362742 17.13343908805627 3.594660254099557 0 0 0
269 0 2 0 11.002595670289612 17.644254165619497 2.7875028944435143 0 0 0
264 0 2 0 8.925110706384471 17.528384334705915 4.167470706307576 0 0 0
270 0 2 0 11.674803007260616 17.457634330504835 4.2298085187683245 0 0 0
321 0 2 0 14.238446944154944 16.140910082620103 2.7579994321815655 0 0 0
307 0 1 0 13.908945672051948 19.258880009256227 2.0511849165012297 0 0 0
308 0 2 0 12.928969153415581 19.012236829147625 1.95006815149409 0 0 0
309 0 2 0 14.217531143164832 18.695270779011867 2.7950601226427265 0 0 0
963 0 2 0 14.996999495182589 18.77442540496585 0.7292620982706352 0 0 1
300 0 2 0 15.72624486013469 17.50830024208041 4.202775449709396 0 0 0
298 0 1 0 14.787643592875156 17.271992130900273 3.9634903701528197 0 0 0
322 0 1 0 18.824776479934457 16.08877401444688 0.6305330969610021 0 0 0
301 0 1 0 18.26827244587376 19.454273115549896 1.5766630465425142 0 0 0
302 0 2 0 17.895730229421126 19.312756295264997 0.6589565711888459 0 0 0
303 0 2 0 19.2607298316819 19.521318183960204 1.413602938592223 0 0 0
306 0 2 0 17.546741205812097 18.18599892309186 2.699207752579896 0 0 0
304 0 1 0 17.341692169784693 17.578807042794313 3.429918741792696 0 0 0
305 0 2 0 18.08829880404806 17.78722636688533 4.030574350562119 0 0 0
323 0 2 0 19.22021583483295 16.96154943088135 0.4015719618797372 0 0 0
22 0 1 0 2.056244563043755 1.0806079423603203 5.1354638116889975 0 0 0
23 0 2 0 2.391574761648301 1.845235022202921 5.63629159553883 0 0 0
325 0 1 0 3.040408520980153 2.833108712923723 7.149565734923856 0 0 0
101 0 2 0 0.20045674854393475 1.0392509065790985 5.142842540448887 1 0 0
327 0 2 0 2.947674141076007 3.809928640963037 6.849099678616731 0 0 0
24 0 2 0 2.3224481656304787 0.26487080725532586 5.6009946383762435 0 0 0
357 0 2 0 0.3607790985626506 2.3328912322110367 8.207901681598333 0 0 0
326 0 2 0 4.008555769659721 2.6864898413763987 7.235034011327924 0 0 0
28 0 1 0 6.1596218995830885 0.7972412952951715 4.947456158130368 0 0 0
29 0 2 0 7.100592039243135 0.9724533908126516 4.791266128566752 0 0 0
358 0 1 0 5.846829782937274 2.5563942934856545 7.042740120064286 0 0 0
359 0 2 0 6.119731424225749 1.830319382807173 6.467234948387788 0 0 0
360 0 2 0 6.4357195550494675 2.5765061168403274 7.803825782864475 0 0 0
8 0 2 0 5.796170750134212 3.9368239578428064 6.199857078134503 0 0 0
58 0 1 0 8.840351356397669 0.9873137513830275 5.271184118422097 0 0 0
59 0 2 0 9.170820292206185 1.607295290583886 5.944208399584117 0 0 0
361 0 1 0 9.449775538563161 2.4407824784671135 7.241472809242188 0 0 0
363 0 2 0 9.226102986719496 3.3364498139182714 7.12888168330247 0 0 0
362 0 2 0 10.3423218505124 2.4425133140833086 7.58186351903549 0 0 0
53 0 2 0 11.39053709321488 3.9649681564110035 4.303881404903666 0 0 0
60 0 2 0 8.701014419808837 0.22592769364539472 5.904317316235838 0 0 0
394 0 1 0 12.219112811782601 2.3070686592952 7.627389816662067 0 0 0
396 0 2 0 12.371990326203777 3.169551812596285 7.214419684019682 0 0 0
66 0 2 0 12.418407720739639 1.027689128065557 6.338594937452798 0 0 0
64 0 1 0 12.58143982005748 0.48475593786543336 5.50283882621478 0 0 0
65 0 2 0 13.578647885487179 0.5639734656849478 5.475429297609394 0 0 0
395 0 2 0 13.015175656408543 2.2541726119718226 8.251994620136637 0 0 0
94 0 1 0 15.482592895562709 0.9908877466463417 4.850727826125712 0 0 0
95 0 2 0 15.661756273574886 1.628873305479536 5.538868805444557 0 0 0
399 0 2 0 16.39702064856895 3.313586475696449 6.671631315605619 0 0 0
397 0 1 0 16.372201758878493 2.3264034792076034 6.964883541727078 0 0 0
100 0 1 0 19.443095141843642 0.992854704475084 5.157148433435806 0 0 0
398 0 2 0 17.19185830417855 2.2374119321918817 7.485012317852924 0 0 0
430 0 1 0 19.017344341732638 2.8719317611269948 7.362510157224388 0 0 0
431 0 2 0 19.149850665197583 2.118147654991905 6.6840488437609205 0 0 0
432 0 2 0 19.34075827556588 3.670584027346055 6.8663554382401575 0 0 0
102 0 2 0 19.234387999368945 0.010769992202930033 5.266211645574758 0 0 0
11 0 2 0 1.0426969796170973 4.915637749052627 5.089787059156205 0 0 0
25 0 1 0 2.5089011193179043 5.53822431205248 7.010530755798729 0 0 0
26 0 2 0 2.5774303116650144 6.0708180572712545 6.188750013171633 0 0 0
27 0 2 0 3.2693615950829886 5.866954278612485 7.562110481132231 0 0 0
344 0 2 0 1.0711121425833756 5.745090356919604 7.9074396239975755 0 0 0
132 0 2 0 1.2209597964157006 7.688737907024174 4.612199955009019 0 0 0
130 0 1 0 2.1001844963931355 7.353153954434857 4.875062619988319 0 0 0
48 0 2 0 7.067086344407603 4.421341695830448 4.7688924871281255 0 0 0
9 0 2 0 4.836717169886748 4.565876736998652 5.13311235100869 0 0 0
7 0 1 0 5.603712225398347 4.807720922235173 5.7088738917249895 0 0 0
136 0 1 0 6.0449668410042605 7.594573994981742 5.537695533943059 0 0 0
137 0 2 0 5.8611110761302765 6.678975198589426 5.653188215978746 0 0 0
138 0 2 0 6.993261844313977 7.695087228408536 5.26648252032497 0 0 0
47 0 2 0 8.573053988799659 4.02602238682725 4.403471250735612 0 0 0
61 0 1 0 9.136075701295033 5.354903497992876 6.840252206834989 0 0 0
63 0 2 0 8.532737413483865 5.541683586636193 7.530552746495729 0 0 0
167 0 2 0 8.803299241604424 6.584981535789564 5.653476473464582 0 0 0
166 0 1 0 8.71900791443513 7.305225376019348 5.037519678637535 0 0 0
62 0 2 0 10.016498242667522 5.583235911772844 7.216606009689976 0 0 0
173 0 2 0 12.39477927902093 7.2682219655130185 4.559133448963471 0 0 0
44 0 2 0 13.392844695356816 4.014915383015865 5.009323900399544 0 0 0
43 0 1 0 12.647418468834227 4.186686538740406 5.655001778757395 0 0 0
174 0 2 0 13.937186305585472 7.375145991662749 5.108732765844499 0 0 0
45 0 2 0 12.750400620426248 5.092679897992723 5.906136046339952 0 0 0
172 0 1 0 13.008269748138934 7.093686308469941 5.2672965139505274 0 0 0
416 0 2 0 15.033980073782647 5.2610047061294125 7.920448172858119 0 0 0
202 0 1 0 15.875329739244302 7.195761847570798 5.352142169896708 0 0 0
417 0 2 0 13.516581401710393 5.271443077905023 8.247426401845539 0 0 0
204 0 2 0 16.41938027785824 7.366314530538208 4.623572269694662 0 0 0
99 0 2 0 16.19556492305931 5.79420363635198 6.009089103715404 0 0 0
97 0 1 0 16.193602782224577 5.027151259372776 6.664118329739919 0 0 0
81 0 2 0 18.580106425567017 4.8165857117996085 5.156807894372222 0 0 0
79 0 1 0 19.251432330384 5.152739291679712 5.744972233411472 0 0 0
80 0 2 0 19.2438298820512 6.097702881817411 5.5073795776919665 0 0 0
98 0 2 0 16.948153202382784 5.184141187449686 7.227115915833863 0 0 0
203 0 2 0 16.169705727865797 7.8094631998801605 6.015223961880462 0 0 0
118 0 1 0 1.0647392812311307 11.030768236515467 4.295710440185152 0 0 0
433 0 1 0 2.255432911645656 9.109302015723625 7.1892195639297345 0 0 0
435 0 2 0 2.0768805972555766 8.609568287925402 6.379271268251377 0 0 0
434 0 2 0 3.2043340266721905 8.947092680415151 7.3366830618980785 0 0 0
135 0 2 0 2.279729836549751 11.295695582686756 6.750382660841705 0 0 0
466 0 1 0 4.917037899517468 9.288518841641123 7.194884989882141 0 0 0
468 0 2 0 5.1149279662446325 8.490609526774339 6.617751803374427 0 0 0
467 0 2 0 5.111725463130099 10.051320670672771 6.641834500192357 0 0 0
115 0 1 0 5.457662252211682 11.334909344674873 5.159638197560616 0 0 0
116 0 2 0 6.3908942074374755 11.14874883748784 4.969293932412511 0 0 0
168 0 2 0 9.089113797995433 8.07016420057001 5.467885661011053 0 0 0
469 0 1 0 9.625100502774497 9.448058146576736 7.018942300241558 0 0 0
471 0 2 0 10.568450586523086 9.386229355819749 7.292432053457217 0 0 0
470 0 2 0 9.469452281694814 10.270661579155163 6.521225682987672 0 0 0
152 0 2 0 11.906067814140203 10.546303411980517 5.219274641224 0 0 0
500 0 2 0 8.11340794942372 9.16788378837386 8.103145448026067 0 0 0
502 0 1 0 12.410572867156581 8.692715777598035 7.404835579874506 0 0 0
503 0 2 0 12.622253525981415 8.074984735431235 6.655076527185672 0 0 0
504 0 2 0 12.780672861335049 9.49210813499211 7.023001132292969 0 0 0
507 0 2 0 15.73861653610652 8.963455627462647 8.002526262742354 0 0 0
151 0 1 0 12.689302520371841 10.891589378221333 5.6746045194641415 0 0 0
153 0 2 0 13.407618996844064 10.982320556080698 4.998025216631132 0 0 0
205 0 1 0 15.857394299876665 11.982460563291014 6.947658148652301 0 0 0
207 0 2 0 15.865399103306405 11.028378350131858 6.997982303283868 0 0 0
209 0 2 0 18.880956570311348 8.097850798924139 4.3883989679654345 0 0 0
208 0 1 0 19.691066549299464 8.075127804246014 4.993572087776698 0 0 0
210 0 2 0 19.324799940390445 8.596121066595654 5.772742840878988 0 0 0
505 0 1 0 16.3108123112432 9.271824837324129 7.258078937036343 0 0 0
198 0 2 0 18.15315184318476 11.38108025565566 4.9278987834548955 0 0 0
506 0 2 0 17.213540065355986 9.064903648327856 7.582652238872155 0 0 0
538 0 1 0 18.99346281214412 9.513018527542448 7.419395621411829 0 0 0
540 0 2 0 19.368109365528845 10.395113022558528 7.249219026733675 0 0 0
539 0 2 0 19.627108824387154 9.162830208355562 8.034758396989844 0 0 0
189 0 2 0 0.024434766764620863 12.00504117893614 5.508574047175172 1 0 0
133 0 1 0 2.5625099815358725 12.223865840895314 6.558807902502608 0 0 0
134 0 2 0 3.394045722792514 12.520635331036651 7.013531190758251 0 0 0
239 0 2 0 0.7840269059234762 14.31093466776048 4.918409886353751 0 0 0
238 0 1 0 1.7615614444824654 14.175199345623335 4.770110902388645 0 0 0
240 0 2 0 1.9177642377675115 13.389372735025274 5.32557200522752 0 0 0
453 0 2 0 1.3519555500206748 12.914529226617502 7.921548778892735 0 0 0
542 0 2 0 2.4108211739752696 15.748401657991831 5.8480627799365115 0 0 0
543 0 2 0 3.3455584615619585 15.968962869834078 7.109805618567533 0 0 0
246 0 2 0 5.123595270732789 14.432625807762676 4.655260496179792 0 0 0
117 0 2 0 5.427764486651239 12.238252676680977 5.5326143309862825 0 0 0
244 0 1 0 5.7788394966943 14.36199125335733 5.378394602540543 0 0 0
245 0 2 0 5.442574928430819 14.92929893707741 6.084397361325375 0 0 0
276 0 2 0 7.616418383198248 14.524726058458628 4.7628537878318395 0 0 0
445 0 1 0 4.656840800389676 12.9204449401646 8.211501173545653 0 0 0
574 0 1 0 5.234968512804878 16.002778130242856 7.390682782757841 0 0 0
447 0 2 0 5.629336899596315 12.825369006108138 8.279281063782577 0 0 0
169 0 1 0 9.306799779553627 12.146970276082616 6.418097360027329 0 0 0
489 0 2 0 8.072211759545013 12.363742432084198 7.806969919833872 0 0 0
170 0 2 0 8.840346371692048 12.88790239534482 5.976100742891093 0 0 0
274 0 1 0 8.592119227613892 14.453645961983339 4.974231075472591 0 0 0
275 0 2 0 8.748542045847458 15.15289610482893 5.633884301433905 0 0 0
171 0 2 0 10.099474510018629 12.608797513910156 6.831668614742217 0 0 0
578 0 2 0 8.391258142076424 15.905256320484801 7.723593117267816 0 0 0
481 0 1 0 11.259696097959806 12.54735415316984 8.214842330095392 0 0 0
611 0 2 0 10.71549589913122 15.82318148358108 7.123018562634803 0 0 0
281 0 2 0 11.769403034894726 14.121918346834105 4.493859286586815 0 0 0
612 0 2 0 11.791948553588892 14.869803856419585 6.512507847586315 0 0 0
610 0 1 0 11.636140938402285 15.572800595934286 7.14068005591207 0 0 0
206 0 2 0 14.95602863297435 12.174571889108751 7.3399796283527134 0 0 0
282 0 2 0 12.363759692087038 12.872873413162234 5.305983975972181 0 0 0
280 0 1 0 12.425247402807702 13.878774349104754 5.2085674033650795 0 0 0
311 0 2 0 14.340184983603859 14.248319280972677 5.333982161629481 0 0 0
310 0 1 0 15.320382189141078 14.174763744726992 5.151884962224043 0 0 0
312 0 2 0 15.588008334681982 13.296459076629793 5.520574079373686 0 0 0
614 0 2 0 15.906850138303405 15.565554998940883 6.041658275254144 0 0 0
645 0 2 0 14.53676290357372 15.632076465802333 8.172546996138891 0 0 0
644 0 2 0 12.94986952111448 15.593813933180641 8.201842157314584 0 0 0
187 0 1 0 19.41383984785684 12.214895534893643 5.991591113328036 0 0 0
318 0 2 0 18.48938030596247 14.823658543213494 4.429007913832608 0 0 0
188 0 2 0 19.141652548016204 13.093638637147926 5.7596623382659695 0 0 0
316 0 1 0 19.06044671306021 14.798433954379213 5.2154018174745 0 0 0
518 0 2 0 17.568990561081673 12.67053299137154 7.810305013014789 0 0 0
317 0 2 0 18.719832358648354 15.414149060721142 5.866320099592749 0 0 0
519 0 2 0 19.06365394909523 12.963739789605418 8.307894055136536 0 0 0
541 0 1 0 2.531184407315164 16.23815787913174 6.678255916769975 0 0 0
573 0 2 0 1.3226391591874416 16.02881356467876 8.0353782418083 0 0 0
241 0 1 0 2.4420018660594542 18.995354957763464 6.640829596883213 0 0 0
242 0 2 0 2.616978940605792 18.051451658223733 6.492353602363726 0 0 0
243 0 2 0 3.2139548284668864 19.358092503532458 7.142178728340036 0 0 0
560 0 2 0 1.0019218014351114 19.008975643466762 7.788794420750806 0 0 0
575 0 2 0 5.917128173896901 16.014786471111798 8.053886311136594 0 0 0
30 0 2 0 6.014145845135737 19.880149979316982 5.0359830705977515 0 -1 0
224 0 2 0 5.362850927029332 17.631700154275407 4.9434492738916775 0 0 0
223 0 1 0 6.023201568531199 17.898608326563377 5.6789477254017715 0 0 0
225 0 2 0 6.854175026262324 17.83227098617869 5.229669245762996 0 0 0
576 0 2 0 5.392857101574575 16.76458706623047 6.844122782657505 0 0 0
577 0 1 0 8.999896097315288 16.261169761546565 7.036596590859268 0 0 0
278 0 2 0 7.996431814933169 19.039311447602834 7.414740412081409 0 0 0
277 0 1 0 8.714195018542206 18.818881761627182 6.778741079601697 0 0 0
579 0 2 0 8.725929954628787 17.1810049702726 6.840109849649248 0 0 0
279 0 2 0 9.543906199493279 19.078771498379226 7.27796181666269 0 0 0
589 0 1 0 11.170115142264915 19.228131977569998 8.135397025480051 0 0 0
261 0 2 0 12.144814469653246 17.120116497225172 6.349032644839522 0 0 0
259 0 1 0 12.560301152464818 17.73214705112686 5.687228092089423 0 0 0
260 0 2 0 12.441804415072712 18.66290853639622 5.940243790636631 0 0 0
299 0 2 0 14.182429340124243 17.57252658550283 4.617599885149752 0 0 0
315 0 2 0 15.073263629084579 18.94115305036117 7.091232364638569 0 0 0
314 0 2 0 15.87315706446344 19.40851245976993 5.755188675505379 0 0 0
313 0 1 0 15.869071582228985 18.85427290320027 6.559584803013884 0 0 0
615 0 2 0 15.994426479205536 17.080432103608455 6.506175178075574 0 0 0
633 0 2 0 13.036836100003955 19.41059945716685 8.350048707871222 0 0 0
646 0 1 0 18.824371986995228 16.661686297344755 7.13433390904725 0 0 0
648 0 2 0 19.391903803144054 16.308487141269538 7.8896759281061435 0 0 0
647 0 2 0 17.871698241406428 16.395326690168368 7.359309294855371 0 0 0
297 0 2 0 20.070585656719995 18.298481506502647 4.774653603552142 0 0 0
613 0 1 0 16.176632081866774 16.161406518327354 6.753426138045777 0 0 0
295 0 1 0 19.19659102739113 18.44723623377777 5.110649104209532 0 0 0
296 0 2 0 19.064208515549364 18.063481433770363 6.043876422109586 0 0 0
627 0 2 0 17.123286138541474 19.28955650278677 7.756300122059146 0 0 0
626 0 2 0 18.658046214338892 19.591442470138446 8.208215431291643 0 0 0
356 0 2 0 1.853179172892592 2.1819203603493307 8.380249165579025 0 0 0
561 0 2 0 0.7544933525390529 0.22727112350047274 8.63820156614212 0 1 0
355 0 1 0 1.0149118309650478 1.954632678767586 8.825463647201072 0 0 0
335 0 2 0 1.0398174952867485 3.2224232762435787 10.314783716696459 0 0 0
346 0 1 0 2.048431810686841 0.7081068672156463 11.959892719476253 0 0 0
347 0 2 0 2.57864360711194 0.9601519966176462 11.224081957531785 0 0 0
348 0 2 0 1.1014022450574272 0.6906950113837865 11.695603222668694 0 0 0
334 0 1 0 1.0569343221063647 3.877799038124026 10.970165453805011 0 0 0
329 0 2 0 4.247620797457171 2.417038132476484 10.23664668034424 0 0 0
328 0 1 0 4.365241996205128 1.4754912273070226 10.183402816268226 0 0 0
330 0 2 0 5.008322183342404 1.2689058215550377 10.900353398659561 0 0 0
353 0 2 0 6.8589313133912055 0.6659661234865036 12.044390168038671 0 0 0
393 0 2 0 7.41427553900903 1.1136028668061906 9.221168370209002 0 0 0
391 0 1 0 7.691394169232898 2.044587134469467 9.161603692033546 0 0 0
352 0 1 0 5.940889556837996 0.4716057683850127 12.335736181266272 0 0 0
554 0 2 0 4.269265181617998 0.37293303937920197 9.058169033728689 0 1 0
372 0 2 0 7.503108862977467 3.4625263791161207 10.33306811849206 0 0 0
392 0 2 0 8.348875548485308 2.107189655823361 8.43042110102793 0 0 0
382 0 1 0 8.773191807910214 0.5649194116641547 11.825128355439514 0 0 0
366 0 2 0 9.917494774716811 0.9588652286724044 10.54305396480256 0 0 0
364 0 1 0 10.725227184932995 1.2227375508445486 10.061086371246907 0 0 0
378 0 2 0 10.787514232022717 3.028903413595693 10.222581277491098 0 0 0
365 0 2 0 11.366815725554245 0.9436488853436951 10.707972100278035 0 0 0
376 0 1 0 10.63962407809443 3.9281462739275654 10.494376771943392 0 0 0
591 0 2 0 10.951102776035869 0.03169101395081756 8.580136884182018 0 1 0
429 0 2 0 15.021565879827929 2.077627700278867 8.426467037039783 0 0 0