LAMMPS (29 Sep 2021 - Update 2)
  using 1 OpenMP thread(s) per MPI task
echo both

include		in.partitions
variable        pid world 0
include		in.temp
variable        temperature equal 260
variable        tempDamp equal 0.100 # this is 0.1 ps
include		in.pressure
variable        pressure equal 3039.75
variable        pressureDamp equal 1.0 #this is 1ps
include		in.seed
variable        seed world 745823

units           metal
atom_style	full
include		in.box
read_data       iceIII.data
Reading data file ...
  orthogonal box = (0.0000000 0.0000000 0.0000000) to (19.991053 19.991053 20.800772)
  1 by 1 by 1 MPI processor grid
  reading atoms ...
  972 atoms
Finding 1-2 1-3 1-4 neighbors ...
  special bond factors lj:    0        0        0       
  special bond factors coul:  0        0        0       
     0 = max # of 1-2 neighbors
     0 = max # of 1-3 neighbors
     0 = max # of 1-4 neighbors
     1 = max # of special neighbors
  special bonds CPU = 0.003 seconds
  read_data CPU = 0.016 seconds
include 	in.setup
variable	out_freq equal 500
variable	out_freq2 equal 500

timestep        0.0005

neigh_modify    delay 7 every 1

include         in.deepmd
# This is deepMD model

# create groups ###
#group ox type 2
#group hy type 1

mass 2 15.999
mass 1 1.008

pair_style      deepmd ../graph.pb
pair_coeff      * *

bond_style      none
angle_style     none
dihedral_style  none
improper_style  none
neigh_modify exclude none


neighbor        2.0 bin
neigh_modify    every 10 delay 0 check no

thermo          ${out_freq}
thermo          500
thermo_style 	custom step temp pe etotal epair emol press lx ly lz xy xz yz vol pxx pyy pzz pxy pxz pyz cella cellb cellc cellalpha cellbeta cellgamma

restart 	${out_freq} restart.lmp.${pid} restart2.lmp.${pid}
restart 	500 restart.lmp.${pid} restart2.lmp.${pid}
restart 	500 restart.lmp.0 restart2.lmp.${pid}
restart 	500 restart.lmp.0 restart2.lmp.0


include         in.dump
dump            myDump all atom ${out_freq2} dump.water.${pid}
dump            myDump all atom 500 dump.water.${pid}
dump            myDump all atom 500 dump.water.0
dump            myDump2 all dcd ${out_freq2} dump.dcd
dump            myDump2 all dcd 500 dump.dcd
dump_modify     myDump append yes
dump_modify     myDump2 append yes


timer           timeout 04:55:00 every 1000
New timer settings: style=normal  mode=nosync  timeout=04:55:00

fix             2 all nph aniso ${pressure} ${pressure} ${pressureDamp}
fix             2 all nph aniso 3039.75 ${pressure} ${pressureDamp}
fix             2 all nph aniso 3039.75 3039.75 ${pressureDamp}
fix             2 all nph aniso 3039.75 3039.75 1
fix             3 all temp/csvr ${temperature} ${temperature} ${tempDamp} ${seed}
fix             3 all temp/csvr 260 ${temperature} ${tempDamp} ${seed}
fix             3 all temp/csvr 260 260 ${tempDamp} ${seed}
fix             3 all temp/csvr 260 260 0.1 ${seed}
fix             3 all temp/csvr 260 260 0.1 745823
velocity 	all create ${temperature} ${seed} dist gaussian
velocity 	all create 260 ${seed} dist gaussian
velocity 	all create 260 745823 dist gaussian

run             400000

CITE-CITE-CITE-CITE-CITE-CITE-CITE-CITE-CITE-CITE-CITE-CITE-CITE

Your simulation uses code contributions which should be cited:

- USER-DEEPMD package:

@article{Wang_ComputPhysCommun_2018_v228_p178,
  author = {Wang, Han and Zhang, Linfeng and Han, Jiequn and E, Weinan},
  doi = {10.1016/j.cpc.2018.03.016},
  url = {https://doi.org/10.1016/j.cpc.2018.03.016},
  year = 2018,
  month = {jul},
  publisher = {Elsevier {BV}},
  volume = 228,
  journal = {Comput. Phys. Commun.},
  title = {{DeePMD-kit: A deep learning package for many-body potential energy representation and molecular dynamics}},
  pages = {178--184}
}

CITE-CITE-CITE-CITE-CITE-CITE-CITE-CITE-CITE-CITE-CITE-CITE-CITE

Neighbor list info ...
  update every 10 steps, delay 0 steps, check no
  max neighbors/atom: 2000, page size: 100000
  master list distance cutoff = 8
  ghost atom cutoff = 8
  binsize = 4, bins = 5 5 6
  1 neighbor lists, perpetual/occasional/extra = 1 0 0
  (1) pair deepmd, perpetual
      attributes: full, newton on
      pair build: full/bin
      stencil: full/bin/3d
      bin: standard
Per MPI rank memory allocation (min/avg/max) = 7.648 | 7.648 | 7.648 Mbytes
Step Temp PotEng TotEng E_pair E_mol Press Lx Ly Lz Xy Xz Yz Volume Pxx Pyy Pzz Pxy Pxz Pyz Cella Cellb Cellc CellAlpha CellBeta CellGamma 
       0          260   -175.65013   -143.01712   -175.65013            0    37711.489    19.991053    19.991053    20.800772            0            0            0    8312.8663    41483.418    41959.303    29691.747   -62.837842   -1049.8213   -449.94001    19.991053    19.991053    20.800772           90           90           90 
     500    254.32011   -161.93614   -130.01601   -161.93614            0   -692.63401    20.095408    20.001542    20.574545            0            0            0    8269.7152   -375.06191    299.01553   -2001.8556   -513.97841   -796.90039   -911.12021    20.095408    20.001542    20.574545           90           90           90 
    1000    268.21351   -160.90046   -127.23655   -160.90046            0   -38.631632    20.214289    20.089278    20.332711            0            0            0    8256.9203   -77.777306    650.27016   -688.38775   -1697.5233    309.65347    430.89516    20.214289    20.089278    20.332711           90           90           90 
    1500    256.27571    -161.0387   -128.87312    -161.0387            0    11546.743    20.284634    20.176341    20.313103            0            0            0    8313.5378    9969.5576    12549.164    12121.508    1791.6888    -1647.222    569.03062    20.284634    20.176341    20.313103           90           90           90 
    2000    255.57075   -158.64276   -126.56567   -158.64276            0   -739.28376     20.20843    20.137781    20.362827            0            0            0    8286.7123   -1083.4683    1276.7625   -2411.1455   -97.829111    46.658778    534.84344     20.20843    20.137781    20.362827           90           90           90 
    2500    259.82097   -158.10279   -125.49224   -158.10279            0    3688.8692    20.016716    20.187065    20.498225            0            0            0     8282.897    4144.5331    1014.2841    5907.7904    2308.9266    268.06113   -254.09143    20.016716    20.187065    20.498225           90           90           90 
    3000    251.65034   -157.43202   -125.84698   -157.43202            0    4849.2372    20.009311    20.235596    20.692224            0            0            0    8378.2886    8287.4184    3499.9273    2760.3658   -454.83388    467.47666   -397.60458    20.009311    20.235596    20.692224           90           90           90 
    3500    261.03185   -159.25435   -126.49183   -159.25435            0    3234.1097    20.154342    20.011724    20.599683            0            0            0    8308.3285    6680.9255    3330.0983    -308.6947   -1434.5775   -2540.8553    3784.7378    20.154342    20.011724    20.599683           90           90           90 
    4000    255.35919    -159.1367   -127.08616    -159.1367            0    5176.1256    20.340947    19.951902    20.482679            0            0            0    8312.7024     1526.271    7466.6403    6535.4654    109.80773   -222.74125    1788.6887    20.340947    19.951902    20.482679           90           90           90 
    4500    259.33994   -159.74947    -127.1993   -159.74947            0    2289.8866    20.257784    20.064123    20.388822            0            0            0    8287.1318    1349.5215    3326.0086    2194.1298    1004.7582   -1121.1801   -339.26896    20.257784    20.064123    20.388822           90           90           90 
    5000    254.78115   -158.65102   -126.67303   -158.65102            0     1537.483    20.108604    20.224613     20.43049            0            0            0    8308.8503   -1505.6902    3954.8546    2163.2845    414.77011    1446.2585   -1151.1068    20.108604    20.224613     20.43049           90           90           90 
    5500    249.51068   -159.76335   -128.44687   -159.76335            0    5348.0833    19.983049     20.23853    20.508957            0            0            0    8294.3867    1882.0582    6965.3076     7196.884   -1374.7197   -555.50126    689.76923    19.983049     20.23853    20.508957           90           90           90 
    6000    267.05588   -160.42802   -126.90941   -160.42802            0    776.32122    20.095123    20.207441    20.649531            0            0            0    8385.1761    2730.0832    323.05038   -724.16995   -1384.8265   -1669.8473   -476.06988    20.095123    20.207441    20.649531           90           90           90 
    6500    257.42002   -160.04958   -127.74038   -160.04958            0    5483.0853    20.165839    20.026591    20.520872            0            0            0    8287.4159    6395.6405    5109.5426    4944.0727    759.75351     2646.241   -464.37426    20.165839    20.026591    20.520872           90           90           90 
    7000    261.55711   -158.04848   -125.22002   -158.04848            0    1878.0835    20.309645    20.083094    20.374896            0            0            0    8310.5229    2722.3042    1660.9883     1250.958    -1416.504    1021.5817    770.60001    20.309645    20.083094    20.374896           90           90           90 
    7500    267.86002   -159.04501   -125.42547   -159.04501            0    1210.2081     20.29847    20.260288    20.279374            0            0            0      8339.95    2523.0746   -1687.5554     2795.105   -819.88825    921.63919   -3106.2665     20.29847    20.260288    20.279374           90           90           90 
    8000    260.26619   -159.87574   -127.20932   -159.87574            0     2511.775    20.152303    20.250342    20.374734            0            0            0    8314.7463   -64.490075    5925.4138    1674.4012   -206.28742   -1976.0279   -850.64701    20.152303    20.250342    20.374734           90           90           90 
    8500    258.32077   -160.37622   -127.95397   -160.37622            0    4986.1439    19.934816    20.121592     20.70709            0            0            0    8306.0331    6563.7205        355.8     8038.911    281.49795    5240.2793     2348.676    19.934816    20.121592     20.70709           90           90           90 
    9000    268.44577   -158.64873   -124.95567   -158.64873            0    1866.3205    20.037804    19.944999    21.004941            0            0            0    8394.7082    1226.7439    5183.5854   -811.36762    558.59862    1682.2277    1025.9619    20.037804    19.944999    21.004941           90           90           90 
    9500    263.23733   -158.67986   -125.64052   -158.67986            0    993.36805    20.234318    20.031824    20.816768            0            0            0    8437.6668     1539.996    2218.6158    -778.5077     1430.655   -778.80469   -1280.9595    20.234318    20.031824    20.816768           90           90           90 
   10000    272.20166   -158.52238   -124.35791   -158.52238            0    4554.5471    20.155966    20.187579    20.270132            0            0            0    8247.9198    1671.4947    7956.5091    4035.6374   -401.06788    767.26395    460.54696    20.155966    20.187579    20.270132           90           90           90 
   10500    273.52593   -157.57962   -123.24894   -157.57962            0    2496.7034     20.28116    20.339195    20.208563            0            0            0    8336.0823    3350.7059    1085.8335    3053.5708   -1291.3813    2424.2417   -1880.2531     20.28116    20.339195    20.208563           90           90           90 
   11000    270.18154   -159.45942    -125.5485   -159.45942            0    3692.0335    20.229996    20.252672    20.342346            0            0            0    8334.4925    957.14916     3190.251    6928.7002    889.34001   -1708.7135     355.9543    20.229996    20.252672    20.342346           90           90           90 
   11500     257.9176   -159.57556   -127.20391   -159.57556            0    4812.3989    20.100114     20.10907    20.545761            0            0            0    8304.4852    6922.4398    3217.6374    4297.1195    480.32933   -1148.6511   -22.500911    20.100114     20.10907    20.545761           90           90           90 
   12000    258.40975   -157.68385   -125.25043   -157.68385            0     3578.033    20.103157    20.096646    20.748951            0            0            0    8382.7013    6974.4363    3463.0737    296.58889    -1280.693    1529.1257    979.06918    20.103157    20.096646    20.748951           90           90           90 
   12500    251.45566   -157.00178   -125.44118   -157.00178            0    1085.8703    20.199814    20.107694    20.663117            0            0            0    8392.7732   -1929.4078    950.11281    4236.9059    704.66828    2525.4633   -408.23356    20.199814    20.107694    20.663117           90           90           90 
   13000     265.4871   -157.60791    -124.2862   -157.60791            0    4367.5259    20.280612    20.086661    20.488435            0            0            0     8346.369    4643.6335    3505.2198    4953.7246   -1760.7413   -1251.2468   -3476.1054    20.280612    20.086661    20.488435           90           90           90 
   13500    255.40941   -159.12596   -127.06912   -159.12596            0    4299.9037    20.230123    20.153099     20.30209            0            0            0    8277.1553    2449.8818    7747.2262    2702.6032   -646.40213    -1858.109   -1266.4456    20.230123    20.153099     20.30209           90           90           90 
   14000    258.05523   -160.13009   -127.74117   -160.13009            0    4646.8843    20.169092    20.352098    20.352473            0            0            0    8354.3511    4779.7983    5312.4681    3848.3866   -954.59652    1662.0979    900.84697    20.169092    20.352098    20.352473           90           90           90 
   14500    249.48531   -159.94331   -128.63001   -159.94331            0    4225.2343    20.028382     20.21585    20.448365            0            0            0    8279.3542    4232.8068    1523.7137    6919.1824   -325.53264    67.829845    658.23645    20.028382     20.21585    20.448365           90           90           90 
   15000    259.96627   -158.81135   -126.18257   -158.81135            0    5385.8041    20.171815     19.95883    20.660276            0            0            0    8317.9474    8001.4886    3763.8448    4392.0789    773.01779    2137.4343    1444.4129    20.171815     19.95883    20.660276           90           90           90 
   15500    254.42103   -158.10482   -126.17203   -158.10482            0   -1427.9787    20.308632    19.937466    20.677623            0            0            0    8372.4245   -757.48135   -1745.8185   -1780.6363   -1753.3986   -1510.8869    2282.0653    20.308632    19.937466    20.677623           90           90           90 
   16000    260.81194   -158.19652    -125.4616   -158.19652            0    1887.1489    20.247028    20.157631    20.526695            0            0            0    8377.6035    2060.9406    1547.5835    2052.9225    112.22413    170.89492   -2810.7885    20.247028    20.157631    20.526695           90           90           90 
   16500    264.43648   -158.93608   -125.74624   -158.93608            0    3943.8634     20.00866    20.292759    20.281438            0            0            0    8234.8907    3033.8438    4298.9595     4498.787    68.150224   -3400.0772   -372.24476     20.00866    20.292759    20.281438           90           90           90 
   17000    264.43613   -158.91816   -125.72836   -158.91816            0   -330.27524    20.104659    20.382076    20.459653            0            0            0    8383.8481    952.16346   -2687.6684    744.67927   -358.41502   -164.28327   -208.03334    20.104659    20.382076    20.459653           90           90           90 
   17500    255.58578   -158.43444   -126.35546   -158.43444            0    1796.0386    20.111068    20.170289    20.623076            0            0            0    8365.6693      2051.33    2648.4546    688.33108    59.734345    491.11051   -2799.3375    20.111068    20.170289    20.623076           90           90           90 
   18000    251.06095   -159.38427    -127.8732   -159.38427            0    1544.9444    20.103286     20.04193    20.732911            0            0            0    8353.4693    5031.2203   -2906.8925    2510.5053   -1764.2095    427.38453    214.46328    20.103286     20.04193    20.732911           90           90           90 
   18500    257.26721   -159.51437   -127.22436   -159.51437            0    3618.1223    20.164877    20.062241    20.567883            0            0            0    8320.7913    2799.5577    6082.5386    1972.2705   -273.21952    770.92531    176.12736    20.164877    20.062241    20.567883           90           90           90 
   19000    259.76445   -159.27606   -126.67261   -159.27606            0    5147.4699    20.246407    20.150191    20.389634            0            0            0     8318.338    5490.8103    3296.6967    6654.9028    200.71288    32.768703    1156.5456    20.246407    20.150191    20.389634           90           90           90 
   19500    266.28416   -159.40103   -125.97928   -159.40103            0    5195.1522    20.336416    20.164907    20.346661            0            0            0    8343.7979    3627.6892    6870.5009    5087.2665    1078.7875   -925.87509    -509.1685    20.336416    20.164907    20.346661           90           90           90 
   20000    251.74541   -159.95957    -128.3626   -159.95957            0    885.77302    20.233174    20.179084    20.565864            0            0            0    8396.7733    362.92809    2061.6028    232.78815    1693.3033   -1574.8068   -433.47163    20.233174    20.179084    20.565864           90           90           90 
   20500     260.8572   -160.04849   -127.30789   -160.04849            0    5152.2915    19.963986    20.140576    20.720793            0            0            0    8331.5448    5395.0614    7205.4199    2856.3931   -168.81175   -641.31421    3668.5867    19.963986    20.140576    20.720793           90           90           90 
   21000    262.56187   -160.53014   -127.57558   -160.53014            0    3075.7393    19.914854    20.205396    20.659895            0            0            0    8313.2836    5598.4034    1819.1069    1809.7076      357.877    384.76446   -858.97544    19.914854    20.205396    20.659895           90           90           90 
   21500    259.32037   -161.88342    -129.3357   -161.88342            0    3953.5262    20.221759    20.223744    20.391175            0            0            0    8339.1684    8884.9564   -2315.2285    5290.8509    493.52149    561.95861     218.2245    20.221759    20.223744    20.391175           90           90           90 
   22000    262.12249   -159.17848   -126.27907   -159.17848            0    2441.4818    20.458169    20.193525     20.17663            0            0            0    8335.4206    92.333787    2557.3241    4674.7875   -168.73696   -244.98849   -1501.2252    20.458169    20.193525     20.17663           90           90           90 
   22500    265.56874   -159.97072   -126.63876   -159.97072            0     1558.028     20.27347    20.125199    20.286757            0            0            0    8277.1511    1358.3837    780.99607    2534.7041   -153.99993   -2340.6798    1415.2121     20.27347    20.125199    20.286757           90           90           90 
   23000    254.41914   -160.21823   -128.28568   -160.21823            0    1972.2884    20.049976    20.117085    20.551445            0            0            0    8289.3654    1801.6426    1042.0762    3073.1464    1202.7474    1808.3884   -1217.9938    20.049976    20.117085    20.551445           90           90           90 
   23500    262.71043   -159.44521   -126.47201   -159.44521            0    2437.1654     20.09727    20.178865    20.680951            0            0            0    8386.9549     1880.343    1378.5922    4052.5611    204.95279   -3430.6973    1091.7842     20.09727    20.178865    20.680951           90           90           90 
   24000    273.17759   -158.83414   -124.54718   -158.83414            0    1300.7955    20.157861    20.152491    20.589829            0            0            0    8364.2292    3336.6798    270.13193    295.57471    218.84931   -639.38225   -910.61768    20.157861    20.152491    20.589829           90           90           90 
   24500    270.75174   -159.64323   -125.66074   -159.64323            0    172.07035    20.239481    20.173137    20.484992            0            0            0    8363.8957   -33.858472    418.48755    131.58197    198.83719    -1276.758    3626.1642    20.239481    20.173137    20.484992           90           90           90 
   25000    252.75561   -157.28364   -125.55988   -157.28364            0    9359.8716    20.234363    20.117439    20.346805            0            0            0    8282.4428    10112.575    8501.9989    9465.0409    718.05903     515.2762   -874.77729    20.234363    20.117439    20.346805           90           90           90 
   25500    268.07823   -159.06083   -125.41391   -159.06083            0    3281.1143    20.345327    20.155392    20.603711            0            0            0    8448.9234    4.6337683     6573.921     3264.788    9.0189823   -481.56659    899.27771    20.345327    20.155392    20.603711           90           90           90 
   26000    262.45848   -157.30982   -124.36823   -157.30982            0     2299.067    20.172026    20.046237    20.645842            0            0            0    8348.6254    868.20375    1917.3257    4111.6714    856.65196   -877.25037   -2971.3297    20.172026    20.046237    20.645842           90           90           90 
   26500    249.06247   -158.51341   -127.25318   -158.51341            0    1632.4706    19.992041    20.164682    20.571532            0            0            0    8293.0667   -1346.8895    2480.7596    3763.5416   -467.93715    3623.7854    1841.5842    19.992041    20.164682    20.571532           90           90           90 
   27000    268.29365   -158.17574   -124.50177   -158.17574            0    1321.6273    20.078423    20.343092    20.459657            0            0            0    8356.8948    -561.1319    2384.6827    2141.3311   -947.93104   -1362.7679    -966.6915    20.078423    20.343092    20.459657           90           90           90 
   27500    265.83536   -159.59694   -126.23152   -159.59694            0    2102.9859     20.26242    20.159279    20.304005            0            0            0    8293.6941    1511.8735     2554.832     2242.252    1902.6542   -2726.7118    1136.4253     20.26242    20.159279    20.304005           90           90           90 
   28000    261.12583   -160.07492    -127.3006   -160.07492            0    2015.7218    20.424195    20.080853    20.431958            0            0            0    8379.8664    2668.4155   -208.14483    3586.8947   -68.731491    659.74445   -1143.4616    20.424195    20.080853    20.431958           90           90           90 
   28500    260.20755   -158.50466   -125.84559   -158.50466            0     4190.825    20.140797    20.051675    20.515055            0            0            0    8285.1429    4955.3535     5432.709    2184.4124    885.37288    2012.3042   -960.71198    20.140797    20.051675    20.515055           90           90           90 
   29000    265.12546    -159.3822   -126.10588    -159.3822            0    5159.3799    20.038499     20.23465    20.594871            0            0            0    8350.6438    5256.0273    4202.5205    6019.5919    71.695729    1336.1374    2598.7051    20.038499     20.23465    20.594871           90           90           90 
   29500    266.16649   -158.54844   -125.14146   -158.54844            0    3474.1728    20.113085      20.2161    20.563391            0            0            0    8361.2421    4889.9801    2813.2541     2719.284    727.16668   -507.64962    1375.4798    20.113085      20.2161    20.563391           90           90           90 
   30000    270.06889   -157.02316   -123.12638   -157.02316            0     7085.065    20.193949    20.224166    20.475063            0            0            0     8362.134    7336.6113    6815.8827    7102.7009   -1316.0839    3254.0477    476.06341    20.193949    20.224166    20.475063           90           90           90 
   30500    268.67863   -158.09003   -124.36775   -158.09003            0    2607.5038    20.262158    20.234996    20.413277            0            0            0     8369.539    2174.5338   -980.17973    6628.1573   -978.89745     1254.958    1366.9219    20.262158    20.234996    20.413277           90           90           90 
   31000    259.09848   -156.96164   -124.44178   -156.96164            0    2166.5291    20.284403    20.031333    20.429253            0            0            0    8300.8883   -1854.4063    6613.5547    1740.4389   -1290.7416    174.39722    949.79197    20.284403    20.031333    20.429253           90           90           90 
   31500    262.73891   -158.53859   -125.56181   -158.53859            0    4846.1952    20.313578    20.074713    20.584804            0            0            0    8394.2618    2854.8738    6451.7153    5231.9965    414.76141    1.8904718     71.65265    20.313578    20.074713    20.584804           90           90           90 
   32000    259.67914   -159.23337   -126.64063   -159.23337            0    1416.9543    20.065738    20.186504    20.568411            0            0            0    8331.3806    177.96924    1684.9982    2387.8953    624.51909    -1068.515   -588.93626    20.065738    20.186504    20.568411           90           90           90 
   32500    258.50761   -158.37257   -125.92687   -158.37257            0     3696.854    19.948249    20.323873      20.4909            0            0            0    8307.5372    2701.4574    4229.0769    4160.0278   -1356.9818     791.9655   -52.300894    19.948249    20.323873      20.4909           90           90           90 
   33000    270.14213   -159.47626   -125.57028   -159.47626            0    2121.1874    20.160321    20.255908    20.393735            0            0            0       8328.1   -352.66151    4842.6534    1873.5703   -1156.7044    117.35795    421.66407    20.160321    20.255908    20.393735           90           90           90 
   33500    264.08711   -159.58548   -126.43948   -159.58548            0    3078.5741    20.430891    20.038133    20.400628            0            0            0     8351.954   -1566.4079    6058.8138    4743.3163    -884.3437    238.14795    1930.5259    20.430891    20.038133    20.400628           90           90           90 
   34000    254.50625   -160.11831   -128.17483   -160.11831            0    2396.5445    20.278842    19.997302    20.415858            0            0            0    8279.0822    3012.0958    3123.2819    1054.2559   -935.26827    1710.0383   -498.64062    20.278842    19.997302    20.415858           90           90           90 
   34500    254.15225   -160.64366    -128.7446   -160.64366            0    4768.5551    19.964058      20.1476    20.498432            0            0            0    8245.0401    6374.4048    5221.6581    2709.6024    419.73036   -2602.6432    314.72622    19.964058      20.1476    20.498432           90           90           90 
   35000    251.14184    -161.2706   -129.74938    -161.2706            0    4191.3901    20.073917    20.310652    20.648195            0            0            0    8418.5652    4488.8788     4464.757    3620.5346   -41.554188    952.98997    -231.3652    20.073917    20.310652    20.648195           90           90           90 
   35500     259.6304   -160.51265   -127.92603   -160.51265            0    1877.6831    20.273022    20.133082    20.598848            0            0            0     8407.593   -618.52679    3046.6837    3204.8925    -457.3691   -731.38604    2279.0664    20.273022    20.133082    20.598848           90           90           90 
   36000    256.45007   -158.83269   -126.64523   -158.83269            0    6305.8713    20.280559    19.934131    20.387058            0            0            0    8241.9846    5455.2626    9057.5924    4404.7588    1038.9828   -429.97207    1781.9405    20.280559    19.934131    20.387058           90           90           90 
   36500    249.38838   -158.07508   -126.77394   -158.07508            0    4611.5155    20.177858     20.16565    20.353402            0            0            0    8281.7915     4812.526    4781.8117    4240.2087   -957.12341   -298.99355    -923.7532    20.177858     20.16565    20.353402           90           90           90 
   37000    261.39107   -159.00488   -126.19727   -159.00488            0   -2203.4235    20.174017    20.455405    20.519399            0            0            0    8467.6931   -1921.5609   -3135.6843   -1553.0253   -993.62329   -449.85482   -561.36322    20.174017    20.455405    20.519399           90           90           90 
   37500    256.66976   -158.89796   -126.68293   -158.89796            0     7511.037    20.076562    20.018658    20.541878            0            0            0    8255.9007    6449.2299    10439.241    5644.6401    1063.5316    1583.1807   -3606.6875    20.076562    20.018658    20.541878           90           90           90 
   38000    267.58441   -158.71005    -125.1251   -158.71005            0    2241.8352    20.271681    19.854159     20.71822            0            0            0    8338.6106   -1802.9422    6441.7189     2086.729    885.50566    513.09391   -2356.3543    20.271681    19.854159     20.71822           90           90           90 
   38500    258.35844    -158.1738   -125.74682    -158.1738            0    952.40445    20.259233    20.111609    20.728534            0            0            0    8445.7534   -249.79931    2905.0331    201.97957   -487.72309    2026.0646   -1019.4211    20.259233    20.111609    20.728534           90           90           90 
   39000    260.22759   -159.68643   -127.02485   -159.68643            0    899.02653    20.079831    20.286074    20.595937            0            0            0    8389.5685    2814.0982   -1373.1643    1256.1457    484.66175     800.4242    1128.6593    20.079831    20.286074    20.595937           90           90           90 
   39500    254.41324   -157.84921    -125.9174   -157.84921            0    1566.2358     20.06934     20.20761    20.470134            0            0            0    8301.7326    2085.5902     2691.867   -78.749612   -1200.6366    1860.6595   -991.39461     20.06934     20.20761    20.470134           90           90           90 
   40000    263.78742   -160.13455   -127.02616   -160.13455            0   -389.48538    20.223309    20.209548    20.472949            0            0            0    8367.3746   -494.89945   -1124.3681     450.8114    835.53949   -306.09377   -1218.2146    20.223309    20.209548    20.472949           90           90           90 
   40500    256.37646   -158.98103   -126.80281   -158.98103            0    2581.7322    20.237689    20.144599    20.486134            0            0            0    8351.7896    2362.1178    3000.2339    2382.8449    803.23197   -2208.5674    -1329.883    20.237689    20.144599    20.486134           90           90           90 
   41000    255.21486   -159.10314   -127.07072   -159.10314            0    957.19913    20.176682    20.097493    20.611156            0            0            0    8357.8387    1347.5106    906.27173    617.81511   -554.92257    740.57839    708.26994    20.176682    20.097493    20.611156           90           90           90 
   41500    256.85738   -158.14201   -125.90343   -158.14201            0    4328.6291    20.028142    20.092569    20.661159            0            0            0    8314.3976    4250.0706    6553.7852    2182.0315   -74.118009   -80.077806   -1130.1212    20.028142    20.092569    20.661159           90           90           90 
   42000    258.61316   -158.92913   -126.47018   -158.92913            0    1455.6233    20.176095    20.204675    20.648568            0            0            0    8417.4182    51.600425    3501.7641    813.50524   -1007.6927    1940.2523    70.781851    20.176095    20.204675    20.648568           90           90           90 
   42500     263.8071   -158.25816   -125.14731   -158.25816            0    3050.7623    20.371149    20.184546    20.490314            0            0            0    8425.2566     2984.207    2536.4884    3631.5915    953.01622    2882.6609   -1787.5884    20.371149    20.184546    20.490314           90           90           90 
   43000    261.61596   -157.49856   -124.66272   -157.49856            0    4054.7435    20.312969    20.056099    20.238859            0            0            0    8245.2892    5548.0776     3380.619     3235.534   -1398.0398   -33.937686    1622.3801    20.312969    20.056099    20.238859           90           90           90 
   43500    251.52637   -157.65541   -126.08593   -157.65541            0   -1966.0953    20.237152    20.190037    20.330157            0            0            0    8306.6755   -2561.6866   -158.48893   -3178.1105    372.55723    588.06949    1627.8197    20.237152    20.190037    20.330157           90           90           90 
   44000    254.77605   -158.70806   -126.73071   -158.70806            0    4076.9129    20.189404    20.340483    20.576003            0            0            0     8449.787    5546.0924    3130.1071    3554.5393    -1107.935    1959.3627    322.31748    20.189404    20.340483    20.576003           90           90           90 
   44500    259.74721   -158.85553   -126.25424   -158.85553            0    3711.8868    20.043098    20.120744    20.627986            0            0            0    8318.8965    5665.1387    2888.5483    2581.9735    1799.0952    3407.8819   -2400.2519    20.043098    20.120744    20.627986           90           90           90 
   45000    257.53566   -161.06803   -128.74432   -161.06803            0    5537.1774    20.073629    19.998511    20.628021            0            0            0     8280.968    5128.3727    7361.1372    4122.0223   -189.87686    429.97491   -670.37725    20.073629    19.998511    20.628021           90           90           90 
   45500    256.81638    -160.1208   -127.88736    -160.1208            0     4579.534    20.236782    20.203687    20.560906            0            0            0    8406.4827    6820.9726    2325.4354     4592.194   -38.479542   -5001.7901   -1100.1561    20.236782    20.203687    20.560906           90           90           90 
   46000    262.11936   -159.71396   -126.81494   -159.71396            0    754.35721    20.299924    20.257979    20.457514            0            0            0    8412.8544    3578.3738   -1185.9244   -129.37778   -324.54973   -388.00337    3437.4079    20.299924    20.257979    20.457514           90           90           90 
   46500    262.14362   -159.22552   -126.32346   -159.22552            0    5418.5579    20.177497    19.983839    20.390358            0            0            0    8221.8788    1436.7975    9299.8167    5519.0595   -643.31954   -104.37176   -208.07399    20.177497    19.983839    20.390358           90           90           90 
   47000    257.01031   -158.61312   -126.35534   -158.61312            0     752.5133    20.263836    20.065176    20.604242            0            0            0    8377.6322    -2040.559     5580.584   -1282.4851    986.62325    425.94435    3056.9044    20.263836    20.065176    20.604242           90           90           90 
   47500    268.04641   -158.80271   -125.15977   -158.80271            0    1536.3978    20.220032     20.24322    20.654511            0            0            0    8454.2741    697.73411    3103.1048    808.35436   -1278.2249    87.723742    345.55644    20.220032     20.24322    20.654511           90           90           90 
   48000    264.07592    -158.6235   -125.47891    -158.6235            0     8705.715    20.120861    20.273795     20.49268            0            0            0    8359.5015    9549.7123    8415.3639    8152.0687    1717.9814    508.88611    1522.8036    20.120861    20.273795     20.49268           90           90           90 
   48500     261.0777   -158.93186   -126.16358   -158.93186            0    4740.8355    20.128796    20.157629    20.368335            0            0            0    8264.4278    5582.4852    2025.8966    6614.1247   -824.19458   -1198.4426    1688.7675    20.128796    20.157629    20.368335           90           90           90 
   49000    265.83912   -157.23914   -123.87324   -157.23914            0   -785.86164    20.343233    20.172767    20.520813            0            0            0    8421.3171   -82.660046   -1446.4119   -828.51301    1434.8702   -880.66931   -476.84861    20.343233    20.172767    20.520813           90           90           90 
   49500    266.33935   -154.74283   -121.31416   -154.74283            0    5683.3816    20.282593    20.038609    20.552552            0            0            0    8353.2754    1154.0204     8014.973    7881.1515   -1723.1908   -891.97622    2874.4534    20.282593    20.038609    20.552552           90           90           90 
   50000    274.62422   -158.65845   -124.18993   -158.65845            0    674.70766    20.161625    20.117002    20.618191            0            0            0    8362.5619   -2147.4372    3719.6697    451.89041    1797.2013   -1553.2708   -822.72802    20.161625    20.117002    20.618191           90           90           90 
   50500     263.4333    -158.7912   -125.72726    -158.7912            0    1543.9273     20.04345    20.203661    20.503936            0            0            0    8303.0905    3413.4677   -2855.5912    4073.9055    1300.9933   -379.79681    1735.1196     20.04345    20.203661    20.503936           90           90           90 
   51000    261.98752    -158.2331   -125.35063    -158.2331            0    2333.0333    20.123792    20.267836    20.436849            0            0            0    8335.4903    3219.0755    1839.0157    1941.0086    1029.3687    1917.3118   -1687.6246    20.123792    20.267836    20.436849           90           90           90 
   51500    263.01447   -159.18063   -126.16927   -159.18063            0    1758.5086     20.34488    20.196206    20.439972            0            0            0    8398.5678    3910.8827    1616.0133    -251.3702   -2822.6432   -747.20818    400.89499     20.34488    20.196206    20.439972           90           90           90 
   52000    255.06458   -160.26452   -128.25096   -160.26452            0    2614.5901    20.257864    20.010992    20.426176            0            0            0    8280.3623    1445.9052    4254.1747    2143.6905   -176.77016   -1157.7937    2378.7241    20.257864    20.010992    20.426176           90           90           90 
   52500    268.34417   -159.59825   -125.91794   -159.59825            0    3338.9002    20.152131    20.081728    20.641062            0            0            0    8353.2234    5753.2483    1052.5509    3210.9016   -184.14371   -332.77534    932.79935    20.152131    20.081728    20.641062           90           90           90 
   53000    253.63931    -158.7717   -126.93703    -158.7717            0    3585.3593    20.110171    20.122356    20.660046            0            0            0    8360.3775    3641.7413    4345.4661    2768.8705   -1011.9599    2046.6803    286.69675    20.110171    20.122356    20.660046           90           90           90 
   53500    265.12377   -159.84497   -126.56886   -159.84497            0    2954.6897    20.180315    20.051967    20.411593            0            0            0    8259.6536    2546.4671    1804.2113    4513.3907   -452.31174    2612.6108   -156.44133    20.180315    20.051967    20.411593           90           90           90 
   54000    260.46426   -158.02357   -125.33229   -158.02357            0    4422.0625    20.363568    20.152402     20.26607            0            0            0    8316.6845   -229.91568     7935.557     5560.546   -574.14948    735.13273    -960.1749    20.363568    20.152402     20.26607           90           90           90 
   54500    256.51367   -160.97587   -128.78043   -160.97587            0    3755.9036    20.242558    20.253376    20.334645            0            0            0    8336.8003    6218.8474    666.06201    4382.8013    -861.2066   -1410.2111    1104.5635    20.242558    20.253376    20.334645           90           90           90 
   55000     256.4659   -159.27158   -127.08214   -159.27158            0    2762.7526    20.027728    20.253258    20.623284            0            0            0    8365.3558    1748.1317    2301.3684    4238.7578    279.68699    829.75565    483.04178    20.027728    20.253258    20.623284           90           90           90 
   55500    257.47342   -160.15073   -127.83483   -160.15073            0    3343.1266    19.906363    20.032248    20.722039            0            0            0    8263.3109    4129.4705    4602.8184     1297.091     510.4799   -232.79953    1146.5621    19.906363    20.032248    20.722039           90           90           90 
   56000    259.94203   -157.95394    -125.3282   -157.95394            0    1229.9981    20.229616    20.107046    20.679432            0            0            0    8411.5206    2567.3942    1016.2522    106.34781    518.95917   -669.42617   -816.25633    20.229616    20.107046    20.679432           90           90           90 
   56500    260.07749   -158.34522   -125.70248   -158.34522            0    1160.3057    20.345756    20.231421    20.434412            0            0            0    8411.2853    3643.8828    688.11016   -851.07593    230.82716   -20.714345    3511.8776    20.345756    20.231421    20.434412           90           90           90 
   57000    265.74241    -158.9374   -125.58364    -158.9374            0    2327.4907    20.201503    20.128239    20.296195            0            0            0    8252.8525    59.980408    4811.5633    2110.9285    421.57589   -1974.6438    1871.5357    20.201503    20.128239    20.296195           90           90           90 
   57500    258.72668   -159.36045   -126.88725   -159.36045            0    5027.5278    20.160605    20.103592    20.448999            0            0            0    8287.9915    4823.4716    5882.7394    4376.3724    309.17009    4276.3191     207.1178    20.160605    20.103592    20.448999           90           90           90 
   58000    256.54044   -158.77646   -126.57766   -158.77646            0    1450.0333    20.164556    20.212575    20.684298            0            0            0    8430.4566     2691.252    511.16349    1147.6846   -147.76346   -459.58591   -743.91479    20.164556    20.212575    20.684298           90           90           90 
   58500    257.24567   -158.53278   -126.24547   -158.53278            0    3217.0193    20.056972    20.176548    20.658624            0            0            0    8360.1416    4224.4977    5255.1898    171.37028   -347.82715   -4.2505032    83.518551    20.056972    20.176548    20.658624           90           90           90 
   59000    269.10501   -158.91812   -125.14232   -158.91812            0     2560.738    20.053007    20.087545     20.40127            0            0            0    8217.9513   -573.03622    7630.5564     624.6937    378.84914    469.51113   -2294.2023    20.053007    20.087545     20.40127           90           90           90 
   59500    262.17595   -158.09364   -125.18751   -158.09364            0    4136.1952    20.287322    20.265922    20.467247            0            0            0    8414.9301    3233.0522    4886.8063    4288.7271   -101.83459    773.25317   -2802.2003    20.287322    20.265922    20.467247           90           90           90 
   60000    254.27894   -158.64505    -126.7301   -158.64505            0     3766.599    20.248703    20.193752     20.54131            0            0            0    8399.2862    3761.7266    4558.0514    2980.0191    1066.2487    169.89028    1829.8213    20.248703    20.193752     20.54131           90           90           90 
   60500    254.71634   -159.37693   -127.40707   -159.37693            0    4778.2915    20.075967    19.988331    20.595185            0            0            0    8264.5401    8344.2384    2474.0097    3516.6265   -666.27601    1296.7735    1726.9112    20.075967    19.988331    20.595185           90           90           90 
   61000    266.01367   -159.79512   -126.40731   -159.79512            0    5520.5364    20.077208    20.071979    20.536154            0            0            0    8275.8505    4900.4272    6037.3593    5623.8226    1681.8978    719.35078    1028.8412    20.077208    20.071979    20.536154           90           90           90 
   61500    256.18242   -157.58931   -125.43544   -157.58931            0    191.95251    20.208245     20.30167    20.531113            0            0            0    8423.1177   -1141.7726    391.57377    1326.0564    384.60693    527.61005   -1835.8313    20.208245     20.30167    20.531113           90           90           90 
   62000      264.425   -158.48718   -125.29878   -158.48718            0    5055.3686    20.125682    20.230152    20.420064            0            0            0     8313.939    6029.0583    3744.6602    5392.3871    486.20189    2984.5544   -2110.7037    20.125682    20.230152    20.420064           90           90           90 
   62500    257.53673    -159.1537   -126.82985    -159.1537            0    4032.6243    20.178887     20.19334    20.438251            0            0            0    8328.1608    1671.3576    7279.0732    3147.4423     1437.979    1401.7308    932.68071    20.178887     20.19334    20.438251           90           90           90 
   63000    268.89836    -157.7112   -123.96133    -157.7112            0     2754.199    20.256364    20.240699    20.573459            0            0            0    8435.1789    1834.2012    4774.4449    1653.9508   -1152.0749    1548.8144    513.25775    20.256364    20.240699    20.573459           90           90           90 
   63500    263.05183    -159.5064   -126.49035    -159.5064            0    2534.6414    20.065158    19.999385    20.501361            0            0            0    8227.0082    8219.8912   -2189.1389    1573.1719     1346.545   -719.94598     2029.246    20.065158    19.999385    20.501361           90           90           90 
   64000    259.52946   -157.93749   -125.36353   -157.93749            0    2112.5107    20.282376    20.107278     20.56276            0            0            0    8385.9745    1709.5508    2249.2375    2378.7438    889.05675      1873.06   -1240.0531    20.282376    20.107278     20.56276           90           90           90 
   64500    266.65525   -159.36982   -125.90149   -159.36982            0    3598.4867    20.289538    20.206517    20.391843            0            0            0    8360.2665    3109.8262    3158.3238      4527.31    551.35266   -1372.0272    2250.2089    20.289538    20.206517    20.391843           90           90           90 
   65000    257.26506   -160.78815    -128.4984   -160.78815            0    1050.9303    20.163878    20.320415    20.373425            0            0            0    8347.7739    1261.2234    1226.5627    665.00467    694.58424     1022.032    1127.1272    20.163878    20.320415    20.373425           90           90           90 
   65500    253.27832   -158.52077    -126.7314   -158.52077            0    3060.6898    19.904216    20.141858    20.439791            0            0            0     8194.473    5759.1807   -1045.4976    4468.3863   -954.44049   -1394.9129    1448.0099    19.904216    20.141858    20.439791           90           90           90 
   66000    267.06252   -158.05494   -124.53549   -158.05494            0    1465.5024    20.103706    20.056366    20.720566            0            0            0    8354.6832    4458.5137    1040.7092   -1102.7156    1068.5931    1915.3719    298.64603    20.103706    20.056366    20.720566           90           90           90 
   66500    263.84444   -158.34823    -125.2327   -158.34823            0   -972.65181    20.382036    20.024527    20.756146            0            0            0    8471.4265   -3239.3032    857.23526   -535.88749   -547.58372   -2494.0778    -718.7267    20.382036    20.024527    20.756146           90           90           90 
   67000    258.87963   -159.52473   -127.03234   -159.52473            0    3586.2528    20.248893    19.922886    20.441137            0            0            0    8246.2892    4478.2075     3068.338    3212.2129    1089.4587   -2877.1831   -343.45881    20.248893    19.922886    20.441137           90           90           90 
   67500    258.88844   -159.50669   -127.01319   -159.50669            0    4041.4882    20.197163     20.15087     20.33617            0            0            0     8276.626    7238.9059     340.1392    4545.4195    1507.9033    825.01527    1221.3776    20.197163     20.15087     20.33617           90           90           90 
   68000    257.18131   -159.67535   -127.39611   -159.67535            0    3012.4056    20.191386    20.346972    20.420701            0            0            0    8389.5093    3773.9309    1672.7539     3590.532   -776.71923    1022.8558    879.14328    20.191386    20.346972    20.420701           90           90           90 
   68500    264.57328   -158.93614   -125.72912   -158.93614            0    1343.6086    20.134416     20.24369    20.507268            0            0            0    8358.6572     3743.653   -1510.0801     1797.253    1101.0018    2994.9474   -361.97355    20.134416     20.24369    20.507268           90           90           90 
   69000    257.26245   -160.09941   -127.80999   -160.09941            0     5001.797    20.151977    19.991841    20.547716            0            0            0    8278.1633    4455.9492    8523.3747    2026.0669   -556.17595    575.39592   -2255.9632    20.151977    19.991841    20.547716           90           90           90 
   69500    257.29017     -160.241   -127.94809     -160.241            0    3475.1645    20.193501    19.964774    20.536738            0            0            0    8279.5642    2011.9677    5368.8253    3044.7003   -372.55178    225.31479   -1957.5185    20.193501    19.964774    20.536738           90           90           90 
   70000    259.56035   -159.63115   -127.05332   -159.63115            0    321.60504    20.234445    20.216869    20.543072            0            0            0     8403.701   -1513.7898    2708.1468   -229.54184    -289.0755    858.29945    1052.3436    20.234445    20.216869    20.543072           90           90           90 
   70500    259.92499   -160.07886   -127.45526   -160.07886            0    2808.1916    20.055066    20.269874    20.365673            0            0            0    8278.9246    1983.8977    2898.3981     3542.279    1272.4857    -2571.347    1052.6977    20.055066    20.269874    20.365673           90           90           90 
   71000    267.39243   -161.15124   -127.59039   -161.15124            0    6876.5089    20.181791    20.109176    20.429789            0            0            0    8291.2089    9015.7159     3888.576    7725.2347   -55.832301    1380.9613    212.71299    20.181791    20.109176    20.429789           90           90           90 
   71500    251.67427   -158.23437   -126.64633   -158.23437            0    2589.6103    20.341845    19.933304    20.575511            0            0            0    8342.9618    3738.5783    2875.3573    1154.8954    1796.4575    -3369.866    151.31363    20.341845    19.933304    20.575511           90           90           90 
   72000    264.97768   -157.27844   -124.02067   -157.27844            0    3617.6221    20.285761    19.949404    20.665379            0            0            0    8363.0483    2496.8755    4247.6504    4108.3405   -1945.5273   -1157.8012   -1322.9407    20.285761    19.949404    20.665379           90           90           90 
   72500    260.81434   -158.50958   -125.77435   -158.50958            0    3579.4478     20.07086    20.329993    20.558635            0            0            0    8388.7547    6123.8135    1289.1285    3325.4014    540.57443   -908.40339   -3017.1302     20.07086    20.329993    20.558635           90           90           90 
   73000    248.95467   -158.36987   -127.12317   -158.36987            0    2110.9866    20.012253    20.393733    20.354922            0            0            0    8307.3429    6550.8858   -94.149173   -123.77678    1740.5209     1620.441    491.79548    20.012253    20.393733    20.354922           90           90           90 
   73500    268.62228   -160.04969   -126.33448   -160.04969            0     6040.499    20.197793     20.08183    20.279759            0            0            0    8225.6458    4902.3256    4871.6278    8347.5435   -1253.2349   -2479.2175   -2139.3745    20.197793     20.08183    20.279759           90           90           90 
   74000    257.08209   -159.15573   -126.88895   -159.15573            0    1566.5873    20.443575    19.964872    20.516294            0            0            0    8373.7941   -1092.8768    5908.5925   -115.95387   -822.40639    2570.7057     911.2904    20.443575    19.964872    20.516294           90           90           90 
   74500     258.6696   -159.50326   -127.03722   -159.50326            0    4455.0309    20.180542     20.05997    20.623918            0            0            0    8348.9966    6890.5058    2910.5553    3564.0316   -745.30498    395.00592   -317.96253    20.180542     20.05997    20.623918           90           90           90 
   75000    260.26879   -158.19834   -125.53158   -158.19834            0    3852.7392    20.018981     20.21683    20.693495            0            0            0    8375.0785    1966.0512    5379.0821    4213.0843     1551.459   -2490.5092   -130.97358    20.018981     20.21683    20.693495           90           90           90 
   75500    253.55629   -159.04726     -127.223   -159.04726            0    3507.9787    20.082589    20.076773    20.486455            0            0            0    8260.0071    3401.1153    4979.6187     2143.202    83.557139    610.20393    2435.2074    20.082589    20.076773    20.486455           90           90           90 
   76000    256.33087    -158.6743    -126.5018    -158.6743            0    -1008.141    20.336933    20.130138    20.396739            0            0            0    8350.1243   -2102.5623    1322.7999   -2244.6606    489.15511   -35.599152    -1703.104    20.336933    20.130138    20.396739           90           90           90 
   76500    249.46571   -161.37156   -130.06072   -161.37156            0    2954.0056    20.279112    20.260397    20.367565            0            0            0     8368.276     1727.901     2873.978    4260.1377    -1214.809   -1728.5521    2589.6291    20.279112    20.260397    20.367565           90           90           90 
   77000    246.35772   -160.42728   -129.50653   -160.42728            0    1796.0013    20.025615    20.204683    20.372869            0            0            0    8243.0911       1709.7    1004.3974    2673.9066   -75.373979   -2090.3033   -2138.5895    20.025615    20.204683    20.372869           90           90           90 
   77500    251.44368    -158.2933    -126.7342    -158.2933            0    3811.2629    20.091471    20.138947    20.538062            0            0            0     8310.133    2778.6068    4302.1543    4353.0275    316.21775    1202.5048    2195.8846    20.091471    20.138947    20.538062           90           90           90 
   78000    269.69522   -157.33987   -123.48999   -157.33987            0    2342.5499    20.329265    20.038053    20.572506            0            0            0    8380.3933    1658.5809    2641.9348    2727.1341   -1959.2129    1650.6021   -149.99729    20.329265    20.038053    20.572506           90           90           90 
   78500    255.01078   -160.00992   -128.00311   -160.00992            0    364.67055    20.374363     20.08681     20.49915            0            0            0    8389.3994   -5258.8381    6108.4335    244.41628    1132.0152    2728.8862    1922.2619    20.374363     20.08681     20.49915           90           90           90 
   79000    249.47186   -159.20013   -127.88851   -159.20013            0    2916.6207    20.103763     20.18647    20.290179            0            0            0    8234.2414    3025.6581    3630.3172    2093.8868   -768.74454   -2547.9466     176.8074    20.103763     20.18647    20.290179           90           90           90 
   79500    261.34381    -158.3985   -125.59682    -158.3985            0   -915.53789    20.141479    20.458379    20.422106            0            0            0    8415.1743   -1316.3053   -2308.7413    878.43298   -8.7750727   -455.09994    191.81219    20.141479    20.458379    20.422106           90           90           90 
   80000    264.48957   -158.40418   -125.20767   -158.40418            0    5142.0027    20.116526    20.159262    20.476224            0            0            0    8303.8117    8066.5319    4254.3239    3105.1523   -318.65332   -1618.8627   -1469.6246    20.116526    20.159262    20.476224           90           90           90 
   80500    260.50328   -158.81287   -126.11669   -158.81287            0     3452.056    20.208313    19.931643     20.54152            0            0            0    8273.8137    2452.2647    3990.2533    3913.6501   -165.24477   -731.18998   -642.27168    20.208313    19.931643     20.54152           90           90           90 
   81000    255.42518   -158.56325   -126.50443   -158.56325            0    3346.1946     20.20882    20.129503    20.629786            0            0            0    8392.0629    3218.8249    2745.5712    4074.1876    954.82458    570.20133   -1342.3918     20.20882    20.129503    20.629786           90           90           90 
   81500    251.06369   -158.21248   -126.70108   -158.21248            0    4485.7993    20.060826    20.277042    20.505056            0            0            0    8340.9277    8779.0347    3195.2466    1483.1167   -1347.3138    198.24714    973.04876    20.060826    20.277042    20.505056           90           90           90 
   82000    247.44018   -158.65818   -127.60157   -158.65818            0    4678.9652    20.021457    20.188264    20.347625            0            0            0     8224.479    8740.9015    1571.8623    3724.1318    2076.2656   -3447.8796   -480.38082    20.021457    20.188264    20.347625           90           90           90 
   82500    269.78971   -158.73127   -124.86953   -158.73127            0    1242.3197    20.325073    20.174621    20.550251            0            0            0    8426.6435    2176.4036    16.495257    1534.0601    573.62808    3273.3051    -1423.584    20.325073    20.174621    20.550251           90           90           90 
   83000    264.03463    -158.3946   -125.25519    -158.3946            0    692.03514    20.239124    20.041265     20.62971            0            0            0    8367.7745    2092.8625   -41.449169    24.692067   -248.94908    51.986392   -1407.7798    20.239124    20.041265     20.62971           90           90           90 
   83500    261.80668    -158.6994   -125.83962    -158.6994            0     4016.626    20.010634    20.109735    20.499793            0            0            0    8249.2916    697.20424    7069.2009    4283.4727   -459.34528    1819.8135   -985.17922    20.010634    20.109735    20.499793           90           90           90 
   84000    265.52239   -157.71984    -124.3937   -157.71984            0    4092.8259    20.191354    20.348864    20.516937            0            0            0     8429.817    4771.5565    2474.6162    5032.3051   -1056.1365   -555.20778    1594.5735    20.191354    20.348864    20.516937           90           90           90 
   84500    251.45089   -157.51064   -125.95064   -157.51064            0    3541.9332    20.283213     20.15872    20.480677            0            0            0    8374.2132    2764.4375    4777.3615    3084.0005       1919.8   -2535.2536    -2023.981    20.283213     20.15872    20.480677           90           90           90 
   85000    263.10876   -159.96038   -126.93717   -159.96038            0    1859.7832    20.202739    20.020005    20.529854            0            0            0    8303.4829      679.197      404.706    4495.4466   -1150.4115    1466.1675   -335.77774    20.202739    20.020005    20.529854           90           90           90 
   85500    270.80156   -158.85769   -124.86896   -158.85769            0     2232.072    20.128534    20.058849    20.568756            0            0            0    8304.7427    601.97483    6767.8743   -673.63331    547.18027   -1604.2531     706.1263    20.128534    20.058849    20.568756           90           90           90 
   86000    256.70273   -158.12484   -125.90567   -158.12484            0     917.3193     20.23232    20.248117     20.57001            0            0            0    8426.8414     1449.926   -302.32686    1604.3588   -1335.7753    1271.4207    1248.7486     20.23232    20.248117     20.57001           90           90           90 
   86500    261.74909   -160.28325    -127.4307   -160.28325            0    2057.9537     20.21972    20.230725    20.406469            0            0            0    8347.4618    2092.4735    1898.7214    2182.6662   -1157.5503   -1242.4479   -720.39584     20.21972    20.230725    20.406469           90           90           90 
   87000    256.55098   -160.39407   -128.19395   -160.39407            0    3941.3911    20.170143    20.149807    20.245505            0            0            0    8228.2687    6406.0579     758.7337    4659.3816   -438.27651   -1475.7914   -214.81059    20.170143    20.149807    20.245505           90           90           90 
   87500    257.36431   -159.45735   -127.15515   -159.45735            0    2330.9078    20.249245    20.273462    20.446943            0            0            0     8393.926    725.80904    1216.8155    5050.0989   -960.83491     1253.837    678.00348    20.249245    20.273462    20.446943           90           90           90 
   88000    264.75548   -158.65199   -125.42211   -158.65199            0    3360.5321    20.084116    20.163146    20.564157            0            0            0    8327.6395     3760.774    3680.2306    2640.5916   -1493.3287    2526.7833   -953.12643    20.084116    20.163146    20.564157           90           90           90 
   88500    252.20269   -158.74598   -127.09162   -158.74598            0    2570.2572    20.071177    20.049488    20.608503            0            0            0    8293.2081    5965.4938   -487.28117    2232.5589    429.40335    943.53127    673.50585    20.071177    20.049488    20.608503           90           90           90 
   89000    253.88778   -161.46872   -129.60286   -161.46872            0    5710.5612    20.235568    20.121401    20.442417            0            0            0    8323.4977    5030.2255    7892.1313    4209.3267   -1347.4224   -1229.8403    281.95504    20.235568    20.121401    20.442417           90           90           90 
   89500    250.65685   -160.74796   -129.28762   -160.74796            0    301.80536    20.392658    20.274002    20.206669            0            0            0    8354.2614    -4244.328    1695.8839    3453.8602   -1206.9706     -2148.71   -1885.1244    20.392658    20.274002    20.206669           90           90           90 
   90000    249.49632   -160.10924   -128.79455   -160.10924            0     3878.446    20.292161    20.196166    20.224237            0            0            0    8288.3747    5071.7172    4229.6372    2333.9837    576.45366    1394.1141    1642.8123    20.292161    20.196166    20.224237           90           90           90 
   90500     260.5049   -159.06174   -126.36535   -159.06174            0    5927.4661     20.05121    20.009046     20.50307            0            0            0    8225.9464    4039.5626    5950.1209    7792.7147    480.15011     1563.829    121.61757     20.05121    20.009046     20.50307           90           90           90 
   91000    253.28329    -158.2947   -126.50471    -158.2947            0    4681.8657    20.021934    20.175047    20.863309            0            0            0    8427.5969    4524.4281    5606.7089    3914.4601   -2565.6579    432.56874   -1884.8406    20.021934    20.175047    20.863309           90           90           90 
   91500    242.78419   -160.33569   -129.86346   -160.33569            0    3305.6237    20.055995     20.22799    20.773104            0            0            0    8427.4919    7004.9853     1535.099     1376.787   -280.91898   -1269.4814   -3261.4564    20.055995     20.22799    20.773104           90           90           90 
   92000    251.08729   -158.81242   -127.29806   -158.81242            0    6578.9586    20.127493    19.987706    20.296695            0            0            0    8165.4092    3932.9259    7144.2845    8659.6653    261.44171    2426.3342    1563.6999    20.127493    19.987706    20.296695           90           90           90 
   92500    261.13174   -160.18101   -127.40595   -160.18101            0   -649.84517    20.402375     20.12151    20.332514            0            0            0    8347.0375   -1513.6865    2285.9614   -2721.8105    220.16001   -123.25189   -844.59591    20.402375     20.12151    20.332514           90           90           90 
   93000     255.7177   -158.78197   -126.68643   -158.78197            0    3903.8135     20.21094    20.263739    20.444654            0            0            0    8373.0923     4289.249    2493.9607    4928.2308   -1097.7753   -639.76208    3091.4207     20.21094    20.263739    20.444654           90           90           90 
   93500     253.2645   -158.97665   -127.18902   -158.97665            0    3576.8852    19.981429     20.27029    20.535594            0            0            0    8317.5183    4308.2845    4224.2519    2198.1193    55.506782    1189.0053   -1226.9801    19.981429     20.27029    20.535594           90           90           90 
   94000    251.44875   -159.42039   -127.86066   -159.42039            0    5794.9057    20.036024    20.117855    20.469109            0            0            0     8250.726     6964.889    4033.7768    6386.0513   -789.31525    -1581.087   -249.85109    20.036024    20.117855    20.469109           90           90           90 
   94500    260.22986   -160.34998   -127.68811   -160.34998            0    4581.9316    20.346235    20.129569    20.427612            0            0            0    8366.3522    2262.1454    6902.7003    4580.9492    1164.7263    -1437.064   -959.33414    20.346235    20.129569    20.427612           90           90           90 
   95000    253.28989    -161.1038   -129.31298    -161.1038            0    3292.3006    20.369939    20.171235    20.384343            0            0            0    8375.6582    4450.7675     3029.565    2396.5693    1091.8045   -276.77862    688.33629    20.369939    20.171235    20.384343           90           90           90 
   95500    256.81846   -158.82229   -126.58859   -158.82229            0    3598.9651    20.080319    20.082906    20.330067            0            0            0    8198.5299    3122.5882    2491.0017    5183.3055    1980.6379    123.35396    1817.2029    20.080319    20.082906    20.330067           90           90           90 
   96000    260.98385   -158.38447   -125.62797   -158.38447            0    4953.5889     20.16213    20.161753    20.536073            0            0            0    8347.9937    2097.1113    7788.6742    4974.9811    1001.3009      1706.21    2250.0891     20.16213    20.161753    20.536073           90           90           90 
   96500    260.85128   -158.40964   -125.66978   -158.40964            0    2852.8338    20.211092    20.120525    20.595873            0            0            0    8375.4721    1456.2224    2290.1998    4812.0793    80.013644   -540.54539     2167.546    20.211092    20.120525    20.595873           90           90           90 
   97000    251.36962    -158.4691    -126.9193    -158.4691            0    271.78338    20.160966    20.148448    20.617232            0            0            0    8374.9705    801.86261      2253.52   -2240.0325   -1508.7569   -1020.7191   -1280.5331    20.160966    20.148448    20.617232           90           90           90 
   97500     268.9231   -160.03532   -126.28235   -160.03532            0    3782.6746    19.989946    20.042439    20.402283            0            0            0    8174.1187    3476.5535    4851.1709    3020.2993   -494.99476   -2951.2826   -2706.8362    19.989946    20.042439    20.402283           90           90           90 
   98000    257.60113   -160.49367   -128.16174   -160.49367            0    2001.3761    20.188271    20.295861    20.442858            0            0            0    8376.2227    -374.6937    1697.8194    4681.0025    2685.1097    795.17147   -218.17746    20.188271    20.295861    20.442858           90           90           90 
   98500    255.94914   -158.92799   -126.80341   -158.92799            0    3191.5917    20.316396    20.282285    20.403737            0            0            0    8407.6237    1347.7306    4737.6438    3489.4007   -2876.6895    1343.9963    2585.8168    20.316396    20.282285    20.403737           90           90           90 
   99000    267.44796   -160.67486   -127.10703   -160.67486            0    4973.4827    20.169446    19.946641    20.336313            0            0            0    8181.5569    3666.0453    4198.8174    7055.5856    874.44755    -828.3308   -2706.8791    20.169446    19.946641    20.336313           90           90           90 
   99500    262.53841   -157.63786   -124.68624   -157.63786            0    3109.5094    20.196901    20.034548    20.583994            0            0            0    8329.0204     3128.382    5150.3154    1049.8308   -1786.8846    20.158114    643.52276    20.196901    20.034548    20.583994           90           90           90 
  100000    260.28936   -158.96612   -126.29678   -158.96612            0    3581.1609    20.101635    20.170231    20.628818            0            0            0    8364.0499    4585.5782      2556.27    3601.6345   -71.766383   -1654.7641    323.95707    20.101635    20.170231    20.628818           90           90           90 
  100500    260.06001   -158.56583   -125.92528   -158.56583            0    5438.0878    20.149926    20.247532     20.59731            0            0            0    8403.4199    6020.4667    5301.9322    4991.8644   -468.78739    1366.9158   -299.01817    20.149926    20.247532     20.59731           90           90           90 
  101000    261.01898   -159.86549   -127.10458   -159.86549            0    1872.8937    20.159264    20.046167    20.344115            0            0            0    8221.3817   -787.98915    3409.1115    2997.5587   -91.760219   -293.95103    1385.2094    20.159264    20.046167    20.344115           90           90           90 
  101500    258.72087   -159.84905   -127.37658   -159.84905            0    3175.0088    20.280304    20.206558    20.339677            0            0            0    8335.1006    2106.1021    839.58939    6579.3349    387.65541   -2417.5837    986.06674    20.280304    20.206558    20.339677           90           90           90 
  102000    260.29192   -159.41512   -126.74546   -159.41512            0    2170.4599    20.248747    20.286047    20.462392            0            0            0    8405.2759   -1256.4228    6206.1446     1561.658   -118.41844    1846.3072   -415.79956    20.248747    20.286047    20.462392           90           90           90 
  102500    258.55427    -159.7539   -127.30234    -159.7539            0    3791.6795     20.02698    20.078511    20.567233            0            0            0    8270.3298    4900.6757    2772.9028    3701.4601   -920.88108   -747.17248   -295.18717     20.02698    20.078511    20.567233           90           90           90 
  103000    269.03567   -159.94736   -126.18026   -159.94736            0     3347.669    20.004478    20.013386    20.736585            0            0            0    8302.0441    2155.1241    5796.5325    2091.3504   -588.52749   -687.29631    1662.9935    20.004478    20.013386    20.736585           90           90           90 
  103500    256.34599   -160.41998   -128.24559   -160.41998            0   -228.89472    20.272186    20.134451    20.683827            0            0            0    8442.5043   -2654.9047    2290.3527   -322.13222    34.916349    728.74503    3248.0728    20.272186    20.134451    20.683827           90           90           90 
  104000    267.34577   -159.31744   -125.76245   -159.31744            0     1971.995    20.370454    20.241821    20.282368            0            0            0    8363.1318     2265.287    803.70877    2846.9893   -1377.1288   -1325.3739    782.38906    20.370454    20.241821    20.282368           90           90           90 
  104500    248.21383   -158.48295   -127.32923   -158.48295            0    1748.5359    20.218446    20.263885    20.046767            0            0            0    8213.2461    3212.8731    650.60255    1382.1319     323.8922    8.3009091    735.13906    20.218446    20.263885    20.046767           90           90           90 
  105000    258.49912   -157.85576   -125.41112   -157.85576            0   -1814.1562    20.243831    20.259057    20.413968            0            0            0    8372.1953   -1067.7907   -2979.3375   -1395.3402    216.58767   -1732.5082   -577.06326    20.243831    20.259057    20.413968           90           90           90 
  105500    277.49467   -160.21186   -125.38306   -160.21186            0    5460.0265     20.20683    20.093201    20.689683            0            0            0    8400.4232    4285.7049    6754.9611    5339.4135   -1915.8695   -370.99965    145.36458     20.20683    20.093201    20.689683           90           90           90 
  106000    254.85672   -158.19828    -126.2108   -158.19828            0    1307.3716    20.109147    19.990871    20.683707            0            0            0    8314.8369   -720.52959    2627.9592    2014.6851     980.4187    1123.9416    311.56789    20.109147    19.990871    20.683707           90           90           90 
  106500    264.55195   -159.62604    -126.4217   -159.62604            0    1863.8279    20.159309    20.158863    20.574226            0            0            0     8361.134    3386.0808    332.50766    1872.8951    1156.2743    1222.6049    1176.2089    20.159309    20.158863    20.574226           90           90           90 
  107000    250.26882   -158.49487   -127.08323   -158.49487            0    289.21141    20.236243    20.278823    20.510084            0            0            0    8416.6651   -3338.5756    4437.2521   -231.04225   -1278.9238   -3549.9188    1052.8652    20.236243    20.278823    20.510084           90           90           90 
  107500    263.98405   -159.27859   -126.14552   -159.27859            0    -472.7979     20.15473    20.095279    20.323242            0            0            0    8231.2163   -1503.1987    428.76215   -343.95718    209.24029    2187.3396    4072.3094     20.15473    20.095279    20.323242           90           90           90 
  108000    257.74154    -157.2777   -124.92815    -157.2777            0    662.51955    20.279951    20.155202    20.478309            0            0            0    8370.4378     753.2722   -484.12788    1718.4143   -279.72475    4461.7642   -1316.0082    20.279951    20.155202    20.478309           90           90           90 
  108500    264.86797   -157.75496   -124.51096   -157.75496            0    4476.8087    20.250214    20.058283    20.584342            0            0            0    8361.0412    1627.0359    6309.9978    5493.3924   -1025.0782    1876.0411    1349.1574    20.250214    20.058283    20.584342           90           90           90 
  109000    250.01537   -158.06162    -126.6818   -158.06162            0    2978.3187     20.10078    20.063425    20.692716            0            0            0    8345.1755      4647.03    3598.6467    689.27923     146.0742    1065.8824   -1593.6655     20.10078    20.063425    20.692716           90           90           90 
  109500    264.03604   -159.38631   -126.24672   -159.38631            0    1668.4214    19.942937    20.195687    20.593044            0            0            0    8294.0813    4764.8833   -72.545333    312.92609   -1373.7621   -275.22051    1270.3029    19.942937    20.195687    20.593044           90           90           90 
  110000    251.85167   -158.40236   -126.79205   -158.40236            0    4130.6253    20.134888    20.365964     20.40631            0            0            0    8367.9423    9387.9908   -1091.6776    4095.5626   -1676.9914   -1996.1985    1653.8914    20.134888    20.365964     20.40631           90           90           90 
  110500    247.89635   -158.70124   -127.58737   -158.70124            0    5074.5778    20.375253    20.195575    20.191796            0            0            0    8308.7213    3239.6048    5118.6855    6865.4432   -205.61419    1839.5673    287.19784    20.375253    20.195575    20.191796           90           90           90 
  111000    253.53951   -158.36294   -126.54079   -158.36294            0    1964.7309     20.34489    19.999289    20.311832            0            0            0    8264.5457   -950.65385    5614.2695     1230.577    2374.1062     -114.328    -1643.487     20.34489    19.999289    20.311832           90           90           90 
  111500    262.33344    -159.4106    -126.4847    -159.4106            0    2663.3813    20.068967    20.051648    20.743589            0            0            0     8347.549    3668.0612    2005.3107    2316.7719    587.38519    313.89706    1574.2509    20.068967    20.051648    20.743589           90           90           90 
  112000    258.15802   -158.32587   -125.92404   -158.32587            0    974.02201    20.000593     20.15361    20.901308            0            0            0     8424.986    480.74921    999.80603    1441.5108   -725.84717   -814.66256   -737.76696    20.000593     20.15361    20.901308           90           90           90 
[...]
  373000     243.5613   -160.39779   -129.82802   -160.39779            0    1743.4662    20.266821    20.246974    20.414825            0            0            0     8377.056    6069.4973   -2434.2462    1595.1475   -1135.9194     1038.913    1312.5265    20.266821    20.246974    20.414825           90           90           90 
  373500    251.53049    -159.5956    -128.0256    -159.5956            0    3030.2441    20.145739    20.182185    20.496561            0            0            0     8333.595    3958.0171    3244.5748    1888.1406    5.9679116   -1616.2866    733.65733    20.145739    20.182185    20.496561           90           90           90 
  374000    254.60201   -157.02868   -125.07318   -157.02868            0     2513.537    19.996814    20.071684    20.656823            0            0            0    8291.0236    1411.2683    2048.5075    4080.8352    293.03618    1771.1155   -3318.9491    19.996814    20.071684    20.656823           90           90           90 
  374500    268.32121   -157.35613    -123.6787   -157.35613            0    2683.9648     19.96277    20.128283    20.728769            0            0            0    8329.1567    2495.5407    5323.5912    232.76245    1836.6548    127.37081    617.44401     19.96277    20.128283    20.728769           90           90           90 
  375000     269.4726   -157.90489   -124.08295   -157.90489            0    4374.6689    20.129178    20.405639    20.602851            0            0            0    8462.5953    7021.5038    3529.9165    2572.5863   -549.69782    -830.6085   -645.51912    20.129178    20.405639    20.602851           90           90           90 
  375500    262.80187   -159.39748    -126.4128   -159.39748            0    3774.3073    20.313905    20.310654    20.248055            0            0            0    8354.1189    1821.9015    3868.4884     5632.532   -920.73275   -747.79547   -514.96693    20.313905    20.310654    20.248055           90           90           90 
  376000    266.88667   -158.77633   -125.27895   -158.77633            0    5328.9315     20.40011    20.010331    20.147662            0            0            0    8224.5367    545.87495    7936.0974    7504.8222    1106.7395   -2169.0149    729.35286     20.40011    20.010331    20.147662           90           90           90 
  376500    269.82749   -158.44443   -124.57795   -158.44443            0    4175.2581    20.333453    20.148216    20.513504            0            0            0    8404.0295    3655.6527    598.26188    8271.8597   -2421.3731    532.17735   -1255.2313    20.333453    20.148216    20.513504           90           90           90 
  377000     260.4235   -161.12345   -128.43728   -161.12345            0    386.22703     20.11547    20.196226    20.720247            0            0            0    8417.7366   -1113.2613    3291.9219   -1019.9795    505.27055    578.73023   -1326.4247     20.11547    20.196226    20.720247           90           90           90 
  377500    261.73993   -160.73226   -127.88086   -160.73226            0    3840.7984    19.934091    20.059622    20.588729            0            0            0    8232.8218    5325.5663    1465.4871    4731.3418     1093.276    387.78398    1588.9739    19.934091    20.059622    20.588729           90           90           90 
  378000    247.76113   -157.80597   -126.70907   -157.80597            0    2244.6351    20.161429       20.195    20.559342            0            0            0    8370.9434    3866.0114      582.785     2285.109   -294.49969   -1326.0567    124.44304    20.161429       20.195    20.559342           90           90           90 
  378500     254.8721   -159.71021   -127.72081   -159.71021            0    1296.7886    20.284266     20.20061    20.472386            0            0            0    8388.6536   -161.21452    1717.7427    2333.8376    1099.7608    892.79839   -2445.1883    20.284266     20.20061    20.472386           90           90           90 
  379000    257.55635   -158.59669   -126.27038   -158.59669            0    1121.3782    20.193721    20.103784    20.418256            0            0            0    8289.2035    678.18978    1521.1112    1164.8336   -77.594305   -520.91569    2663.7344    20.193721    20.103784    20.418256           90           90           90 
  379500     247.2906   -158.65327   -127.61544   -158.65327            0    4365.7198    20.177783     20.16758    20.556101            0            0            0    8365.0392    92.386856    8578.8749    4425.8975   -853.07348    482.19228    1043.6985    20.177783     20.16758    20.556101           90           90           90 
  380000     254.5876   -159.63025   -127.67656   -159.63025            0     5915.413    20.027484     20.11888    20.615374            0            0            0    8306.5643    6495.9757    6750.3766    4499.8866    -518.9077    1290.2753    2404.3842    20.027484     20.11888    20.615374           90           90           90 
  380500    260.10985   -161.04399   -128.39719   -161.04399            0    3713.9633    20.132009    20.191243    20.646371            0            0            0    8392.5493    6387.1415    1530.3096    3224.4387    1743.4444    1887.0464   -1414.3634    20.132009    20.191243    20.646371           90           90           90 
  381000    251.03666   -158.93882   -127.43081   -158.93882            0    4247.1949    20.245356    20.118844     20.50584            0            0            0    8352.2981     6334.038    2559.4158    3848.1309    437.63807   -1317.9454    70.919294    20.245356    20.118844     20.50584           90           90           90 
  381500    269.82368   -157.36174   -123.49574   -157.36174            0    4767.2596    20.277389    20.123397    20.319943            0            0            0    8291.5516    1449.1369    5287.8249     7564.817    1216.5967    3198.7936    1045.9089    20.277389    20.123397    20.319943           90           90           90 
  382000    254.37937   -158.37447   -126.44691   -158.37447            0    4769.3631    20.245739    20.307462    20.438342            0            0            0     8403.011    5177.1701    4115.5317    5015.3875   -47.761026    1849.1498    1341.9676    20.245739    20.307462    20.438342           90           90           90 
  382500    266.67943   -157.63767   -124.16631   -157.63767            0    2780.4726      20.0481    20.297795    20.689519            0            0            0    8419.2316    6650.0717   -1925.5651    3616.9113    -426.9585   -600.58555   -2783.6124      20.0481    20.297795    20.689519           90           90           90 
  383000    266.01111    -158.3565   -124.96901    -158.3565            0     6140.508    19.997293    19.967044    20.717859            0            0            0    8272.3683     2833.207    10502.216     5086.101    471.47332   -250.78147    1591.4812    19.997293    19.967044    20.717859           90           90           90 
  383500    267.24114   -156.63896    -123.0971   -156.63896            0   -127.92619    20.316523     20.03936    20.751029            0            0            0    8448.3691    2797.1663   -1365.0637   -1815.8812   -612.27599   -851.17807   -1995.9673    20.316523     20.03936    20.751029           90           90           90 
  384000    251.02051   -157.92582   -126.41983   -157.92582            0    150.89302    20.281546     20.15754    20.523737            0            0            0    8390.6389    2774.0889   -2442.6059    121.19604    695.17971   -369.69517    1148.0941    20.281546     20.15754    20.523737           90           90           90 
  384500    261.81621   -159.79066   -126.92969   -159.79066            0    4303.0912    20.111553    20.247488    20.382286            0            0            0    8299.8388    7398.3632    1335.8091    4175.1015   -314.82874    1247.0677    1656.3746    20.111553    20.247488    20.382286           90           90           90 
  385000    253.32844   -160.24834   -128.45269   -160.24834            0    3713.7739    20.008774    20.221179    20.387688            0            0            0    8248.8788    3953.6825    1755.6225    5432.0168   -1453.1703     932.4406     3561.458    20.008774    20.221179    20.387688           90           90           90 
  385500    250.34538   -159.83336   -128.41211   -159.83336            0    4502.1619    20.175645    20.191464    20.565727            0            0            0    8377.9797    3790.7315    6053.7321     3662.022   -1408.7551    446.60271   -1660.8311    20.175645    20.191464    20.565727           90           90           90 
  386000    251.53979    -158.3458   -126.77464    -158.3458            0    1197.1626    20.238443    20.133048    20.705823            0            0            0     8436.827    3385.5376    283.60625   -77.656089   -70.819592    525.31356    -1680.792    20.238443    20.133048    20.705823           90           90           90 
  386500    265.39301   -158.88604   -125.57613   -158.88604            0    3469.2256     20.05891    19.973481    20.496943            0            0            0    8212.0231    4366.8235    2007.0444     4033.809    71.086585    1365.6681     707.5884     20.05891    19.973481    20.496943           90           90           90 
  387000    257.24698   -158.87273   -126.58525   -158.87273            0    4618.2792    20.236093    20.171108    20.523796            0            0            0    8377.4937    5505.5436    7128.7435    1220.5504   -426.48939    345.51855   -3142.9996    20.236093    20.171108    20.523796           90           90           90 
  387500    262.91964   -158.86631   -125.86685   -158.86631            0    3878.1385    20.304142    20.206489    20.497376            0            0            0    8409.5696   -592.33289    4441.8669    7784.8816    -420.1549   -1068.3063    697.90324    20.304142    20.206489    20.497376           90           90           90 
  388000    251.93585   -160.29413   -128.67326   -160.29413            0    4143.5702    20.112865    20.009413    20.424568            0            0            0     8219.798    1629.7271    8950.6976     1850.286   -449.83037    2040.9981   -282.74949    20.112865    20.009413    20.424568           90           90           90 
  388500    244.34149   -159.67106   -129.00337   -159.67106            0    3076.4486    20.079957     20.11137    20.516206            0            0            0    8285.1711     6232.618   -491.68862    3488.4165    1383.4419    1701.2652     1994.905    20.079957     20.11137    20.516206           90           90           90 
  389000    250.47062   -160.36942   -128.93245   -160.36942            0   -548.93151    20.149983    20.298899    20.624246            0            0            0    8435.7802    1366.0555   -2581.2357   -431.61428    789.49007   -923.10292    3740.5367    20.149983    20.298899    20.624246           90           90           90 
  389500    259.37046   -159.97689   -127.42289   -159.97689            0    2762.8726    20.065055    20.176028    20.506757            0            0            0    8301.8143    5080.8713   -2208.3246     5416.071    2818.3325    759.33244    1551.8582    20.065055    20.176028    20.506757           90           90           90 
  390000    246.66513   -159.72085   -128.76152   -159.72085            0    2225.0587     20.16453    19.969807    20.376474            0            0            0    8205.2343    1033.5019    4837.7331    803.94104    441.26092    761.82609   -89.714505     20.16453    19.969807    20.376474           90           90           90 
  390500    250.67761   -158.02654   -126.56359   -158.02654            0    646.29835    20.454251     20.07483    20.503426            0            0            0    8419.0267    1932.0999    1425.7252     -1418.93    2388.1738    896.43266   -1502.5045    20.454251     20.07483    20.503426           90           90           90 
  391000    262.02972   -157.55857    -124.6708   -157.55857            0    3749.5785    20.301074     20.19348    20.583714            0            0            0    8438.2796    1251.2967    4788.5837     5208.855   -2333.8949    358.13019   -460.74224    20.301074     20.19348    20.583714           90           90           90 
  391500    268.73323    -156.2233   -122.49416    -156.2233            0    4956.9111     19.92488    20.183448    20.657194            0            0            0    8307.3483    7100.0135    1235.8137     6534.906   -620.03509   -393.50338   -612.03573     19.92488    20.183448    20.657194           90           90           90 
  392000    247.23999   -160.19988   -129.16839   -160.19988            0    5192.9377    19.936793    20.181285     20.66572            0            0            0    8314.8543    5219.3111    5998.5946    4360.9074    1590.4783   -2058.3093   -133.94221    19.936793    20.181285     20.66572           90           90           90 
  392500    254.16323   -160.06069   -128.16026   -160.06069            0    823.26636    20.291214    20.200016    20.606825            0            0            0    8446.3843   -2068.5636    3049.0225    1489.3402     3089.515    428.71732   -348.88961    20.291214    20.200016    20.606825           90           90           90 
  393000    261.27234   -158.49623   -125.70352   -158.49623            0    713.77026    20.314636      20.0672    20.390681            0            0            0    8312.4212    118.33546   -26.989958    2049.9653    -1599.154   -1727.5765   -2100.8287    20.314636      20.0672    20.390681           90           90           90 
  393500    278.43581   -158.35161   -123.40469   -158.35161            0    3547.1598    20.199733    20.101588    20.416626            0            0            0    8290.1036    3171.3577    610.03275    6860.0889    1627.4016    807.16397    180.33515    20.199733    20.101588    20.416626           90           90           90 
  394000    261.35275   -159.79916   -126.99635   -159.79916            0    1945.5049    20.146127    20.248258    20.570376            0            0            0    8391.1494    2813.0003    3239.2653   -215.75082   -1913.3424    -159.2636     671.1234    20.146127    20.248258    20.570376           90           90           90 
  394500    256.07378   -159.68091   -127.54068   -159.68091            0    3059.8107    20.153227    20.129814    20.616873            0            0            0    8363.8677    2053.3511    2525.8639    4600.2172    56.188403   -2789.6815     963.4074    20.153227    20.129814    20.616873           90           90           90 
  395000    263.24345   -158.99041    -125.9503   -158.99041            0    6010.4822    20.178917     19.94732    20.528134            0            0            0    8262.8885    5572.8689    7486.0336    4972.5441    917.60845    -1693.718    1288.3499    20.178917     19.94732    20.528134           90           90           90 
  395500    248.88419   -159.41898   -128.18112   -159.41898            0    349.22728    20.348138    20.144732     20.48175            0            0            0    8395.6288   -1547.6154    1746.2949    849.00234    519.51005    48.820791   -829.60666    20.348138    20.144732     20.48175           90           90           90 
  396000    259.03548   -160.41759   -127.90563   -160.41759            0    2808.0674    20.164701    20.370565     20.29894            0            0            0    8338.1216    1186.1551    419.35878    6818.6882   -6.6762724    656.78411    57.882561    20.164701    20.370565     20.29894           90           90           90 
  396500    243.19863    -159.3523   -128.82805    -159.3523            0    4045.8375    19.972972    20.290564    20.253422            0            0            0    8207.9596    5624.2385    2456.6783    4056.5956   -105.96029   -58.897131    1863.3023    19.972972    20.290564    20.253422           90           90           90 
  397000    265.61014   -160.17032   -126.83317   -160.17032            0     2995.104    20.264951    20.171519    20.570719            0            0            0    8408.7925    3018.9039    2871.6099    3094.7982   -487.01199    1294.1162   -1493.7959    20.264951    20.171519    20.570719           90           90           90 
  397500     263.3981   -159.42364   -126.36413   -159.42364            0    4472.3812      20.3365    19.923378    20.649911            0            0            0    8366.7612    3096.7547    7820.0934    2500.2956    54.824195    715.52401    2231.8362      20.3365    19.923378    20.649911           90           90           90 
  398000    267.07419   -159.84522   -126.32431   -159.84522            0    592.88159    20.264251    20.051529    20.687183            0            0            0     8405.807   -151.43095    3851.2588    -1921.183   -653.23853   -1129.6735    3213.4104    20.264251    20.051529    20.687183           90           90           90 
  398500    269.93721   -159.49337   -125.61312   -159.49337            0     3717.039    20.045858    20.173689    20.485663            0            0            0    8284.3798    5141.0844    842.19176    5167.8407   -509.00974    1710.3207    525.44141    20.045858    20.173689    20.485663           90           90           90 
  399000    254.53097   -161.98093   -130.03434   -161.98093            0    949.61902    20.126174    20.312666    20.417913            0            0            0    8347.1742    2875.2277    -1323.015    1296.6443   -1322.5771     457.8418    1645.5047    20.126174    20.312666    20.417913           90           90           90 
  399500    246.87307   -158.42189   -127.43646   -158.42189            0    569.10147    20.252525    20.147028    20.394967            0            0            0    8321.7214   -2723.3917    1154.6521    3276.0441    -663.5552    640.69256   -1507.7779    20.252525    20.147028    20.394967           90           90           90 
  400000    257.07628   -160.64251   -128.37646   -160.64251            0    1719.8011    20.231183    20.047403     20.41697            0            0            0    8280.7695   -2866.6833    6022.5843    2003.5022   -775.15439   -526.95099    2150.0396    20.231183    20.047403     20.41697           90           90           90 
Loop time of 2414.8 on 1 procs for 400000 steps with 972 atoms

Performance: 7.156 ns/day, 3.354 hours/ns, 165.645 timesteps/s
70.8% CPU use with 1 MPI tasks x 1 OpenMP threads

MPI task timing breakdown:
Section |  min time  |  avg time  |  max time  |%varavg| %total
---------------------------------------------------------------
Pair    | 2146.2     | 2146.2     | 2146.2     |   0.0 | 88.88
Bond    | 0.06065    | 0.06065    | 0.06065    |   0.0 |  0.00
Neigh   | 240.18     | 240.18     | 240.18     |   0.0 |  9.95
Comm    | 9.6269     | 9.6269     | 9.6269     |   0.0 |  0.40
Output  | 1.8946     | 1.8946     | 1.8946     |   0.0 |  0.08
Modify  | 15.475     | 15.475     | 15.475     |   0.0 |  0.64
Other   |            | 1.395      |            |       |  0.06

Nlocal:        972.000 ave         972 max         972 min
Histogram: 1 0 0 0 0 0 0 0 0 0
Nghost:        4601.00 ave        4601 max        4601 min
Histogram: 1 0 0 0 0 0 0 0 0 0
Neighs:         0.00000 ave           0 max           0 min
Histogram: 1 0 0 0 0 0 0 0 0 0
FullNghs:      244974.0 ave      244974 max      244974 min
Histogram: 1 0 0 0 0 0 0 0 0 0

Total # of neighbors = 244974
Ave neighs/atom = 252.03086
Ave special neighs/atom = 0.0000000
Neighbor list builds = 40000
Dangerous builds not checked

unfix		3
unfix		2

write_data	data.final.${pid}
write_data	data.final.0
System init for write_data ...

write_restart   restart.lmp.${pid}
write_restart   restart.lmp.0
System init for write_restart ...
Total wall time: 0:40:41
