LAMMPS data file via write_data, version 23 Jun 2022, timestep = 400000

972 atoms
2 atom types

-0.0101467514448359 20.00119975144494 xlo xhi
0.043731572123455464 19.947321427875302 ylo yhi
0.28916169453171214 20.51161030546551 zlo zhi

Masses

1 1.008
2 15.999

Atoms # full

2 0 2 0 2.2737658472151034 2.4916143154759065 0.43605634163177065 0 0 0
31 0 1 0 1.2000590359838692 2.133330358743643 2.1660939236895924 0 0 0
32 0 2 0 0.8787066613604212 1.200499746705075 2.2117557904672696 0 0 0
33 0 2 0 1.5436414114129142 2.3747541244432693 3.0483461030962204 0 0 0
5 0 2 0 3.6411560302558925 1.4531297507581231 3.648034573677272 0 0 0
10 0 1 0 1.4855344264690629 4.369887751577613 4.019179257861915 0 0 0
18 0 2 0 4.533872699768278 3.78207799020388 3.284986436278321 0 0 0
4 0 1 0 4.461542222810724 1.6977285068783463 3.2058048678197015 0 0 0
6 0 2 0 5.13246251738616 1.4232279961398073 3.856631578633737 0 0 0
35 0 2 0 4.589322153682914 3.2294093363489345 0.9024561449137323 0 0 0
230 0 2 0 4.752543241568859 0.4253500662805184 2.1833466510473727 0 1 0
36 0 2 0 5.974290871875977 2.6808225261258953 1.4469245857438873 0 0 0
34 0 1 0 5.502546461689862 2.9801908855130748 0.641323799543982 0 0 0
67 0 1 0 7.36414561190782 2.268581732515237 2.573124522481723 0 0 0
68 0 2 0 7.523498415946743 2.922993414526055 3.2566327262774335 0 0 0
16 0 1 0 4.316300477900224 4.673276017625873 3.4519189285764322 0 0 0
272 0 2 0 7.6788976008592975 0.18096876862211658 2.8014237115017004 0 1 0
46 0 1 0 8.081263288795977 4.732534284883133 3.8490730076188044 0 0 0
69 0 2 0 8.124434153121694 2.379919582421861 2.004764934867196 0 0 0
41 0 2 0 10.345267861475241 1.1946359117760244 4.016168369315748 0 0 0
40 0 1 0 11.213598997255824 1.4013103324086635 3.5364848158487843 0 0 0
54 0 2 0 10.975359163758005 3.2538550240130015 3.8897802286483256 0 0 0
42 0 2 0 11.858991554070029 1.0127845230064265 4.232167508092981 0 0 0
52 0 1 0 10.95257441666356 4.20015957818593 3.926071323476733 0 0 0
70 0 1 0 11.956893939985635 2.3132441481749795 0.8575409979871673 0 0 0
39 0 2 0 10.126477584526171 2.264286271817801 0.6568805299226547 0 0 0
51 0 2 0 10.903572920060103 5.005531714789339 2.413112291914654 0 0 0
47 0 2 0 8.919211910919437 4.416880643465827 4.242819753540514 0 0 0
37 0 1 0 9.126099404179323 2.4113813285472707 0.5398459379767901 0 0 0
72 0 2 0 12.510247901800668 2.363088591804064 1.6647263145641236 0 0 0
103 0 1 0 14.361777297912694 1.9209310719930637 2.334239161941698 0 0 0
105 0 2 0 14.24602851947352 0.9639767282763004 2.2165830513028113 0 0 0
84 0 2 0 14.347444534324255 3.3454226026905474 3.385348382044763 0 0 0
104 0 2 0 14.930453625954758 2.248464882213339 1.6526449951426039 0 0 0
82 0 1 0 14.52778571385539 4.122049546300334 4.000236817413809 0 0 0
83 0 2 0 14.423556786947739 4.808739307731431 3.343922030655568 0 0 0
108 0 2 0 19.741787802827318 2.6161750683012213 1.5117186125942808 0 0 0
76 0 1 0 17.358980713810563 1.2775687357677372 3.480087866158568 0 0 0
89 0 2 0 17.201534495380418 3.1139350690796332 3.446260089961481 0 0 0
77 0 2 0 17.507311312413858 0.7164453990251279 2.6819681498237036 0 0 0
107 0 2 0 18.187190667178815 2.7964608549450727 0.9387369682028148 0 0 0
78 0 2 0 18.155743006452855 1.092314702069268 4.005221801546796 0 0 0
106 0 1 0 19.12199553810416 2.524673781412595 0.7408154840802987 0 0 0
88 0 1 0 17.230732175823135 4.074077092632494 3.6193347924926003 0 0 0
90 0 2 0 16.31958487466718 4.2441775859043 3.9595763627086735 0 0 0
73 0 1 0 16.272189427352025 2.728651813267594 0.5793063205519318 0 0 0
75 0 2 0 16.064136725699438 3.659164827718158 0.36235480175893053 0 0 0
20 0 2 0 1.1170469916562513 5.247116176339068 2.511379629690371 0 0 0
19 0 1 0 0.9363928073637656 5.853845470051362 1.8164966327527257 0 0 0
21 0 2 0 1.0118575877344207 6.744325527876959 2.231354719423117 0 0 0
139 0 1 0 0.6825487600655616 8.642861334677772 2.524969718930111 0 0 0
141 0 2 0 1.247837608825815 8.78171813241168 1.74263918195142 0 0 0
119 0 2 0 1.0482453522821455 9.931459023894867 3.7688702334791597 0 0 0
110 0 2 0 3.2546626043190066 9.12207935849545 0.4601772107480582 0 0 0
675 0 2 0 2.028176550898835 5.726283453118155 0.64294638166543 0 0 1
109 0 1 0 2.303936528034032 9.375006961339732 0.41078097543710523 0 0 0
17 0 2 0 4.473057956393626 5.2762035863831045 2.7013046586346485 0 0 0
112 0 1 0 4.091851786375897 8.27759142155321 3.452140291052237 0 0 0
14 0 2 0 4.139570889585036 6.034571775792812 0.5561688031489278 0 0 0
114 0 2 0 4.067875089191443 7.647618152947279 2.7400360937773365 0 0 0
13 0 1 0 4.63548228588539 6.326119136582788 1.3194780598501585 0 0 0
113 0 2 0 4.730690543946424 7.9243759682494535 4.111031899542915 0 0 0
56 0 2 0 7.510848202160577 5.453163326231681 2.4615643591326144 0 0 0
15 0 2 0 5.6114661462426945 6.108740943460623 1.268804846938109 0 0 0
55 0 1 0 7.166758330502917 5.916237129916643 1.7188432939231042 0 0 0
177 0 2 0 7.125774352890702 7.576833660459188 1.9719877350961148 0 0 0
57 0 2 0 7.848837339941359 5.679797034492236 1.0415460408762636 0 0 0
126 0 2 0 4.099772956891865 9.802681161816949 3.496371855577909 0 0 0
176 0 2 0 6.330867314257131 8.660570104850601 1.2321855979036758 0 0 0
175 0 1 0 7.032972859713182 8.53391487097353 1.9206611462314587 0 0 0
142 0 1 0 4.924552806758342 9.013034506112925 0.4036541505716116 0 0 0
155 0 2 0 7.551022518115054 9.521477147455311 3.4834081312661223 0 0 0
149 0 2 0 9.69879026936865 7.5832872667820235 3.559477804148424 0 0 0
50 0 2 0 10.59842022024522 5.668223000864893 0.9615370494800146 0 0 0
49 0 1 0 11.233378179023632 5.622701830142669 1.6974298516212718 0 0 0
150 0 2 0 10.804132780846993 6.862797022754888 2.670552294687074 0 0 0
148 0 1 0 10.591059050552307 7.687597007107502 3.224120827004896 0 0 0
147 0 2 0 8.516514857233036 8.927543298830942 1.2180382804915775 0 0 0
179 0 2 0 11.020543122828352 8.971780152029423 0.476175621804202 0 0 0
178 0 1 0 11.988199882566677 8.908180823181718 0.3197907211336247 0 0 0
162 0 2 0 10.756075840344094 9.435344049168627 3.1956762289988996 0 0 0
145 0 1 0 9.156835720148589 9.21805349494553 0.5794329052925894 0 0 0
91 0 1 0 13.996030407845995 5.866520220425086 1.9107913058265344 0 0 0
92 0 2 0 13.975987548579313 6.8303212339330495 2.170709328896274 0 0 0
93 0 2 0 13.038074811752317 5.614849078389181 1.7407122276673583 0 0 0
747 0 2 0 15.163624134790576 5.709617424540327 0.6215607598238279 0 0 1
211 0 1 0 13.782638571848521 8.625017490352295 2.290599769870957 0 0 0
213 0 2 0 12.979274196822313 8.619277212539421 1.8698281801534453 0 0 0
212 0 2 0 13.813676399980467 9.309816551693666 3.0320530731443354 0 0 0
183 0 2 0 15.276891569843388 8.961548645359164 1.0221083483296936 0 0 0
86 0 2 0 17.931219130499226 5.238932169330839 2.0655504864047267 0 0 0
85 0 1 0 18.16290842165414 6.063088463321315 1.5189098791637388 0 0 0
87 0 2 0 19.098539190976293 5.962676528379778 1.5208850433628116 0 0 0
185 0 2 0 17.435124247583534 7.506873652562286 2.504959379477907 0 0 0
746 0 2 0 16.70605660670735 5.895434884025005 0.5166059279993327 0 0 1
184 0 1 0 17.27840873804609 7.996400171386111 3.2990919301479944 0 0 0
140 0 2 0 19.758714104735276 8.741422365987129 2.3247722004035265 -1 0 0
186 0 2 0 17.250134785293316 8.986457960630423 3.091156829515688 0 0 0
214 0 1 0 18.626668546626004 9.282978915575242 0.7041035932541563 0 0 0
216 0 2 0 17.644277868989604 9.177915572913673 0.5282019808349515 0 0 0
782 0 2 0 1.6877226371312228 12.172085265596635 0.8288712396573615 0 0 1
129 0 2 0 0.8452505528791743 12.145047955548089 3.064503795098069 0 0 0
123 0 2 0 3.808359970227427 12.297736988617043 0.996675699873666 0 0 0
127 0 1 0 0.7411389200609364 12.663851932899563 2.2877688552164965 0 0 0
221 0 2 0 2.919024158119825 14.402057609348606 3.5570199258192097 0 0 0
249 0 2 0 0.4907623569757258 14.48153127825615 2.475304778194802 0 0 0
220 0 1 0 3.7702566681831957 14.62707125765715 3.148312365545788 0 0 0
222 0 2 0 3.9898672463286697 13.859263407502496 2.590782713217141 0 0 0
124 0 1 0 4.091357769113156 10.70981531873054 3.797125176757351 0 0 0
122 0 2 0 4.331271649375463 11.595009152740872 2.3217756918335404 0 0 0
156 0 2 0 7.4455835463236815 10.973396341300823 3.5187951403515747 0 0 0
154 0 1 0 7.89724110778641 10.241777921483715 3.9701987944639354 0 0 0
121 0 1 0 4.309039178992289 12.3788154492535 1.7810910741961214 0 0 0
163 0 1 0 7.121703858233217 12.465979520585568 2.1516012170216703 0 0 0
165 0 2 0 6.176720102714403 12.498298188671207 1.9644924061513325 0 0 0
164 0 2 0 7.399775039879633 13.396272427801286 2.291787305604119 0 0 0
161 0 2 0 9.675569619735004 10.467584654070393 3.556461573159676 0 0 0
819 0 2 0 8.141994809667679 12.163485311100365 0.6235959308347487 0 0 1
818 0 2 0 9.684736225338488 12.030419119791208 0.45388981250534743 0 0 1
160 0 1 0 10.632392943369087 10.36402594817694 3.3959222586534272 0 0 0
158 0 2 0 11.114972237252678 11.687932751431003 2.1818763220762962 0 0 0
258 0 2 0 10.032309743468392 14.325754226108057 3.920135621480971 0 0 0
157 0 1 0 11.155423119821256 12.401135940971528 1.4967684184868777 0 0 0
159 0 2 0 10.853489215279318 13.207752121273561 1.9099475291878278 0 0 0
256 0 1 0 10.786435211077475 14.461190195082187 3.268127997555485 0 0 0
191 0 2 0 14.489033212027318 11.655770173175368 3.2995358994423225 0 0 0
190 0 1 0 14.699826070345448 10.869701927248684 3.84959580061111 0 0 0
192 0 2 0 15.645810366098045 10.78273970531207 3.927804717635412 0 0 0
199 0 1 0 13.874114156374457 12.732559951864403 2.158843266064946 0 0 0
200 0 2 0 12.93519098860827 12.694352110270964 1.8150824971119774 0 0 0
201 0 2 0 13.966257754645422 13.666112044720567 2.3727960780883235 0 0 0
855 0 2 0 15.231836611409545 12.02213648833414 0.9650857896598721 0 0 1
281 0 2 0 12.114998205520749 14.09772840712858 4.283658936439407 0 0 0
197 0 2 0 17.770058113037646 11.323331110975483 2.8865694865283023 0 0 0
196 0 1 0 17.51697702765833 10.66663448633559 3.5469671533675924 0 0 0
128 0 2 0 19.883160320804627 12.356967623376947 1.9791764575631632 -1 0 0
195 0 2 0 17.337181614798546 12.613106202583822 0.8819731180157412 0 0 0
193 0 1 0 18.006899015473152 12.762369142280852 1.5604232783389447 0 0 0
194 0 2 0 17.72174665810857 13.461804026408057 2.1278091294264385 0 0 0
294 0 2 0 16.862052942282563 14.594505430495895 3.898226454560657 0 0 0
292 0 1 0 17.655499539504774 14.752238362824516 3.3871941133110854 0 0 0
247 0 1 0 0.6167845788658358 15.444257363396508 2.280076047954852 0 0 0
218 0 2 0 2.190966341584203 15.727461550205998 0.9755624434447553 0 0 0
227 0 2 0 1.361970110923684 16.710660955070107 3.3866997264421164 0 0 0
235 0 1 0 0.6990523995004974 19.320927221147127 1.8228320092472245 0 0 0
236 0 2 0 0.8112717097707821 18.7773396209655 2.646388147130195 0 0 0
237 0 2 0 1.3963060128976894 18.969077478923477 1.2040485191517953 0 0 0
226 0 1 0 1.6642092481709563 17.60335996192298 3.641811070944888 0 0 0
891 0 2 0 3.8210795716822816 19.015101164370904 0.3134826143377636 0 0 1
228 0 2 0 2.6601814711968337 17.636527394638918 3.5758320946317403 0 0 0
283 0 1 0 7.3842944787991875 15.311670478524611 2.3699862021911016 0 0 0
284 0 2 0 6.645493996910606 15.655082103379534 1.8916652735800539 0 0 0
233 0 2 0 4.518203845009077 16.70329070886117 3.5752707690002534 0 0 0
232 0 1 0 4.529080987248334 17.64427187425738 3.758512873860764 0 0 0
251 0 2 0 4.340958224071329 16.31860120281613 0.6878880212696572 0 0 0
234 0 2 0 4.735894542925774 18.15311894388567 2.95219690857319 0 0 0
229 0 1 0 5.056943922419391 19.54004995550856 1.63542768031111 0 0 0
250 0 1 0 5.26771173536644 16.30968985000196 0.5644546351930575 0 0 0
271 0 1 0 7.4461472074055735 19.248437281419985 2.3543253170386356 0 0 0
231 0 2 0 5.993089654706864 19.503017845941073 1.7292478810680518 0 0 0
273 0 2 0 7.677724638041384 18.555648038392928 2.9814685845854303 0 0 0
285 0 2 0 8.08982585664462 15.376113858715074 1.7015105607707257 0 0 0
257 0 2 0 10.957682887410398 15.379770392579616 3.3743447636011528 0 0 0
255 0 2 0 10.175222714934849 15.785746174307972 0.5359895646368953 0 0 0
286 0 1 0 11.871169536645237 15.758906393584105 0.8664315499514226 0 0 0
262 0 1 0 8.270590771629562 17.32085892933693 4.060848108978478 0 0 0
263 0 2 0 8.298281862895651 16.425546314358403 3.689517917918297 0 0 0
927 0 2 0 8.13135681294171 18.799068638807498 0.46858750182031567 0 0 1
264 0 2 0 9.213316956615945 17.421177995024216 4.22726018173998 0 0 0
266 0 2 0 10.830557760886451 19.93309559827665 2.070816242167579 0 0 0
267 0 2 0 10.256661926348801 18.918361378758455 1.1291031726616292 0 0 0
265 0 1 0 11.00599825036526 19.120339646154193 1.65700634322027 0 0 0
268 0 1 0 11.087408773139131 17.12618001695656 3.725123227889963 0 0 0
269 0 2 0 11.249597714159412 17.70859162703404 2.934074685841297 0 0 0
319 0 1 0 14.218554079435776 15.33095162195339 2.1970441722682335 0 0 0
320 0 2 0 13.464223672301468 15.662315457044082 1.7364385267100413 0 0 0
321 0 2 0 14.44632645063055 15.822096812157408 3.043813411281078 0 0 0
291 0 2 0 15.640972163574775 15.510414645081358 0.9997188500813414 0 0 0
307 0 1 0 13.988063950144689 18.948508895455344 2.223473669552109 0 0 0
308 0 2 0 13.053104880662243 18.962908471228424 2.049222680418599 0 0 0
309 0 2 0 14.144189347373358 18.111580048714465 2.6909979675455946 0 0 0
963 0 2 0 15.023600623792507 18.587759075650926 0.6124876421551554 0 0 1
298 0 1 0 14.8513044795828 17.000636545271004 4.162663716656139 0 0 0
300 0 2 0 15.747361638177185 17.310999743866695 4.079460763571733 0 0 0
287 0 2 0 12.144207510872413 16.636510329791186 0.5419836311341228 0 0 0
248 0 2 0 19.9380331581278 15.720587096368067 1.6747746026127652 -1 0 0
290 0 2 0 17.077720384508158 15.770212386308927 0.4107673069970971 0 0 0
293 0 2 0 17.74649297500577 15.678207874030457 3.1956910264810117 0 0 0
322 0 1 0 18.747210963240484 16.06161977279985 0.4630171355538514 0 0 0
301 0 1 0 17.866384740301324 19.32560157693381 1.6031339328338485 0 0 0
302 0 2 0 17.269509471743106 19.109439728366315 0.8670215015496221 0 0 0
303 0 2 0 18.763185141175285 19.37553308277842 1.2414648171573863 0 0 0
304 0 1 0 17.483239661401946 17.345005113499763 3.344450787151222 0 0 0
306 0 2 0 17.610849289214453 18.054592295925016 2.735961669736094 0 0 0
305 0 2 0 18.1072265734682 17.4702045363202 4.096842831426789 0 0 0
12 0 2 0 2.3219409909069997 4.403816101846137 4.526043214047674 0 0 0
22 0 1 0 2.1944987564701286 1.2362605108326234 4.719953341583144 0 0 0
101 0 2 0 0.39968144178639275 0.7004908156810312 4.964528251746387 1 0 0
23 0 2 0 2.192879681478292 1.9703998621238608 5.350828259601023 0 0 0
325 0 1 0 2.602047909738306 2.8130142133878153 6.9866751406708865 0 0 0
326 0 2 0 3.5302437499102997 2.704243666797563 7.307086936339153 0 0 0
327 0 2 0 2.400219988394872 3.7673026265609524 6.883240698420294 0 0 0
356 0 2 0 1.3903825548200495 2.202138702562805 8.3245559823981 0 0 0
24 0 2 0 2.5628418073470507 0.42954073547501 5.205087958614548 0 0 0
11 0 2 0 0.6784900266292463 4.4708767944880075 4.578465029119119 0 0 0
29 0 2 0 6.955323190074798 1.2008431720906496 5.208773659704819 0 0 0
28 0 1 0 5.991576126126068 0.9428687440396306 5.369962837520553 0 0 0
358 0 1 0 5.3487671472737555 2.697136554137337 7.474413865318303 0 0 0
359 0 2 0 5.771597707567774 2.0479320660827227 6.88936863624423 0 0 0
8 0 2 0 5.915125782861231 4.31483568732229 6.341882248369877 0 0 0
360 0 2 0 5.897220110826253 2.6256976503363645 8.220231873359978 0 0 0
48 0 2 0 7.398052134334507 4.702243112317364 4.572037231937178 0 0 0
9 0 2 0 5.194224923151824 4.717680798466168 4.98794758117199 0 0 0
7 0 1 0 5.988526993863484 4.908695961237674 5.593078409920907 0 0 0
30 0 2 0 5.938789768231617 0.06973308988633656 5.704855017407867 0 0 0
58 0 1 0 8.709359509268765 1.2215920214724911 5.246837353244564 0 0 0
59 0 2 0 8.96757328386916 1.8758655815735243 5.9460887448959445 0 0 0
361 0 1 0 9.275734543554979 2.9006663693954566 7.401256049805283 0 0 0
363 0 2 0 9.278042002732086 3.8956140292824633 7.284691729160269 0 0 0
53 0 2 0 11.59949798102394 4.425531883917775 4.599601354982743 0 0 0
362 0 2 0 10.18466970967931 2.6668762099314973 7.6725175656663875 0 0 0
60 0 2 0 8.974180161553482 0.41634276347479043 5.710338408414979 0 0 0
394 0 1 0 12.010725882244476 2.710099761584157 7.274486905514924 0 0 0
65 0 2 0 13.691987253894135 0.8761323294083452 5.387854254011465 0 0 0
64 0 1 0 12.729099380567817 0.7690745769749258 5.432435748647156 0 0 0
396 0 2 0 12.413399846157077 3.5535510939700345 6.963136069753886 0 0 0
66 0 2 0 12.424863904257906 1.4555267893358195 6.043040286659133 0 0 0
395 0 2 0 12.52383185158984 2.5940395501666376 8.085402901763036 0 0 0
94 0 1 0 15.461778590076774 0.8605292128567874 5.390814329314774 0 0 0
95 0 2 0 15.621844704110089 1.626612528748331 5.888038057175862 0 0 0
399 0 2 0 15.607497288699268 3.713039855621927 7.053736901426441 0 0 0
397 0 1 0 15.706998376983467 2.741772934162986 7.248234293638042 0 0 0
44 0 2 0 13.662533124289055 4.765739759220505 5.49961363760893 0 0 0
43 0 1 0 12.945337580902585 4.860504535640596 6.098530443772646 0 0 0
96 0 2 0 16.081699311454045 0.9490862072287177 4.646170051015179 0 0 0
100 0 1 0 19.495540265273117 0.5756570585821594 5.241640491970711 0 0 0
398 0 2 0 16.649896001910538 2.5892567384211382 7.293625758634317 0 0 0
430 0 1 0 18.382689030498486 2.5857491004519297 7.137076508925282 0 0 0
431 0 2 0 18.5430103881373 1.7817528048653677 6.6072955690000175 0 0 0
432 0 2 0 18.762436704934025 3.302878892202812 6.5956727056146365 0 0 0
81 0 2 0 18.39495563489135 4.487375917960389 4.826626392264991 0 0 0
79 0 1 0 19.12305539805333 4.545936628499442 5.47003830069475 0 0 0
131 0 2 0 2.467701854601149 7.817933673162553 4.5278015923303165 0 0 0
132 0 2 0 0.9340519838826536 7.6005260923633085 4.72834409149786 0 0 0
130 0 1 0 1.7772154722942424 7.433414579480196 5.161283763838573 0 0 0
25 0 1 0 2.5455751465226384 5.543538868237281 6.901083620658064 0 0 0
26 0 2 0 2.3838224468111173 6.260159135956959 6.28929938110875 0 0 0
27 0 2 0 3.275904359093553 5.814586172570923 7.465142656042369 0 0 0
344 0 2 0 0.9858621793046438 5.640994644183534 7.946538300257641 0 0 0
433 0 1 0 2.629992277388649 9.341420159983912 7.4029459709103245 0 0 0
435 0 2 0 2.362484351443797 8.835084049867081 6.626182617563914 0 0 0
434 0 2 0 3.593944368837585 9.195668546304722 7.4845654494617655 0 0 0
136 0 1 0 5.677418033029107 7.577809420899955 5.362602385289148 0 0 0
138 0 2 0 6.595180147424849 7.59414282532085 5.035704727381787 0 0 0
137 0 2 0 5.3995023558123645 6.717974239105227 5.53815554310902 0 0 0
468 0 2 0 5.53369306800797 8.61266688791224 6.692876801465845 0 0 0
466 0 1 0 5.421438013505643 9.365038383439696 7.331465636063185 0 0 0
166 0 1 0 8.506905361740822 7.565373667141212 5.006086784150952 0 0 0
61 0 1 0 9.222652660258971 5.5449987392602464 6.941586467898405 0 0 0
63 0 2 0 8.497542984953267 5.7090249645215465 7.555703746276503 0 0 0
167 0 2 0 8.83836316412347 6.726990959557637 5.436289965752716 0 0 0
62 0 2 0 9.9615068769341 5.821723171446596 7.459318825606515 0 0 0
173 0 2 0 11.891030408998065 7.626449869898734 4.994925277947749 0 0 0
168 0 2 0 8.888305014930127 8.274157216144864 5.523579215918102 0 0 0
469 0 1 0 9.375875167761485 9.327010022922828 6.858652321155082 0 0 0
471 0 2 0 10.313186020416325 9.377319888576512 7.167063360338386 0 0 0
502 0 1 0 11.991870514565933 9.501794246900161 7.602676103943326 0 0 0
500 0 2 0 8.254745039210434 9.022257513179717 8.10464341455507 0 0 0
174 0 2 0 13.446702720982767 7.80964433283923 5.339623032108239 0 0 0
172 0 1 0 12.559489941936276 7.610585492982989 5.703490107676298 0 0 0
45 0 2 0 12.871931864145882 5.862144487067646 6.1059993186320884 0 0 0
416 0 2 0 14.386757606373292 5.872043654288527 8.139550935247922 0 0 0
202 0 1 0 15.300380890178982 7.362820902186213 5.412396008553721 0 0 0
99 0 2 0 15.692634720544943 6.121249277843446 6.410571317619914 0 0 0
97 0 1 0 15.760711060828088 5.437753410411939 7.124026872470809 0 0 0
503 0 2 0 12.145611151266019 8.730131278568324 7.0147872115723215 0 0 0
203 0 2 0 15.464204863318551 8.153569665221221 5.992190687963246 0 0 0
505 0 1 0 15.834359411794349 9.317298371743892 7.692305373688574 0 0 0
204 0 2 0 16.016720130263543 7.423798813958289 4.745237143704246 0 0 0
208 0 1 0 18.968852806368517 7.274297250844764 5.386255013509661 0 0 0
80 0 2 0 19.143501034360778 5.516219793986885 5.605241614262931 0 0 0
98 0 2 0 16.585776178256598 5.613151650477882 7.6252083682791705 0 0 0
209 0 2 0 18.463257664780752 7.740007963937599 4.760213703966034 0 0 0
210 0 2 0 18.71900217016242 7.622218144863057 6.222215016559054 0 0 0
506 0 2 0 16.640252355843653 8.847613380825813 8.028690941389156 0 0 0
538 0 1 0 18.321189631868915 8.858416045926788 7.887118995409821 0 0 0
540 0 2 0 18.57715364343906 9.63402351282376 7.3379170400058875 0 0 0
118 0 1 0 1.2384241701919398 10.69850968202521 4.368825269726696 0 0 0
120 0 2 0 2.170020530683213 10.715214444989535 4.618274266570879 0 0 0
135 0 2 0 3.001139073691487 11.232883176623462 6.954706942018515 0 0 0
133 0 1 0 2.90559212231975 12.208002937187043 7.1001785269574365 0 0 0
238 0 1 0 1.9460658433497342 14.304595153252025 5.250666202945483 0 0 0
239 0 2 0 0.9595934171451529 14.227744941842603 5.472160827795074 0 0 0
240 0 2 0 2.3324919126809274 13.489209425723221 5.702109264386118 0 0 0
134 0 2 0 3.7751472344289008 12.48905541711865 7.415788315197389 0 0 0
453 0 2 0 1.5321592467369012 12.834174652727423 8.325262183354269 0 0 0
125 0 2 0 4.86375253903605 10.81842836808006 4.417976719779736 0 0 0
467 0 2 0 5.686075319584525 10.160743990211465 6.782307233175642 0 0 0
116 0 2 0 6.9157992678408915 11.603658476217337 5.860926635701608 0 0 0
115 0 1 0 5.959625337233681 11.631204635275756 5.782036607837728 0 0 0
246 0 2 0 5.105302665614294 14.459949852107709 4.46687081721915 0 0 0
117 0 2 0 5.681390501254096 12.570195033880754 5.513171558851705 0 0 0
244 0 1 0 5.785365449029762 14.153369864140071 5.065381280083382 0 0 0
276 0 2 0 7.693392187402344 14.2468615914007 4.751550520030755 0 0 0
245 0 2 0 5.750162115646392 14.657599092698252 5.857217553609622 0 0 0
470 0 2 0 9.186798764968284 10.2201885070326 6.46162922559168 0 0 0
152 0 2 0 11.823812686461494 10.754272836941732 4.708319022551636 0 0 0
489 0 2 0 8.283019187039294 12.206400442756241 8.168604009167044 0 0 0
274 0 1 0 8.653016248102388 14.260547256619173 4.9644579916726315 0 0 0
169 0 1 0 9.320855766646265 12.02208726632448 6.3489526062446755 0 0 0
170 0 2 0 9.310970812992625 12.74044530751917 5.652930411618275 0 0 0
275 0 2 0 8.794383950184704 14.885778089649165 5.696328997825962 0 0 0
171 0 2 0 10.12885654643456 12.126594773294654 6.846516365369585 0 0 0
481 0 1 0 11.19870124863998 12.268321636309619 8.19268206487929 0 0 0
504 0 2 0 12.250464298071897 10.251511735092766 7.0380827777046555 0 0 0
153 0 2 0 13.338015308923735 10.823163677604319 5.110343986914086 0 0 0
151 0 1 0 12.448755895557818 11.200032203765218 5.332561678731141 0 0 0
207 0 2 0 15.820611383103646 10.886663697078163 6.773502274449459 0 0 0
311 0 2 0 14.506054266877156 14.256921810902567 5.030457862913835 0 0 0
280 0 1 0 12.755050234837693 13.864364923898176 4.940252454901595 0 0 0
282 0 2 0 12.678161710670697 12.917068814096265 5.1004981384248484 0 0 0
206 0 2 0 15.30670025133518 12.256772241717641 7.116060026447608 0 0 0
310 0 1 0 15.500660217382869 14.144728244991592 5.0779001791759 0 0 0
312 0 2 0 15.557853511771679 13.282789192113368 5.613377584059493 0 0 0
524 0 2 0 13.123597478954757 12.380232633552946 8.243671595999622 0 0 0
523 0 1 0 14.003131419384397 12.739538591906355 8.347535958262357 0 0 0
198 0 2 0 17.867173598905627 10.905835904842942 4.451783158596021 0 0 0
189 0 2 0 19.757947296191798 10.995920634247035 5.2994872884720925 0 0 0
187 0 1 0 18.884350665181696 11.325046421390146 5.66437305670369 0 0 0
205 0 1 0 16.050139363542556 11.849412569240414 6.658621632467182 0 0 0
318 0 2 0 18.771571382917713 14.408696086835974 4.8143873442779705 0 0 0
316 0 1 0 19.23216309278662 14.188069968626936 5.661057854778392 0 0 0
188 0 2 0 19.068913450979217 12.26925078250046 5.854055509138961 0 0 0
518 0 2 0 17.531082945384817 11.978961315367382 7.529991601059257 0 0 0
317 0 2 0 18.798579330312204 14.827487564008518 6.285552372326212 0 0 0
519 0 2 0 18.845375599047596 12.419132745798807 8.370888474348046 0 0 0
542 0 2 0 2.545918518190255 15.498216548373737 6.179667105635793 0 0 0
543 0 2 0 3.5914152040879763 16.006298759055646 7.134501013588871 0 0 0
541 0 1 0 2.6728317557658037 16.115615660229036 6.896986152602013 0 0 0
241 0 1 0 2.771911789722205 18.800293082199975 6.328945613827061 0 0 0
242 0 2 0 2.8615439389689996 17.899783432421742 6.069250079238222 0 0 0
243 0 2 0 3.443909860731064 18.888572308988532 7.042856800944336 0 0 0
560 0 2 0 1.2507861675307108 19.09771971232907 7.488034960218624 0 0 0
297 0 2 0 0.4219915532391285 17.741782861963927 5.082413042053671 1 0 0
559 0 1 0 0.7057390168624164 19.006453075585647 8.256416417802487 0 0 0
574 0 1 0 5.6239610110971885 15.794780936596597 7.23031550837333 0 0 0
575 0 2 0 6.347434012020301 15.545865091432814 7.770964383408877 0 0 0
224 0 2 0 5.566089212323407 18.026610249719358 5.026285099412632 0 0 0
225 0 2 0 7.0143242775723955 17.80463320066941 5.422941041708605 0 0 0
223 0 1 0 6.18503254529036 18.136695810176768 5.778370885021826 0 0 0
576 0 2 0 5.744869124951665 16.666573371646795 6.835833262809176 0 0 0
578 0 2 0 8.870110091426008 15.792972955619481 7.718370246977783 0 0 0
577 0 1 0 9.375228303678202 15.908508039007375 6.9570138086089806 0 0 0
278 0 2 0 8.817074382008833 19.049454466495277 7.358885684368877 0 0 0
277 0 1 0 9.394885589678312 18.678599804456578 6.684438713996996 0 0 0
579 0 2 0 9.19897918631044 16.87594665293387 6.803696002954735 0 0 0
270 0 2 0 11.660358676862808 17.559091517987895 4.378961984252754 0 0 0
279 0 2 0 10.271577583611503 18.692698153358922 7.117163712947949 0 0 0
611 0 2 0 11.109641015007098 15.792110100094833 6.858934778493307 0 0 0
610 0 1 0 12.096690847621357 15.851194875918841 6.84761601825174 0 0 0
612 0 2 0 12.370102240537316 15.02766030269781 6.335023996840108 0 0 0
614 0 2 0 15.583587571720184 15.4269032530301 6.289324824318313 0 0 0
613 0 1 0 15.782108745928825 15.874112681940675 7.125623625630352 0 0 0
299 0 2 0 14.372858685689534 17.395273247650792 4.919919106061051 0 0 0
261 0 2 0 12.605071810936654 17.40537723650757 6.2892906551220396 0 0 0
259 0 1 0 12.98728101024081 17.956319753976686 5.622207650382082 0 0 0
260 0 2 0 12.798069719306838 18.89268667213814 5.759768788073152 0 0 0
315 0 2 0 15.21140871061663 18.95103809398436 7.620300607841648 0 0 0
314 0 2 0 15.594887188307835 19.308522641470773 6.122497959983664 0 0 0
313 0 1 0 15.74043234250832 18.67437285440636 6.8483719003525865 0 0 0
615 0 2 0 15.918092349906777 16.766256381440158 6.807395370644609 0 0 0
645 0 2 0 14.454714793049432 15.70141621242762 8.156097315750625 0 0 0
644 0 2 0 12.990947849493946 15.552361671407292 8.204628220068651 0 0 0
648 0 2 0 19.368011999479414 15.9996444849251 8.089743532611328 0 0 0
646 0 1 0 18.656851528585804 16.14919199766719 7.44782225807356 0 0 0
647 0 2 0 17.838464601794037 16.161354623991294 7.942213493795899 0 0 0
102 0 2 0 19.36880871195342 19.5347434603027 5.133309679781787 0 -1 0
295 0 1 0 19.485391557801155 17.82080955471782 5.286172095938711 0 0 0
296 0 2 0 19.24981189163019 17.23887124569695 6.043224255445873 0 0 0
627 0 2 0 17.32003609942272 18.99454965171923 7.721551235689859 0 0 0
626 0 2 0 18.82793420925522 18.881916935473523 8.07734830951183 0 0 0
355 0 1 0 0.7124238018174895 1.8226595610541945 8.921729775095487 0 0 0
335 0 2 0 0.8512062159355024 3.185748768167133 10.064236072389864 0 0 0
346 0 1 0 2.2148081656997496 1.1538406651663566 12.034548693799803 0 0 0
347 0 2 0 2.805226503026924 1.2637882054956773 11.239981951892773 0 0 0
348 0 2 0 1.3493867399842505 0.8743401291953928 11.629275473579089 0 0 0
334 0 1 0 0.9850959153954302 4.1185629513039235 10.432237004747916 0 0 0
336 0 2 0 1.9863593406129407 4.216308133305681 10.518671605942039 0 0 0
340 0 1 0 3.9482634380744224 4.287275847642586 10.507370121804229 0 0 0
329 0 2 0 4.170165324540676 2.5206536121343426 10.28373183961169 0 0 0
328 0 1 0 4.081113182337375 1.5445940880496554 10.245452629125971 0 0 0
330 0 2 0 4.877451746313432 1.201150883047857 10.735414679521327 0 0 0
554 0 2 0 4.516736204741802 0.27969614871725534 8.825505481711737 0 1 0
393 0 2 0 7.46391991362199 1.2292537685526728 9.02209034940966 0 0 0
391 0 1 0 7.486422084905531 2.1979122336862074 9.094571655616148 0 0 0
372 0 2 0 7.877266865472324 3.35819214187757 10.300401355770143 0 0 0
353 0 2 0 6.865691072075478 0.757687631443983 11.703394135604787 0 0 0
352 0 1 0 5.948191646694129 0.615413285621534 11.924917684856498 0 0 0
342 0 2 0 4.492414847781363 4.453168617693234 11.348549008516843 0 0 0
332 0 2 0 6.786381287220988 4.662337513979565 11.936742022801216 0 0 0
392 0 2 0 8.21325433123772 2.4350702063839167 8.517616003949612 0 0 0
370 0 1 0 8.126017480229395 4.281661302141947 10.655031275448659 0 0 0
382 0 1 0 8.644949143640751 1.2256638697776006 11.844888192344323 0 0 0
366 0 2 0 10.13161447649628 0.847101312005289 10.37037450937545 0 0 0
364 0 1 0 10.810260040394132 1.1013661648433346 9.758098947393055 0 0 0
378 0 2 0 10.786111111457066 2.8112242157688483 10.39372631572903 0 0 0
365 0 2 0 11.625071878848994 1.0408518710893586 10.228448919793884 0 0 0
371 0 2 0 9.038449847156675 4.219140206837798 10.923453301142832 0 0 0
376 0 1 0 10.820473120492878 3.6970035459960235 10.656284372261823 0 0 0
377 0 2 0 11.457448211758324 3.7795559067373508 11.383274768387455 0 0 0
383 0 2 0 9.059582216909263 0.45120875814646705 12.21844980219191 0 0 0
429 0 2 0 14.77730856177146 2.200046958306293 8.601362372886149 0 0 0
427 0 1 0 13.981563510588925 2.0220478966938886 9.1435402748802 0 0 0
428 0 2 0 14.143979177277311 2.550631268831095 9.93447355424113 0 0 0
389 0 2 0 13.434358340926902 0.7173526937541698 12.189278616797568 0 0 0
388 0 1 0 12.518787870185252 0.5276408702434086 12.349573928111601 0 0 0
632 0 2 0 13.892727523769706 0.38697683403865196 8.963529137880077 0 1 0