LAMMPS (23 Jun 2022)
echo both

include		in.partitions
variable        pid world 0
include		in.temp
variable        temperature equal 260
variable        tempDamp equal 0.100 # this is 0.1 ps
include		in.pressure
variable        pressure equal 6079.5
variable        pressureDamp equal 1.0 #this is 1ps
include		in.seed
variable        seed world 745823

units           metal
atom_style	full
include		in.box
read_data       iceIII.data
Reading data file ...
  orthogonal box = (0 0 0) to (19.991053 19.991053 20.800772)
  1 by 1 by 1 MPI processor grid
  reading atoms ...
  972 atoms
Finding 1-2 1-3 1-4 neighbors ...
  special bond factors lj:    0        0        0       
  special bond factors coul:  0        0        0       
     0 = max # of 1-2 neighbors
     0 = max # of 1-3 neighbors
     0 = max # of 1-4 neighbors
     1 = max # of special neighbors
  special bonds CPU = 0.000 seconds
  read_data CPU = 0.004 seconds
include 	in.setup
variable	out_freq equal 500
variable	out_freq2 equal 500

timestep        0.0005

neigh_modify    delay 7 every 1

include         in.deepmd
# This is deepMD model

# create groups ###
#group ox type 2
#group hy type 1

mass 2 15.999
mass 1 1.008

pair_style      deepmd ../graph.pb
Summary of lammps deepmd module ...
  >>> Info of deepmd-kit:
  installed to:       /u/sigbjobo/software/DEEPMD_FROM_SOURCE/deepmd-kit/install
  source:             v2.1.3
  source branch:       master
  source commit:      5a32c49
  source commit at:   2022-07-01 09:52:58 +0800
  surpport model ver.:1.1 
  build float prec:   double
  build with tf inc:  /u/sigbjobo/software/DEEPMD_FROM_SOURCE/tensorflow/install/include;/u/sigbjobo/software/DEEPMD_FROM_SOURCE/tensorflow/install/include
  build with tf lib:  /u/sigbjobo/software/DEEPMD_FROM_SOURCE/tensorflow/install/lib/libtensorflow_cc.so;/u/sigbjobo/software/DEEPMD_FROM_SOURCE/tensorflow/install/lib/libtensorflow_framework.so
  set tf intra_op_parallelism_threads: 0
  set tf inter_op_parallelism_threads: 0
  >>> Info of lammps module:
  use deepmd-kit at:  /u/sigbjobo/software/DEEPMD_FROM_SOURCE/deepmd-kit/install
  source:             v2.1.3
  source branch:      master
  source commit:      5a32c49
  source commit at:   2022-07-01 09:52:58 +0800
  build float prec:   double
  build with tf inc:  /u/sigbjobo/software/DEEPMD_FROM_SOURCE/tensorflow/install/include;/u/sigbjobo/software/DEEPMD_FROM_SOURCE/tensorflow/install/include
  build with tf lib:  /u/sigbjobo/software/DEEPMD_FROM_SOURCE/tensorflow/install/lib/libtensorflow_cc.so;/u/sigbjobo/software/DEEPMD_FROM_SOURCE/tensorflow/install/lib/libtensorflow_framework.so
pair_coeff      * *

bond_style      none
angle_style     none
dihedral_style  none
improper_style  none
neigh_modify exclude none


neighbor        2.0 bin
neigh_modify    every 10 delay 0 check no

thermo          ${out_freq}
thermo          500
thermo_style 	custom step temp pe etotal epair emol press lx ly lz xy xz yz vol pxx pyy pzz pxy pxz pyz cella cellb cellc cellalpha cellbeta cellgamma

restart 	${out_freq} restart.lmp.${pid} restart2.lmp.${pid}
restart 	500 restart.lmp.${pid} restart2.lmp.${pid}
restart 	500 restart.lmp.0 restart2.lmp.${pid}
restart 	500 restart.lmp.0 restart2.lmp.0


include         in.dump
dump            myDump all atom ${out_freq2} dump.water.${pid}
dump            myDump all atom 500 dump.water.${pid}
dump            myDump all atom 500 dump.water.0
dump            myDump2 all dcd ${out_freq2} dump.dcd
dump            myDump2 all dcd 500 dump.dcd
dump_modify     myDump append yes
dump_modify     myDump2 append yes


timer           timeout 04:55:00 every 1000
New timer settings: style=normal  mode=nosync  timeout=04:55:00

fix             2 all nph aniso ${pressure} ${pressure} ${pressureDamp}
fix             2 all nph aniso 6079.5 ${pressure} ${pressureDamp}
fix             2 all nph aniso 6079.5 6079.5 ${pressureDamp}
fix             2 all nph aniso 6079.5 6079.5 1
fix             3 all temp/csvr ${temperature} ${temperature} ${tempDamp} ${seed}
fix             3 all temp/csvr 260 ${temperature} ${tempDamp} ${seed}
fix             3 all temp/csvr 260 260 ${tempDamp} ${seed}
fix             3 all temp/csvr 260 260 0.1 ${seed}
fix             3 all temp/csvr 260 260 0.1 745823
velocity 	all create ${temperature} ${seed} dist gaussian
velocity 	all create 260 ${seed} dist gaussian
velocity 	all create 260 745823 dist gaussian

run             400000

CITE-CITE-CITE-CITE-CITE-CITE-CITE-CITE-CITE-CITE-CITE-CITE-CITE

Your simulation uses code contributions which should be cited:

- USER-DEEPMD package:

@article{Wang_ComputPhysCommun_2018_v228_p178,
  author = {Wang, Han and Zhang, Linfeng and Han, Jiequn and E, Weinan},
  doi = {10.1016/j.cpc.2018.03.016},
  url = {https://doi.org/10.1016/j.cpc.2018.03.016},
  year = 2018,
  month = {jul},
  publisher = {Elsevier {BV}},
  volume = 228,
  journal = {Comput. Phys. Commun.},
  title = {{DeePMD-kit: A deep learning package for many-body potential energy representation and molecular dynamics}},
  pages = {178--184}
}

CITE-CITE-CITE-CITE-CITE-CITE-CITE-CITE-CITE-CITE-CITE-CITE-CITE

Generated 0 of 1 mixed pair_coeff terms from geometric mixing rule
Neighbor list info ...
  update every 10 steps, delay 0 steps, check no
  max neighbors/atom: 2000, page size: 100000
  master list distance cutoff = 8
  ghost atom cutoff = 8
  binsize = 4, bins = 5 5 6
  1 neighbor lists, perpetual/occasional/extra = 1 0 0
  (1) pair deepmd, perpetual
      attributes: full, newton on
      pair build: full/bin
      stencil: full/bin/3d
      bin: standard
Per MPI rank memory allocation (min/avg/max) = 7.648 | 7.648 | 7.648 Mbytes
   Step          Temp          PotEng         TotEng         E_pair         E_mol          Press            Lx             Ly             Lz             Xy             Xz             Yz           Volume          Pxx            Pyy            Pzz            Pxy            Pxz            Pyz           Cella          Cellb          Cellc        CellAlpha       CellBeta      CellGamma   
         0   260           -175.65013     -143.01712     -175.65013      0              37711.489      19.991053      19.991053      20.800772      0              0              0              8312.8663      41483.418      41959.303      29691.747     -62.837842     -1049.8213     -449.94001      19.991053      19.991053      20.800772      90             90             90           
       500   259.98174     -162.16794     -129.53721     -162.16794      0              3632.3344      19.834052      19.745997      20.317605      0              0              0              7957.2507      4211.2208      4603.5686      2082.2139     -152.74409     -733.18893     -1359.2592      19.834052      19.745997      20.317605      90             90             90           
      1000   268.05744     -161.02206     -127.37774     -161.02206      0              2637.9235      19.979958      19.891152      20.169599      0              0              0              8015.8901      2696.2129      3258.7874      1958.7702     -1668.7233      299.78855     -1783.5073      19.979958      19.891152      20.169599      90             90             90           
      1500   250.97324     -160.69549     -129.19543     -160.69549      0              12968.332      20.102812      19.998682      20.157737      0              0              0              8104.0094      10474.398      15951.084      12479.515      904.60165      1556.7929     -357.631        20.102812      19.998682      20.157737      90             90             90           
      2000   255.75047     -158.84133     -126.74168     -158.84133      0              150.10591      20.049059      19.963105      20.156427      0              0              0              8067.438       1614.3674      857.63105     -2021.6807     -983.13649      1098.2503      277.71551      20.049059      19.963105      20.156427      90             90             90           
      2500   267.57515     -159.1514      -125.56761     -159.1514       0              11096.35       19.82643       20.007677      20.273121      0              0              0              8041.9584      14716.182      5869.804       12703.062      885.55914     -1505.881       721.43846      19.82643       20.007677      20.273121      90             90             90           
      3000   262.76214     -159.07011     -126.09042     -159.07011      0              9585.9416      19.829774      20.052469      20.440241      0              0              0              8127.7744      10263.481      9568.1867      8926.1569     -106.73917     -865.40835      1706.9868      19.829774      20.052469      20.440241      90             90             90           
      3500   255.17401     -158.71516     -126.68786     -158.71516      0              6597.9037      20.024823      19.869584      20.325324      0              0              0              8087.1394      6690.958       8238.9689      4863.7843     -945.41781      2418.2836      3787.8921      20.024823      19.869584      20.325324      90             90             90           
      4000   261.17503     -160.30233     -127.52183     -160.30233      0              4205.5695      20.157461      19.858023      20.193113      0              0              0              8083.0475      4225.2927      4759.1793      3632.2365      372.2968      -291.41837      1505.2282      20.157461      19.858023      20.193113      90             90             90           
      4500   257.39591     -159.84496     -127.53879     -159.84496      0              9788.2143      20.035229      20.001004      20.089003      0              0              0              8050.1591      10133.15       6529.2969      12702.196      1320.3054      202.60455     -1336.3636      20.035229      20.001004      20.089003      90             90             90           
      5000   261.64639     -160.2263      -127.38664     -160.2263       0              1304.2442      19.857677      20.10899       20.175464      0              0              0              8056.4225      197.25751      2228.547       1486.928      -2476.9785      276.68189     -125.24882      19.857677      20.10899       20.175464      90             90             90           
      5500   253.63794     -160.48143     -128.64692     -160.48143      0              5431.0171      19.870912      20.049879      20.416055      0              0              0              8133.9479      4251.4704      9315.3184      2726.2626      2301.0202      2323.292      -147.32078      19.870912      20.049879      20.416055      90             90             90           
      6000   264.46685     -159.99482     -126.80116     -159.99482      0              6717.3561      19.922867      19.764868      20.372715      0              0              0              8022.2218      5260.7763      8084.3438      6806.9483      200.3775       1615.4279     -1622.9156      19.922867      19.764868      20.372715      90             90             90           
      6500   257.4575      -160.73999     -128.42608     -160.73999      0              7170.6682      20.109977      19.865494      20.262398      0              0              0              8094.7195      6720.5195      5185.2722      9606.213       312.01878     -383.94789      2358.1592      20.109977      19.865494      20.262398      90             90             90           
      7000   262.28158     -158.21629     -125.29691     -158.21629      0              6560.1837      20.050506      20.142571      20.057314      0              0              0              8100.5219      2519.0264      8008.6626      9152.8621      1670.0752      821.73151     -3738.3973      20.050506      20.142571      20.057314      90             90             90           
      7500   267.28416     -159.15112     -125.60386     -159.15112      0              7234.2517      19.931949      20.159964      20.055437      0              0              0              8058.8235      6509.7564      7271.3708      7921.6279      1374.0312      74.821122      3490.0573      19.931949      20.159964      20.055437      90             90             90           
      8000   258.5129      -159.89418     -127.44782     -159.89418      0              3767.7904      20.042607      20.016979      20.357549      0              0              0              8167.2948      5365.8592      2742.422       3195.09        2699.6757      678.69348     -2986.0656      20.042607      20.016979      20.357549      90             90             90           
      8500   251.70112     -159.50984     -127.91843     -159.50984      0              6471.3461      19.943987      19.756711      20.397365      0              0              0              8037.1246      4868.2772      9480.0742      5065.6868     -1457.3263      1039.6243      803.43008      19.943987      19.756711      20.397365      90             90             90           
      9000   270.9457      -159.46999     -125.46316     -159.46999      0              3328.2182      19.965045      19.910265      20.373287      0              0              0              8098.5721      6154.5797      15.297834      3814.7771      904.13933     -1171.2199     -1292.9961      19.965045      19.910265      20.373287      90             90             90           
      9500   266.67326     -159.23855     -125.76797     -159.23855      0              4282.2284      20.011767      20.091771      20.219624      0              0              0              8129.741       5245.8337      1314.1022      6286.7493     -114.07225      1161.6898     -200.48133      20.011767      20.091771      20.219624      90             90             90           
     10000   270.57448     -158.78887     -124.82863     -158.78887      0              5740.9706      19.978099      20.070801      20.146048      0              0              0              8078.0909      9551.5744      843.32571      6828.0117     -472.9994      -1720.7469     -601.05166      19.978099      20.070801      20.146048      90             90             90           
     10500   282.34642     -159.54652     -124.10877     -159.54652      0              6043.3511      20.03955       20.035118      20.295015      0              0              0              8148.342       3808.0421      9311.2987      5010.7125      1302.794       1943.3864     -1531.1435      20.03955       20.035118      20.295015      90             90             90           
     11000   267.08204     -159.39048     -125.86858     -159.39048      0              7962.8137      19.936785      19.951837      20.312133      0              0              0              8079.6687      9089.1711      6590.636       8208.6341     -2301.4922      4056.251       1144.7678      19.936785      19.951837      20.312133      90             90             90           
     11500   258.78401     -159.48049     -127.00009     -159.48049      0              4124.8331      19.848554      20.049412      20.346254      0              0              0              8096.8296     -50.393916      9812.6625      2612.2307      0.46255313     1997.8611      426.59861      19.848554      20.049412      20.346254      90             90             90           
     12000   265.37352     -158.97004     -125.66258     -158.97004      0              5518.5071      19.878719      20.029709      20.251231      0              0              0              8063.3302      7924.3073      2424.0246      6207.1893     -3033.9904     -1237.4063     -1190.5603      19.878719      20.029709      20.251231      90             90             90           
     12500   266.13712     -159.10858     -125.70529     -159.10858      0              5201.8294      20.238923      19.950403      20.128212      0              0              0              8127.2623      7066.8454      6098.4537      2440.1891      223.74653      899.84651      339.18219      20.238923      19.950403      20.128212      90             90             90           
     13000   271.96125     -158.69026     -124.55596     -158.69026      0              4805.467       20.311896      19.802863      20.028585      0              0              0              8056.1719     -302.86582      7835.4282      6883.8387      156.5294      -912.61081      1073.0525      20.311896      19.802863      20.028585      90             90             90           
     13500   262.74268     -160.16247     -127.18521     -160.16247      0              8228.4785      19.991734      19.924102      20.265265      0              0              0              8072.0064      8735.904       8982.441       6967.0905      639.14129      1647.8757      486.64252      19.991734      19.924102      20.265265      90             90             90           
     14000   255.45951     -160.42245     -128.35932     -160.42245      0              5568.4965      19.727718      20.028545      20.525687      0              0              0              8110.058       4278.0709      8130.3506      4297.068      -2104.9551     -1217.2342     -4283.7797      19.727718      20.028545      20.525687      90             90             90           
     14500   244.22694     -159.3568      -128.70349     -159.3568       0              1230.7944      19.902864      19.967387      20.452155      0              0              0              8127.8538      2221.5706      1243.1494      227.66319      214.74334      652.55451     -2186.3791      19.902864      19.967387      20.452155      90             90             90           
     15000   269.08934     -160.10598     -126.33214     -160.10598      0              6558.9663      20.117612      19.861684      20.16289       0              0              0              8056.4787      4286.5585      8129.0217      7261.3186     -775.69095     -819.27833      2524.9484      20.117612      19.861684      20.16289       90             90             90           
     15500   265.60871     -160.07086     -126.73389     -160.07086      0              6895.1828      20.203534      19.970558      20.120651      0              0              0              8118.197       4858.5661      7460.2016      8366.7807      2116.8421      2990.0402     -27.65109       20.203534      19.970558      20.120651      90             90             90           
     16000   268.94748     -159.91606     -126.16003     -159.91606      0              4854.5064      19.969192      20.101203      20.173381      0              0              0              8097.6919      2476.7074      6473.4309      5613.381       956.9372      -1841.3263     -1282.2648      19.969192      20.101203      20.173381      90             90             90           
     16500   264.64232     -159.10771     -125.89203     -159.10771      0              4899.7777      19.802765      20.003513      20.28005       0              0              0              8033.4322      3074.5696      6825.0589      4799.7045     -492.69614      2056.0505     -1896.092       19.802765      20.003513      20.28005       90             90             90           
     17000   273.36707     -160.87223     -126.56149     -160.87223      0              6788.6299      19.92568       20.015995      20.404002      0              0              0              8137.7754      6733.0294      6288.3992      7344.4612     -1342.0209     -56.432592      1248.2709      19.92568       20.015995      20.404002      90             90             90           
     17500   254.94695     -157.99265     -125.99385     -157.99265      0              2699.9835      20.074546      19.984527      20.270898      0              0              0              8132.2853      2158.4664     -661.32111      6602.8051      512.09151     -2561.4773     -1444.3014      20.074546      19.984527      20.270898      90             90             90           
     18000   262.79952     -161.06342     -128.07903     -161.06342      0              7457.2294      20.015608      19.895233      20.086556      0              0              0              7998.7713      8389.1212      7811.2149      6171.3521     -1095.6192      1252.8281      635.43038      20.015608      19.895233      20.086556      90             90             90           
     18500   256.27734     -160.35029     -128.18451     -160.35029      0              5025.3678      20.060718      20.093832      20.272868      0              0              0              8171.926       2267.2468      3875.7502      8933.1065     -247.72324     -3157.7459      2364.4989      20.060718      20.093832      20.272868      90             90             90           
     19000   255.1326      -159.06653     -127.04443     -159.06653      0              7874.5103      19.8491        19.942093      20.293165      0              0              0              8032.6962      8838.0866      8103.3383      6682.1061     -618.39265      2092.8183      2592.4456      19.8491        19.942093      20.293165      90             90             90           
     19500   260.52043     -159.40157     -126.70323     -159.40157      0              3149.1337      20.023696      19.834581      20.416433      0              0              0              8108.6238      4934.8308      2760.211       1752.3593     -615.08584     -1901.0779     -2166.1424      20.023696      19.834581      20.416433      90             90             90           
     20000   259.52904     -160.77116     -128.19725     -160.77116      0              2581.8346      20.122368      19.812599      20.324918      0              0              0              8103.0654      3472.7947      4985.0804     -712.3712      -140.73168     -2310.8665      1602.8334      20.122368      19.812599      20.324918      90             90             90           
     20500   258.37998     -160.36249     -127.93281     -160.36249      0              6590.459       20.016084      19.965462      20.047241      0              0              0              8011.4859      5726.0665      7802.4666      6242.8438     -649.67174     -2555.5766     -2586.1626      20.016084      19.965462      20.047241      90             90             90           
     21000   262.2623      -160.66809     -127.75113     -160.66809      0              5297.3101      19.975477      20.242682      20.093577      0              0              0              8124.9831      6342.2654      1822.1648      7727.5002      395.54529     -1845.1585      1633.1171      19.975477      20.242682      20.093577      90             90             90           
     21500   256.41328     -161.44984     -129.267       -161.44984      0              5449.3506      19.871819      20.097655      20.156389      0              0              0              8049.9971      3311.0302      6713.363       6323.6587      870.91506      272.05297      603.43774      19.871819      20.097655      20.156389      90             90             90           
     22000   259.46077     -159.97597     -127.41063     -159.97597      0              7082.6839      19.999088      19.909406      20.329442      0              0              0              8094.5732      3322.7432      9121.5683      8803.7401      20.941202     -793.46586      1604.0491      19.999088      19.909406      20.329442      90             90             90           
     22500   256.67735     -159.39295     -127.17696     -159.39295      0              6957.068       20.055675      19.836775      20.412749      0              0              0              8121.0063      11345.694      5741.0521      3784.458       466.76923     -254.7189      -1187.7563      20.055675      19.836775      20.412749      90             90             90           
     23000   255.97295     -160.25914     -128.13156     -160.25914      0              5372.9968      19.971498      19.866107      20.249671      0              0              0              8034.1765      8451.6357      2036.51        5630.8446     -972.37803     -2169.8378     -3672.2668      19.971498      19.866107      20.249671      90             90             90           
     23500   251.00613     -158.30817     -126.80399     -158.30817      0              1696.1871      20.10592       20.105189      20.272286      0              0              0              8194.7338      4031.5986     -425.54226      1482.5049     -750.04948      923.82739      2039.634       20.10592       20.105189      20.272286      90             90             90           
     24000   271.56812     -158.81371     -124.72876     -158.81371      0              8348.9263      20.050947      19.918452      20.170684      0              0              0              8055.845       7050.4267      9540.6699      8455.6823     -918.66789     -968.16189     -2076.1915      20.050947      19.918452      20.170684      90             90             90           
     24500   259.51892     -158.7071      -126.13447     -158.7071       0              5616.8336      20.05635       19.951612      20.289601      0              0              0              8119.0162      3687.2465      7048.7686      6114.4857      153.33953     -597.6574       2192.3979      20.05635       19.951612      20.289601      90             90             90           
     25000   262.06017     -158.68926     -125.79767     -158.68926      0              4381.5051      19.916403      20.065844      20.252728      0              0              0              8093.7891      3526.5198      7078.9744      2539.0211      227.78827      2305.3583     -678.86252      19.916403      20.065844      20.252728      90             90             90           
     25500   264.11038     -158.68094     -125.53202     -158.68094      0              4602.3488      19.898885      20.090273      20.259677      0              0              0              8099.2928      4698.0925      2456.8322      6652.1216      1434.6153      223.17047     -380.14347      19.898885      20.090273      20.259677      90             90             90           
     26000   273.87682     -159.73662     -125.36191     -159.73662      0             -323.06503      20.079366      20.043923      20.38192       0              0              0              8203.0961     -1510.8442      1363.0476     -821.39847      1525.3884      1374.4306     -1091.1538      20.079366      20.043923      20.38192       90             90             90           
     26500   254.09233     -159.27666     -127.38512     -159.27666      0              6872.6846      20.005629      19.806125      20.277869      0              0              0              8034.7812      3278.8541      11168.684      6170.5158      189.42923      684.14079      1644.0228      20.005629      19.806125      20.277869      90             90             90           
     27000   260.95334     -157.72581     -124.97314     -157.72581      0              10901.083      20.096611      19.933204      20.257874      0              0              0              8115.099       10209.452      12931.023      9562.7729     -375.29876      134.53962     -20.664648      20.096611      19.933204      20.257874      90             90             90           
     27500   261.48552     -159.15453     -126.33506     -159.15453      0              4539.3622      20.0235        20.053321      20.194738      0              0              0              8108.9484      4343.3004      3948.2552      5326.5311     -1718.0343      710.38711      3593.0987      20.0235        20.053321      20.194738      90             90             90           
     28000   262.21374     -160.16803     -127.25716     -160.16803      0              6823.5605      19.862277      20.059881      20.118053      0              0              0              8015.7349      7590.7933      6360.1948      6519.6935      903.93185      2058.8776     -3253.1634      19.862277      20.059881      20.118053      90             90             90           
     28500   264.2555      -159.10172     -125.93459     -159.10172      0              4766.9338      19.974416      20.116431      20.246137      0              0              0              8135.1809      4916.0753      1634.8309      7749.8952     -459.0144      -543.41459     -282.02554      19.974416      20.116431      20.246137      90             90             90           
     29000   250.28395     -157.75266     -126.33912     -157.75266      0              5851.6861      20.060153      19.978406      20.237791      0              0              0              8110.6972      5068.6502      7429.067       5057.341       623.24735      1150.353      -702.3351       20.060153      19.978406      20.237791      90             90             90           
     29500   264.49422     -158.17277     -124.97567     -158.17277      0              5984.5133      20.107027      19.787553      20.22449       0              0              0              8046.695       4796.04        4636.4129      8521.0868     -260.5556       804.5973      -64.032951      20.107027      19.787553      20.22449       90             90             90           
     30000   259.91664     -156.07781     -123.45526     -156.07781      0              5755.9731      20.130251      19.870019      20.348426      0              0              0              8139.1355      4487.065       8054.9316      4725.9226      164.85292     -1340.753      -1255.4102      20.130251      19.870019      20.348426      90             90             90           
     30500   258.92461     -157.69351     -125.19547     -157.69351      0              13493.75       20.013037      20.010887      20.36025       0              0              0              8153.8447      12790.884      12873.786      14816.58       484.57767     -111.89584     -786.34613      20.013037      20.010887      20.36025       90             90             90           
     31000   265.13672     -157.81224     -124.5345      -157.81224      0              6461.2376      19.960713      19.988422      20.159588      0              0              0              8043.3363      6244.1166      6125.5641      7014.0322     -19.676975      2463.5673      74.332503      19.960713      19.988422      20.159588      90             90             90           
     31500   275.91218     -160.36111     -125.73093     -160.36111      0              5173.2459      20.15145       19.988588      20.132116      0              0              0              8109.1972     -2216.9591      12829.282      4907.4145     -1265.1679     -2808.2707      679.9215       20.15145       19.988588      20.132116      90             90             90           
     32000   254.06784     -158.84552     -126.95706     -158.84552      0              4388.9625      20.154249      19.962474      20.148592      0              0              0              8106.3562      4656.9903      1884.1526      6625.7447      1267.6045      4657.0529     -1805.7132      20.154249      19.962474      20.148592      90             90             90           
     32500   267.8064      -159.848       -126.23519     -159.848        0              6204.0696      19.984411      19.930663      20.295052      0              0              0              8083.5716      9413.5783      4364.781       4833.8495     -1604.9763      2457.7225      1928.9907      19.984411      19.930663      20.295052      90             90             90           
     33000   262.20449     -158.49469     -125.58498     -158.49469      0              8984.1305      19.873019      19.951289      20.453973      0              0              0              8109.8433      12587.549      6109.9987      8254.8433      2025.4237     -3296.0405     -422.84513      19.873019      19.951289      20.453973      90             90             90           
     33500   264.39794     -160.02174     -126.83673     -160.02174      0              6208.0452      19.921239      20.076517      20.438988      0              0              0              8174.5547      4482.4362      4429.3729      9712.3266      295.02971      2575.0733     -3458.2293      19.921239      20.076517      20.438988      90             90             90           
     34000   262.03289     -161.50416     -128.61599     -161.50416      0              5038.4327      19.964697      19.875866      20.153085      0              0              0              7997.0591      6764.5769      3451.47        4899.2513     -1551.7991     -996.75059      462.52905      19.964697      19.875866      20.153085      90             90             90           
     34500   252.84294     -161.32829     -129.59357     -161.32829      0              3210.2419      20.176376      19.895368      20.139499      0              0              0              8084.3255      4380.8599      1822.3726      3427.4932      1012.6323      1321.6741      853.49704      20.176376      19.895368      20.139499      90             90             90           
     35000   242.12719     -160.06255     -129.67278     -160.06255      0              5739.3841      20.137667      19.961204      20.252736      0              0              0              8141.0345      3832.728       4928.9299      8456.4945      1027.4512      423.83828      270.7809       20.137667      19.961204      20.252736      90             90             90           
     35500   253.77211     -160.15722     -128.30588     -160.15722      0              5047.9277      19.80927       19.89856       20.308381      0              0              0              8005.0753      2567.3821      6939.0216      5637.3795      57.502537     -745.63198     -17.486116      19.80927       19.89856       20.308381      90             90             90           
     36000   259.7916      -159.91336     -127.3065      -159.91336      0              6532.3999      19.779424      20.104631      20.473862      0              0              0              8141.5954      9098.3696      6895.7999      3603.0302     -473.18224      2195.4957      1937.323       19.779424      20.104631      20.473862      90             90             90           
     36500   265.27392     -159.85299     -126.55803     -159.85299      0              6991.3175      19.907292      20.095239      20.32604       0              0              0              8131.2655      4446.4243      9856.8105      6670.7177     -1218.9114     -1802.4708     -1154.966       19.907292      20.095239      20.32604       90             90             90           
     37000   262.30551     -159.58142     -126.65904     -159.58142      0              7351.8678      19.957172      19.984564      20.170585      0              0              0              8044.743       11494.327      3623.7229      6937.5538      82.847598      3058.16       -4313.8405      19.957172      19.984564      20.170585      90             90             90           
     37500   256.08442     -159.47929     -127.33773     -159.47929      0              6578.5705      20.047038      19.937202      20.231939      0              0              0              8086.3387      6856.729       7148.9442      5730.0383      697.49861     -550.76646     -303.20042      20.047038      19.937202      20.231939      90             90             90           
     38000   265.68446     -159.12552     -125.77904     -159.12552      0              6960.1781      20.158652      19.871518      20.416197      0              0              0              8178.3816      7843.028       6928.7592      6108.7471     -990.31288      102.48509     -550.85813      20.158652      19.871518      20.416197      90             90             90           
     38500   263.47106     -158.80743     -125.73876     -158.80743      0              9275.3126      20.075324      19.659857      20.444322      0              0              0              8068.924       7034.0866      10228.708      10563.143     -554.50644      3036.284      -3021.5851      20.075324      19.659857      20.444322      90             90             90           
     39000   264.30222     -160.81707     -127.64407     -160.81707      0              3646.9173      19.980989      19.784206      20.411278      0              0              0              8068.7412      4830.82        1982.2223      4127.7097     -1650.3279     -1065.3829      2485.6802      19.980989      19.784206      20.411278      90             90             90           
     39500   266.95262     -159.95096     -126.44531     -159.95096      0              7844.8604      19.93634       20.229827      20.185066      0              0              0              8140.8131      9360.6511      5341.7934      8832.1367     -214.75979     -526.05041      103.02644      19.93634       20.229827      20.185066      90             90             90           
     40000   265.31225     -160.11183     -126.81206     -160.11183      0              5434.626       19.983918      20.276601      19.955493      0              0              0              8086.0841      8428.6089      4616.3579      3258.9113     -2304.9431      2534.8088     -630.84479      19.983918      20.276601      19.955493      90             90             90           
     40500   259.54778     -160.10537     -127.52911     -160.10537      0              7457.8865      19.975558      20.048786      20.044132      0              0              0              8027.3884      6592.3749      6100.7669      9680.5176      1808.3551      1037.2601     -543.97585      19.975558      20.048786      20.044132      90             90             90           
     41000   245.22121     -158.84799     -128.06988     -158.84799      0              10531.015      20.043066      19.912513      20.35917       0              0              0              8125.504       13262.685      10316.95       8013.4101     -2183.2489     -809.06709      392.16604      20.043066      19.912513      20.35917       90             90             90           
     41500   252.92863     -157.93669     -126.19121     -157.93669      0              7349.1594      19.984701      19.857287      20.445626      0              0              0              8113.6817      7965.4821      9497.1825      4584.8136      1979.8975     -1585.2343      1864.4986      19.984701      19.857287      20.445626      90             90             90           
     42000   257.79443     -159.21732     -126.86112     -159.21732      0              6764.178       19.945913      19.881189      20.334499      0              0              0              8063.6145      2146.1113      9901.0387      8245.384       7.3578913     -1450.7845     -1505.7428      19.945913      19.881189      20.334499      90             90             90           
     42500   269.15725     -159.68055     -125.89819     -159.68055      0              5511.3279      20.071949      20.02563       20.281472      0              0              0              8152.2069      2931.601       8237.6782      5364.7045     -445.59553      1128.7264     -4333.0998      20.071949      20.02563       20.281472      90             90             90           
     43000   264.86762     -158.42057     -125.17661     -158.42057      0              8712.372       20.075148      20.015201      20.12896       0              0              0              8087.9796      7878.2199      9100.2711      9158.6251      1052.4147      1292.4138     -1643.2716      20.075148      20.015201      20.12896       90             90             90           
     43500   249.69542     -157.75694     -126.41727     -157.75694      0              7808.8052      19.96252       20.047575      20.085221      0              0              0              8038.1077      5290.9019      10661.111      7474.4026     -1054.989      -122.29208      2258.3949      19.96252       20.047575      20.085221      90             90             90           
     44000   271.90601     -161.14765     -127.02029     -161.14765      0              2112.0578      19.976615      20.185816      20.311639      0              0              0              8190.5523      2008.5076      2165.4688      2162.1971     -220.01479     -474.38604      78.852299      19.976615      20.185816      20.311639      90             90             90           
     44500   260.75238     -159.41025     -126.6828      -159.41025      0              5581.4512      19.890192      19.93957       20.345011      0              0              0              8068.8696      4596.0056      7271.0429      4877.3051      60.297367      842.63397      1000.999       19.890192      19.93957       20.345011      90             90             90           
     45000   241.22581     -158.72463     -128.448       -158.72463      0              6782.9611      20.054057      19.81562       20.370104      0              0              0              8094.7446      7235.9904      4503.19        8609.7029      436.26818     -1263.2716     -72.362232      20.054057      19.81562       20.370104      90             90             90           
     45500   254.02973     -159.82278     -127.93911     -159.82278      0              7872.516       20.19812       19.860465      20.273216      0              0              0              8132.48        10331.404      5857.355       7428.7885     -135.35807      350.79416     -1525.157       20.19812       19.860465      20.273216      90             90             90           
     46000   250.38633     -158.74663     -127.32024     -158.74663      0              6823.8362      20.067915      19.999148      20.093705      0              0              0              8064.432       7050.1505      8667.7338      4753.6241      1596.9777     -2558.9437      2746.6793      20.067915      19.999148      20.093705      90             90             90           
     46500   259.94952     -159.81439     -127.18771     -159.81439      0              7482.4153      19.884155      20.213521      20.118716      0              0              0              8086.2909      12706.947      2530.9251      7209.3742     -1233.4217     -1812.8342     -3048.3096      19.884155      20.213521      20.118716      90             90             90           
     47000   256.26768     -158.86712     -126.70255     -158.86712      0              3828.4125      19.933449      20.255764      20.38653       0              0              0              8231.4132      5968.3792      2689.4796      2827.3789     -247.16603     -1140.3491      661.93864      19.933449      20.255764      20.38653       90             90             90           
     47500   261.55951     -157.96077     -125.13202     -157.96077      0              10928.508      19.974458      19.660323      20.402277      0              0              0              8012.0618      8251.9423      13431.899      11101.684     -404.3649       406.2297       4072.0794      19.974458      19.660323      20.402277      90             90             90           
     48000   258.46245     -158.32417     -125.88414     -158.32417      0              6056.8697      20.210553      19.654683      20.475635      0              0              0              8133.5777      6434.6392      4315.3892      7420.5808      399.41352     -2018.6304     -456.79082      20.210553      19.654683      20.475635      90             90             90           
     48500   252.74246     -157.99153     -126.26942     -157.99153      0              6373.4459      20.11797       20.002712      20.287391      0              0              0              8163.9293      5754.5066      5282.8582      8082.9728      1329.088      -190.52001      1229.6894      20.11797       20.002712      20.287391      90             90             90           
     49000   281.58161     -159.50271     -124.16095     -159.50271      0              8244.2044      19.920724      20.104355      20.085211      0              0              0              8043.9925      11395.913      2470.4438      10866.257      404.96877      2220.8492      1373.2716      19.920724      20.104355      20.085211      90             90             90           
     49500   272.68262     -156.10508     -121.88025     -156.10508      0              4211.2733      20.040596      20.156049      20.206592      0              0              0              8162.2351      3520.338       4209.7967      4903.6852      232.62678      1315.8674      139.08497      20.040596      20.156049      20.206592      90             90             90           
     50000   262.46994     -157.54161     -124.59859     -157.54161      0              5404.0704      19.996819      19.972795      20.281064      0              0              0              8100.1023      4741.5065      6560.6471      4910.0576      414.69223     -488.39386      4249.4522      19.996819      19.972795      20.281064      90             90             90           
     50500   263.2353      -159.3959      -126.35682     -159.3959       0              4962.4526      19.99865       19.938188      20.359094      0              0              0              8117.9211      5476.4071      5696.8326      3714.1179     -1938.4743     -1180.9485     -927.08679      19.99865       19.938188      20.359094      90             90             90           
     51000   260.25597     -158.40129     -125.73615     -158.40129      0              4639.6854      19.958761      20.017948      20.394085      0              0              0              8148.1191      6199.6961      4738.9162      2980.444      -1085.6368      3517.7826      155.45571      19.958761      20.017948      20.394085      90             90             90           
     51500   260.78056     -159.02974     -126.29876     -159.02974      0              6567.461       19.910382      19.95667       20.165104      0              0              0              8012.5016      6915.5928      6040.1626      6746.6277      87.918517      1043.3468      718.03685      19.910382      19.95667       20.165104      90             90             90           
     52000   252.71163     -160.55646     -128.83822     -160.55646      0              1707.558       20.213557      20.024121      20.196095      0              0              0              8174.5453      2357.5598      2080.1994      684.91476      1480.3729      1277.7713      616.26526      20.213557      20.024121      20.196095      90             90             90           
     52500   263.6484      -158.73522     -125.64429     -158.73522      0              4263.8466      20.126749      19.882189      20.280783      0              0              0              8115.6356      4294.6147      4404.5905      4092.3344      1072.3131     -797.09018      599.72384      20.126749      19.882189      20.280783      90             90             90           
     53000   258.29965     -159.88135     -127.46174     -159.88135      0              7126.2447      19.860486      19.887024      20.447073      0              0              0              8075.8979      6842.7216      6936.3442      7599.6684      679.23018     -1715.2836      1744.8886      19.860486      19.887024      20.447073      90             90             90           
     53500   266.02584     -160.2466      -126.85727     -160.2466       0              9991.48        19.817851      19.99296       20.381158      0              0              0              8075.3721      10922.423      8042.2161      11009.801     -791.50564      812.47557     -3436.6633      19.817851      19.99296       20.381158      90             90             90           
     54000   269.31241     -159.34761     -125.54578     -159.34761      0              7187.7844      20.027424      20.077983      20.184008      0              0              0              8116.1969      2061.2791      10817.659      8684.4151      43.60209      -1908.7812      1676.6818      20.027424      20.077983      20.184008      90             90             90           
     54500   254.21419     -160.61065     -128.70382     -160.61065      0              4762.7231      20.190828      20.025299      20.0097        0              0              0              8090.4694      4159.6658      6670.6304      3457.8733      1054.0488     -109.04998      1499.429       20.190828      20.025299      20.0097        90             90             90           
     55000   257.70199     -159.10356     -126.75897     -159.10356      0              6249.0501      20.096265      19.917271      20.064258      0              0              0              8030.9753      5878.2752      6292.7843      6576.0907      607.13044      457.84879      830.75118      20.096265      19.917271      20.064258      90             90             90           
     55500   253.13486     -160.09117     -128.31981     -160.09117      0              3920.7493      19.972652      20.029774      20.475309      0              0              0              8191.1004      4364.722       5441.7552      1955.7705      564.88324     -1082.5585     -266.61631      19.972652      20.029774      20.475309      90             90             90           
     56000   264.88488     -158.03002     -124.78389     -158.03002      0              8802.4425      19.776574      19.916522      20.514343      0              0              0              8080.201       11521.993      8977.2412      5908.0934     -508.52386      291.26632     -672.27823      19.776574      19.916522      20.514343      90             90             90           
     56500   258.89711     -158.12964     -125.63505     -158.12964      0              8340.6055      19.954109      19.857544      20.406903      0              0              0              8086.0232      4108.5809      13108.254      7804.9817      977.22167      1110.7258      2665.461       19.954109      19.857544      20.406903      90             90             90           
     57000   268.16451     -160.06363     -126.40587     -160.06363      0              6794.1884      20.226879      19.967934      20.219147      0              0              0              8166.2911      7735.9259      4065.2043      8581.435       506.21577     -3604.2822      474.16049      20.226879      19.967934      20.219147      90             90             90           
     57500   264.40993     -159.67758     -126.49106     -159.67758      0              5086.8189      20.120983      20.099041      20.035929      0              0              0              8102.7794      4357.2579      3143.8387      7759.36        515.06704      2871.2817     -91.899087      20.120983      20.099041      20.035929      90             90             90           
     58000   256.83358     -158.3874      -126.15181     -158.3874       0              5920.0484      19.882345      20.163883      20.075767      0              0              0              8048.4809      9061.6204      4046.1682      4652.3567     -20.867429     -786.39729     -266.83693      19.882345      20.163883      20.075767      90             90             90           
     58500   256.38272     -158.78263     -126.60362     -158.78263      0              4769.2883      19.917788      20.033106      20.349354      0              0              0              8119.701       4591.0608      3733.3463      5983.4577      1213.0245      93.400796     -931.44975      19.917788      20.033106      20.349354      90             90             90           
     59000   267.0127      -159.11906     -125.60587     -159.11906      0              9467.9429      20.117588      19.754039      20.577861      0              0              0              8177.7166      9159.0147      8639.5251      10605.289      2392.1821     -3257.877      -1818.3593      20.117588      19.754039      20.577861      90             90             90           
     59500   262.05511     -158.13177     -125.24082     -158.13177      0              5430.2435      20.082399      19.637661      20.444434      0              0              0              8062.699       3619.4179      7095.8525      5575.4599      148.1007       219.52281     -617.11132      20.082399      19.637661      20.444434      90             90             90           
     60000   251.67427     -158.90648     -127.31844     -158.90648      0              10583.375      20.096702      19.871779      20.248384      0              0              0              8086.3383      11166.508      11520.82       9062.7979      2610.2648     -35.12012      -1400.348       20.096702      19.871779      20.248384      90             90             90           
     60500   256.4537      -159.7315      -127.54358     -159.7315       0              2422.5304      20.128556      20.139878      20.14165       0              0              0              8165.1563      4145.3277      314.185        2808.0784      1718.0472      59.594249     -3705.2314      20.128556      20.139878      20.14165       90             90             90           
     61000   258.97518     -158.62577     -126.12138     -158.62577      0              6595.961       19.945486      20.061829      20.063002      0              0              0              8028.0683      6422.2532      5692.3173      7673.3126      1139.0949      1074.7535      256.20537      19.945486      20.061829      20.063002      90             90             90           
     61500   273.02386     -160.78549     -126.51783     -160.78549      0              7482.2317      19.990794      20.040633      20.29856       0              0              0              8132.1746      6719.6339      5885.6728      9841.3885      785.03766      384.17333     -131.09198      19.990794      20.040633      20.29856       90             90             90           
     62000   265.75964     -158.83842     -125.48251     -158.83842      0              6924.0668      19.952437      19.959838      20.419145      0              0              0              8131.8717      6599.6882      7898.3842      6274.1279     -2416.4841      2528.3449     -432.53982      19.952437      19.959838      20.419145      90             90             90           
     62500   260.7477      -159.22774     -126.50088     -159.22774      0              3645.724       19.921357      20.012553      20.408725      0              0              0              8136.4939      9382.9864     -1668.7067      3222.8923      1554.2315      829.72217      695.91779      19.921357      20.012553      20.408725      90             90             90           
     63000   264.57708     -156.82308     -123.61559     -156.82308      0              7527.3664      19.944909      19.870358      20.226501      0              0              0              8016.015       11816.714      5373.0809      5392.3042      780.4877      -363.67493      742.7383       19.944909      19.870358      20.226501      90             90             90           
     63500   257.10445     -159.42031     -127.15071     -159.42031      0              842.96712      20.254945      20.010615      20.281358      0              0              0              8220.3165     -3331.2375      3735.6513      2124.4876      1485.8876     -183.15723     -2302.6287      20.254945      20.010615      20.281358      90             90             90           
     64000   263.13929     -158.48105     -125.45401     -158.48105      0              7208.645       20.128473      19.919006      20.143187      0              0              0              8076.1925      7895.4646      8507.5368      5222.9336      2241.8804     -1570.2352     -389.40772      20.128473      19.919006      20.143187      90             90             90           
     64500   263.25434     -159.68057     -126.6391      -159.68057      0              5789.8065      19.88442       19.998005      20.22702       0              0              0              8043.2493      4512.9861      3769.3185      9087.1148     -2157.0702      221.71415      1047.2714      19.88442       19.998005      20.22702       90             90             90           
     65000   255.4952      -161.21487     -129.14726     -161.21487      0              3076.6263      19.880547      20.193289      20.443585      0              0              0              8207.1517      5045.8356      3033.4269      1150.6164      559.86523      1443.2255      937.48163      19.880547      20.193289      20.443585      90             90             90           
     65500   251.32826     -158.7811      -127.23649     -158.7811       0              8568.4802      19.844884      19.992749      20.296929      0              0              0              8052.8838      10299.953      8317.8308      7087.6566      1483.333      -360.19373     -591.01564      19.844884      19.992749      20.296929      90             90             90           
     66000   270.52567     -158.72235     -124.76824     -158.72235      0              8385.0722      20.045339      19.939205      20.288737      0              0              0              8109.1672      8367.7708      7793.6659      8993.7799     -2374.8147      1814.9482      140.31382      20.045339      19.939205      20.288737      90             90             90           
     66500   268.62543     -159.4259      -125.71029     -159.4259       0              3588.1292      20.169179      19.996081      20.275509      0              0              0              8177.2045      4661.8383      2460.5343      3642.0151     -1837.434       2919.9631     -3563.5439      20.169179      19.996081      20.275509      90             90             90           
     67000   254.14328     -158.84493     -126.947       -158.84493      0              5841.0843      20.013605      19.901646      20.137123      0              0              0              8020.6901      7730.4588      4535.2636      5257.5306     -118.29961      418.14514     -791.65486      20.013605      19.901646      20.137123      90             90             90           
     67500   262.28421     -160.21115     -127.29144     -160.21115      0              549.36816      20.057227      19.955051      20.362288      0              0              0              8149.8627     -357.01753      2349.7141     -344.59212     -813.30405     -1348.8856     -2533.5664      20.057227      19.955051      20.362288      90             90             90           
     68000   259.09183     -159.99218     -127.47315     -159.99218      0              4509.6888      19.940576      19.884238      20.441948      0              0              0              8105.2968      2932.455       8942.3573      1654.254       1333.7147      559.76326      3821.2427      19.940576      19.884238      20.441948      90             90             90           
     68500   268.10578     -159.62723     -125.97684     -159.62723      0              8401.1996      19.901623      19.929799      20.366019      0              0              0              8077.8829      7005.5668      11782.224      6415.8075     -508.6441       1946.9327     -3630.339       19.901623      19.929799      20.366019      90             90             90           
     69000   257.53786     -160.50143     -128.17744     -160.50143      0              6765.3416      20.041756      20.095317      20.247043      0              0              0              8154.404       6970.3521      6364.222       6961.4507      780.16772     -1220.4695      673.45665      20.041756      20.095317      20.247043      90             90             90           
     69500   259.11393     -160.568       -128.0462      -160.568        0              5623.259       19.993362      20.032279      20.081029      0              0              0              8042.7055      5210.7456      5359.0056      6300.0258     -804.5731       1326.5651     -1493.4997      19.993362      20.032279      20.081029      90             90             90           
     70000   253.65483     -159.37527     -127.53864     -159.37527      0              4703.067       20.081691      19.970826      20.20317       0              0              0              8102.4398      2116.5171      3978.6323      8014.0516     -854.43165      1821.6382      742.64145      20.081691      19.970826      20.20317       90             90             90           
     70500   263.00853     -160.85925     -127.84863     -160.85925      0              4775.3644      19.968887      19.950568      20.385547      0              0              0              8121.4106      3080.6532      9661.4614      1583.9786      1392.9006      2209.4609      2030.6078      19.968887      19.950568      20.385547      90             90             90           
     71000   258.49061     -159.58898     -127.14541     -159.58898      0              10256.033      19.855053      19.870326      20.381719      0              0              0              8041.126       9490.7714      13304.197      7973.132      -339.0693       1187.2353      2801.9817      19.855053      19.870326      20.381719      90             90             90           
     71500   259.85603     -160.06499     -127.45004     -160.06499      0              2958.8008      20.140964      19.942382      20.336031      0              0              0              8168.1459      3294.073       588.61749      4993.7119      909.91592     -802.25358     -925.00029      20.140964      19.942382      20.336031      90             90             90           
     72000   273.26167     -157.84866     -123.55115     -157.84866      0              8032.4563      20.187913      19.867067      20.052004      0              0              0              8042.3497      5190.0434      11638.825      7268.5007     -574.43911     -2124.2036      2251.2124      20.187913      19.867067      20.052004      90             90             90           
     72500   257.20807     -158.65536     -126.37277     -158.65536      0              3277.169       20.155985      20.137158      20.157974      0              0              0              8181.8044      4933.0395     -556.0814       5454.5489     -731.84867      148.2376       4011.4198      20.155985      20.137158      20.157974      90             90             90           
     73000   258.88116     -159.98496     -127.49238     -159.98496      0              7551.0836      19.808661      20.168454      20.238829      0              0              0              8085.6158      10165.55       6614.3051      5873.3952      258.72609      503.32818     -1758.9828      19.808661      20.168454      20.238829      90             90             90           
     73500   260.45096     -159.35287     -126.66325     -159.35287      0              7378.4626      19.762674      20.010326      20.331716      0              0              0              8040.3307      10721.95       3175.4655      8237.9724     -764.77889      649.86658      1796.8095      19.762674      20.010326      20.331716      90             90             90           
     74000   257.99446     -160.39609     -128.0148      -160.39609      0              4349.587       20.079728      19.958126      20.390157      0              0              0              8171.4316      3717.9946      4716.8634      4613.903       1361.6885      1493.6486     -902.67312      20.079728      19.958126      20.390157      90             90             90           
     74500   252.68306     -158.75965     -127.04499     -158.75965      0              6995.9033      20.115283      19.896882      20.184477      0              0              0              8078.4617      3802.2032      10760.264      6425.2424      81.803816     -305.77514      3346.1574      20.115283      19.896882      20.184477      90             90             90           
     75000   271.23369     -160.10488     -126.06191     -160.10488      0              7649.372       20.070144      20.014003      20.102179      0              0              0              8074.7221      12545.875      5082.3235      5319.9173      1301.3903      2308.8003      3014.9058      20.070144      20.014003      20.102179      90             90             90           
     75500   258.87982     -160.48614     -127.99372     -160.48614      0              4015.2213      19.998001      20.12462       20.208052      0              0              0              8132.7747      5452.0194      1589.8402      5003.8043      15.716508     -705.5976       1160.7812      19.998001      20.12462       20.208052      90             90             90           
     76000   256.01146     -158.42748     -126.29507     -158.42748      0              7100.1954      19.943544      19.970115      20.275644      0              0              0              8075.2797      9190.4524      3652.3745      8457.7592      1033.1865      1410.9347     -585.03738      19.943544      19.970115      20.275644      90             90             90           
     76500   246.26225     -160.97795     -130.06918     -160.97795      0              6558.6178      20.058881      19.774343      20.338836      0              0              0              8067.4234      11591.448      4972.9039      3111.502       702.87971     -334.14535      4053.5633      20.058881      19.774343      20.338836      90             90             90           
     77000   243.7716      -160.39643     -129.80026     -160.39643      0              8365.3902      20.112763      19.788449      20.316279      0              0              0              8085.887       8079.1647      8370.9918      8646.014      -989.35725     -14.868017     -912.85091      20.112763      19.788449      20.316279      90             90             90           
     77500   265.25329     -159.92723     -126.63487     -159.92723      0              6450.9107      19.955033      20.098049      20.196127      0              0              0              8099.803       7405.3553      6724.791       5222.5857     -453.3421      -1897.6149     -164.99467      19.955033      20.098049      20.196127      90             90             90           
     78000   272.93245     -158.16875     -123.91256     -158.16875      0              5411.668       19.869318      20.310417      20.095494      0              0              0              8109.6198      3031.1875      4336.1369      8867.6797      1432.7905      638.34883      194.66228      19.869318      20.310417      20.095494      90             90             90           
     78500   260.96114     -160.6843      -127.93065     -160.6843       0              6242.3472      19.97061       20.013212      20.190172      0              0              0              8069.5285      4260.695       7767.2258      6699.1209      924.51936      1367.3916     -3582.8546      19.97061       20.013212      20.190172      90             90             90           
     79000   261.26173     -160.80681     -128.01544     -160.80681      0              6353.6339      20.153813      19.659859      20.443302      0              0              0              8100.0685      6941.686       7770.1344      4349.0814      875.85516     -658.05323      923.8949       20.153813      19.659859      20.443302      90             90             90           
     79500   264.43682     -159.33196     -126.14207     -159.33196      0              4428.1739      20.028725      19.799892      20.559173      0              0              0              8153.0811      5014.0289      3516.2956      4754.1973     -938.88983      521.53158     -210.88485      20.028725      19.799892      20.559173      90             90             90           
     80000   269.85053     -159.30295     -125.43358     -159.30295      0              5760.1407      19.753104      20.087469      20.414169      0              0              0              8100.1358      5638.8124      4640.1102      7001.4995      1072.5813     -834.69675     -230.52661      19.753104      20.087469      20.414169      90             90             90           
     80500   260.49443     -159.22849     -126.53341     -159.22849      0              7192.9498      19.915218      20.129353      20.257651      0              0              0              8120.8962      8811.7976      8141.5982      4625.4537      371.21337      531.50386     -979.05021      19.915218      20.129353      20.257651      90             90             90           
     81000   267.60686     -160.34479     -126.75703     -160.34479      0              8334.2666      20.124982      19.973554      20.22589       0              0              0              8130.1487      7121.5212      8006.656       9874.6224      1417.127      -1946.805       2277.114       20.124982      19.973554      20.22589       90             90             90           
     81500   252.89426     -158.71869     -126.97753     -158.71869      0              7711.5739      20.069436      19.898259      20.230514      0              0              0              8078.9921      9239.8199      9112.3707      4782.5311      1900.3675      487.12411      340.21326      20.069436      19.898259      20.230514      90             90             90           
     82000   253.96626     -160.01745     -128.14174     -160.01745      0              6432.9487      19.939211      20.03228       20.32879       0              0              0              8119.8848      7184.0522      6146.2553      5968.5386     -1562.8639      759.03446     -1605.3521      19.939211      20.03228       20.32879       90             90             90           
     82500   276.61208     -159.50714     -124.78911     -159.50714      0              6207.0819      19.855481      20.1523        20.330311      0              0              0              8134.8405      5636.1044      6663.7789      6321.3624     -798.94091     -257.1494      -2453.7925      19.855481      20.1523        20.330311      90             90             90           
     83000   260.03821     -158.43526     -125.79744     -158.43526      0              6209.253       19.978071      19.999625      20.195274      0              0              0              8069.1011      5098.9834      7392.9344      6135.8411     -558.71533      2580.2237      715.0318       19.978071      19.999625      20.195274      90             90             90           
     83500   265.94017     -159.21667     -125.83809     -159.21667      0              6160.4287      20.216101      19.88041       20.185531      0              0              0              8112.6533      6508.7178      6235.1598      5737.4083      172.99208     -400.10619      1875.6335      20.216101      19.88041       20.185531      90             90             90           
     84000   260.18273     -156.99805     -124.3421      -156.99805      0              5462.7639      20.268199      19.853123      20.244911      0              0              0              8146.2901      7233.6693      4893.0479      4261.5744      2061.4515     -887.53649     -1313.9295      20.268199      19.853123      20.244911      90             90             90           
     84500   258.36308     -157.97909     -125.55153     -157.97909      0              7497.5676      20.022074      19.964991      20.272882      0              0              0              8103.8924      11891.326      4883.2972      5718.0794      348.284        514.23155      1413.8537      20.022074      19.964991      20.272882      90             90             90           
     85000   259.74934     -159.83003     -127.22848     -159.83003      0              6212.009       19.851778      20.113812      20.359872      0              0              0              8129.5937      5501.0142      9311.7832      3823.2296      124.71375      968.0441      -643.43011      19.851778      20.113812      20.359872      90             90             90           
     85500   258.96263     -157.37907     -124.87625     -157.37907      0              9757.3568      19.876081      20.098646      20.234055      0              0              0              8083.1469      10871.815      8041.2068      10359.049      956.98178     -721.20922     -786.70369      19.876081      20.098646      20.234055      90             90             90           
     86000   254.25099     -157.93765     -126.0262      -157.93765      0              5163.8431      20.150222      20.009572      20.192646      0              0              0              8141.6208      2303.2399      7925.1393      5263.1501     -276.00916     -1012.0821      2515.1641      20.150222      20.009572      20.192646      90             90             90           
     86500   261.40093     -160.39605     -127.5872      -160.39605      0              6225.4969      20.191652      19.820993      20.163305      0              0              0              8069.7294      3413.2479      6934.3605      8328.8823      90.883712     -2721.4509      780.54236      20.191652      19.820993      20.163305      90             90             90           
     87000   258.0708      -160.78574     -128.39486     -160.78574      0              4805.0707      20.016789      19.874724      20.296655      0              0              0              8074.5807      4268.4741      5036.8092      5109.9287     -147.78325     -1925.1551     -3061.0095      20.016789      19.874724      20.296655      90             90             90           
     87500   250.71106     -158.33255     -126.8654      -158.33255      0              4996.1722      19.924821      19.987617      20.464823      0              0              0              8150.1093      3780.9581      5427.0371      5780.5215     -2230.5584      757.48619      3579.5476      19.924821      19.987617      20.464823      90             90             90           
     88000   262.8188      -158.49112     -125.50431     -158.49112      0              5632.2012      19.898577      19.797327      20.354641      0              0              0              8018.4792      8321.9165      3546.0785      5028.6084      366.73837     -1470.7616     -4514.2401      19.898577      19.797327      20.354641      90             90             90           
     88500   250.69475     -158.96387     -127.49877     -158.96387      0              3410.0241      20.212322      19.946171      20.357426      0              0              0              8207.2681      258.20544      5322.9417      4648.9253     -583.54139      37.417391     -673.45963      20.212322      19.946171      20.357426      90             90             90           
     89000   252.21381     -160.53208     -128.87632     -160.53208      0              4075.2612      20.075606      20.074577      20.101123      0              0              0              8100.9398      5238.9703      979.36713      6007.4463      105.31359      2853.9135      2258.7252      20.075606      20.074577      20.101123      90             90             90           
     89500   260.54352     -162.0542      -129.35296     -162.0542       0              3542.5109      19.847274      20.138507      20.069474      0              0              0              8021.6578      4915.8362      3492.6465      2219.0499      373.67965      2042.1216      1255.7734      19.847274      20.138507      20.069474      90             90             90           
     90000   254.29583     -161.20687     -129.28979     -161.20687      0              7720.1404      19.962735      20.069528      20.312188      0              0              0              8137.929       7659.2401      5655.3371      9845.8439     -412.31842      1572.574       1109.2306      19.962735      20.069528      20.312188      90             90             90           
     90500   267.45429     -159.69358     -126.12497     -159.69358      0              4349.1959      20.030627      19.851076      20.379567      0              0              0              8103.5168      4608.2893      6127.4899      2311.8087      531.31697      3261.7524      1688.9736      20.030627      19.851076      20.379567      90             90             90           
     91000   263.47716     -159.98892     -126.91948     -159.98892      0              3600.3531      20.011625      19.871435      20.332783      0              0              0              8085.5284      5211.475       2883.0566      2706.5276     -1671.8236      193.83432      130.98913      20.011625      19.871435      20.332783      90             90             90           
     91500   240.80585     -160.3712      -130.14728     -160.3712       0              7286.4105      20.020128      20.030274      20.22386       0              0              0              8109.9429      8714.6162      4981.8631      8162.7521     -868.59118      1510.9949     -903.12528      20.020128      20.030274      20.22386       90             90             90           
     92000   253.52593     -159.90686     -128.08642     -159.90686      0              3112.5817      19.947651      20.18894       20.228518      0              0              0              8146.4679      1830.3889      3363.0873      4144.2689      1459.1824      49.728489      1169.2317      19.947651      20.18894       20.228518      90             90             90           
     92500   259.795       -160.27736     -127.67007     -160.27736      0              7432.8743      19.88665       20.09477       20.257514      0              0              0              8095.2604      8563.8288      5829.4417      7905.3526     -154.92427     -941.29678      307.04821      19.88665       20.09477       20.257514      90             90             90           
     93000   261.13241     -159.6204      -126.84525     -159.6204       0              7947.1763      19.976805      19.919854      20.259252      0              0              0              8061.8662      8380.7766      9407.2243      6053.528      -1089.6058     -279.8062       1971.5146      19.976805      19.919854      20.259252      90             90             90           
     93500   244.50178     -158.75481     -128.067       -158.75481      0              7647.5362      20.141728      19.848267      20.354286      0              0              0              8137.2043      5268.0245      9781.3271      7893.257       1269.8185     -3232.6074      1260.739       20.141728      19.848267      20.354286      90             90             90           
     94000   254.43196     -160.17372     -128.23955     -160.17372      0              5943.9871      20.048327      19.913965      20.360571      0              0              0              8128.7885      7725.4905      4076.0004      6030.4704     -476.85501      1275.7923     -1922.4958      20.048327      19.913965      20.360571      90             90             90           
     94500   257.44451     -159.77108     -127.4588      -159.77108      0              5799.0373      19.876573      20.067604      20.336503      0              0              0              8111.7262      3888.4904      6311.7         7196.9214     -607.61461     -314.90285      122.86654      19.876573      20.067604      20.336503      90             90             90           
     95000   242.56314     -160.12969     -129.6852      -160.12969      0              10646.087      19.924421      19.998008      20.256816      0              0              0              8071.3024      11282.939      11328.915      9326.4062      1189.6294     -776.3589       1516.7599      19.924421      19.998008      20.256816      90             90             90           
[...]
    377000   256.76026     -160.79408     -128.56769     -160.79408      0              7538.0153      20.004277      20.088586      20.212181      0              0              0              8122.4196      8994.4195      7671.3913      5948.235      -1718.7874      3324.3706     -136.72795      20.004277      20.088586      20.212181      90             90             90           
    377500   254.81372     -160.17715     -128.19507     -160.17715      0              4452.1836      19.872897      20.072744      20.363911      0              0              0              8123.2369      6103.4487      4685.5567      2567.5456      1803.5845      1710.1156     -1929.0992      19.872897      20.072744      20.363911      90             90             90           
    378000   258.93158     -159.41748     -126.91856     -159.41748      0              4643.0338      19.86176       19.958235      20.358446      0              0              0              8070.2035      2756.5969      8859.3697      2313.1347     -518.79646      1803.8869     -2499.468       19.86176       19.958235      20.358446      90             90             90           
    378500   261.39424     -161.3472      -128.53919     -161.3472       0              6513.2096      20.063779      19.837663      20.260049      0              0              0              8063.874       7602.2641      5092.9089      6844.4558     -468.36708      481.70344     -1614.2477      20.063779      19.837663      20.260049      90             90             90           
    379000   259.43639     -159.19194     -126.62966     -159.19194      0              7207.4828      20.208718      19.795249      20.182083      0              0              0              8073.5719      9010.9046      3971.9201      8639.6237     -1290.3412      1596.1572      704.97391      20.208718      19.795249      20.182083      90             90             90           
    379500   256.42778     -160.07959     -127.89493     -160.07959      0              5397.8204      20.112799      19.837378      20.313516      0              0              0              8104.7926      2691.0659      7708.5219      5793.8732     -2226.4797     -2642.5573     -209.90509      20.112799      19.837378      20.313516      90             90             90           
    380000   256.79514     -160.44712     -128.21635     -160.44712      0              6250.2377      19.838595      19.99058       20.395315      0              0              0              8088.4762      5060.4674      8719.2774      4970.9685     -286.53343     -650.53204     -1604.0817      19.838595      19.99058       20.395315      90             90             90           
    380500   246.38479     -159.66756     -128.74342     -159.66756      0              1250.9132      19.761807      20.128485      20.194682      0              0              0              8032.9441      1950.2262      2877.6892     -1075.1758     -1103.0976      747.1906      -3322.3965      19.761807      20.128485      20.194682      90             90             90           
    381000   249.14003     -159.15927     -127.8893      -159.15927      0              3959.5878      20.012408      20.189717      20.055998      0              0              0              8103.523       1294.6929      4224.1003      6359.9702     -345.7488       570.42297     -534.87247      20.012408      20.189717      20.055998      90             90             90           
    381500   276.71235     -158.73504     -124.00443     -158.73504      0              4412.6896      20.169972      20.049975      20.071364      0              0              0              8117.0085      2937.4776      4493.2954      5807.2958      20.77439      -340.94968     -1231.7655      20.169972      20.049975      20.071364      90             90             90           
    382000   261.21364     -160.03241     -127.24707     -160.03241      0              3465.9255      20.123575      19.865234      20.360233      0              0              0              8139.1968      3733.9658      5165.7901      1498.0207      2058.6303      2071.8938      1655.6031      20.123575      19.865234      20.360233      90             90             90           
    382500   268.18374     -157.95219     -124.29202     -157.95219      0              4771.5794      19.956247      19.648513      20.518849      0              0              0              8045.6576      5329.4836      6220.3081      2764.9464     -1110.5988     -654.42465      1786.9676      19.956247      19.648513      20.518849      90             90             90           
    383000   257.06711     -157.59076     -125.32585     -157.59076      0              4565.9524      20.024858      19.679874      20.577991      0              0              0              8109.5125      1224.9558      7229.1235      5243.7778     -338.0956      -1056.1584      992.50182      20.024858      19.679874      20.577991      90             90             90           
    383500   274.65163     -158.12605     -123.65409     -158.12605      0              7061.4072      20.125833      19.855292      20.364015      0              0              0              8137.5479      9272.5149      2292.2933      9619.4133      1251.3822      363.51929      2774.1106      20.125833      19.855292      20.364015      90             90             90           
    384000   253.81422     -158.87837     -127.02175     -158.87837      0              5008.7216      20.071263      20.141668      19.993816      0              0              0              8082.8744      3484.8452      6290.4647      5250.8551     -1019.7093      563.57347      2.964279       20.071263      20.141668      19.993816      90             90             90           
    384500   253.89316     -159.09925     -127.23272     -159.09925      0              3257.932       19.941433      20.222446      20.063541      0              0              0              8090.9152      4672.4273      2922.0459      2179.3228     -392.10537     -566.82626      2023.6194      19.941433      20.222446      20.063541      90             90             90           
    385000   248.71709     -159.76897     -128.55208     -159.76897      0              4767.3538      19.808893      20.097677      20.357452      0              0              0              8104.5607      3033.9107      6095.9231      5172.2277     -956.0372       1639.2516      1316.7186      19.808893      20.097677      20.357452      90             90             90           
    385500   254.52418     -160.73602     -128.79028     -160.73602      0              3008.0087      19.881358      19.91607       20.496329      0              0              0              8115.6961      2413.1036      4426.2706      2184.652      -924.44262      755.85418      915.59238      19.881358      19.91607       20.496329      90             90             90           
    386000   262.44788     -160.10259     -127.16234     -160.10259      0              5337.8686      19.999487      19.796642      20.358742      0              0              0              8060.4877      5393.3837      7451.6155      3168.6067     -696.00229      850.73725      2196.1771      19.999487      19.796642      20.358742      90             90             90           
    386500   260.94785     -158.88344     -126.13146     -158.88344      0              5369.8191      20.128957      19.909891      20.291003      0              0              0              8131.9308      5070.5651      3349.4366      7689.4556      1535.8981     -738.68316      519.05719      20.128957      19.909891      20.291003      90             90             90           
    387000   264.83014     -160.40422     -127.16496     -160.40422      0              8675.4407      20.026653      20.016566      20.20204       0              0              0              8098.2872      6520.1076      11375.668      8130.5462      1681.5704      832.07636      433.28513      20.026653      20.016566      20.20204       90             90             90           
    387500   267.47117     -160.14941     -126.57867     -160.14941      0              5308.4215      19.963653      20.084345      20.23384       0              0              0              8112.8977      8700.1497      1631.7785      5593.3364      473.98768     -925.35236     -1454.7808      19.963653      20.084345      20.23384       90             90             90           
    388000   254.65348     -160.92924     -128.96727     -160.92924      0              6526.2006      19.981452      20.037998      20.305705      0              0              0              8130.1666      8241.5284      6315.0567      5022.0168      1004.8564      521.40715     -1586.8914      19.981452      20.037998      20.305705      90             90             90           
    388500   244.66679     -160.10109     -129.39257     -160.10109      0              3821.1707      19.991218      19.898456      20.27774       0              0              0              8066.3713      3910.4429      6926.8997      626.16935     -466.71384     -992.87616      827.19786      19.991218      19.898456      20.27774       90             90             90           
    389000   253.46858     -160.79898     -128.98573     -160.79898      0              2208.9371      20.047767      19.937379      20.259002      0              0              0              8097.5218      2934.3071      57.74469       3634.7596     -293.77644      163.33135     -2661.939       20.047767      19.937379      20.259002      90             90             90           
    389500   257.72642     -161.12314     -128.77548     -161.12314      0              4150.3459      20.042849      19.97765       20.156058      0              0              0              8070.6673      3129.3315      6457.1414      2864.565       1193.2617      3384.3897     -31.643419      20.042849      19.97765       20.156058      90             90             90           
    390000   250.67265     -160.63482     -129.1725      -160.63482      0              4994.252       19.998715      20.055459      20.194554      0              0              0              8099.7005      4434.7789      5039.4158      5508.5612     -477.22046      2287.291      -680.87301      19.998715      20.055459      20.194554      90             90             90           
    390500   270.75906     -160.82323     -126.83983     -160.82323      0              7664.4842      19.861631      19.962382      20.315291      0              0              0              8054.7174      5121.7393      9879.2788      7992.4345     -232.45439      439.16244      2144.668       19.861631      19.962382      20.315291      90             90             90           
    391000   265.77478     -158.78386     -125.42605     -158.78386      0              6206.5814      19.929922      19.900908      20.517668      0              0              0              8137.7901      8245.3653      5230.8463      5143.5328     -325.71947      762.93105     -2618.0854      19.929922      19.900908      20.517668      90             90             90           
    391500   280.77502     -158.54629     -123.30577     -158.54629      0              2565.9999      20.053821      19.979961      20.50915       0              0              0              8217.4944      3858.0402      4462.7309     -622.7714      -31.638017     -1886.4674      1057.1319      20.053821      19.979961      20.50915       90             90             90           
    392000   242.63818     -159.49186     -129.03796     -159.49186      0              8425.9601      19.923959      20.023552      19.971526      0              0              0              7967.609       12225.419      3593.5713      9458.8904      1688.9044     -2291.135      -1154.2286      19.923959      20.023552      19.971526      90             90             90           
    392500   244.40782     -159.4727      -128.79669     -159.4727       0              5090.3385      20.111009      20.25873       19.935138      0              0              0              8122.0435      8533.9462     -583.47145      7320.5407     -625.36142      3407.394       1431.6465      20.111009      20.25873       19.935138      90             90             90           
    393000   253.47321     -158.46386     -126.65003     -158.46386      0              6838.6547      20.09627       20.098425      20.116378      0              0              0              8125.0731      7056.1259      4438.3509      9021.4872      2557.3285     -945.7508       1932.2375      20.09627       20.098425      20.116378      90             90             90           
    393500   264.26589     -157.02295     -123.85452     -157.02295      0              8482.8641      20.011811      19.810965      20.388999      0              0              0              8083.2859      6365.8647      11440.162      7642.5657     -2114.4873      2138.2646     -3525.7389      20.011811      19.810965      20.388999      90             90             90           
    394000   256.14423     -159.58383     -127.43476     -159.58383      0              2734.9855      19.954015      19.768074      20.48724       0              0              0              8081.2423      3281.0129      2994.1107      1929.833      -389.54246      184.35937      2390.0335      19.954015      19.768074      20.48724       90             90             90           
    394500   254.6779      -160.37482     -128.40979     -160.37482      0              8157.718       20.019336      19.939165      20.392694      0              0              0              8140.1276      8896.4612      9793.6582      5783.0347      170.72267     -631.1143       2710.0649      20.019336      19.939165      20.392694      90             90             90           
    395000   270.22066     -160.19518     -126.27935     -160.19518      0              5887.822       20.101009      20.049196      20.200964      0              0              0              8141.1712      7516.5364      3181.5168      6965.4127      46.664409      458.02955     -613.69164      20.101009      20.049196      20.200964      90             90             90           
    395500   252.98846     -160.15187     -128.39888     -160.15187      0              4538.2043      19.984662      19.980178      20.053442      0              0              0              8007.2808      1763.5529      7480.1952      4370.8647      191.05904     -1727.2481      1340.6706      19.984662      19.980178      20.053442      90             90             90           
    396000   255.32224     -160.85678     -128.81088     -160.85678      0              6300.649       20.037379      20.085319      20.22076       0              0              0              8137.9895      9413.6186      1540.492       7947.8364     -446.25493      1276.2925     -1189.4893      20.037379      20.085319      20.22076       90             90             90           
    396500   248.19882     -160.23507     -129.08324     -160.23507      0              5662.1829      19.953257      20.024107      20.263478      0              0              0              8096.1948      2559.1767      8262.7202      6164.6519      2201.9505     -141.60303     -1748.8177      19.953257      20.024107      20.263478      90             90             90           
    397000   256.95062     -159.26688     -127.0166      -159.26688      0              2439.9089      19.906992      19.936819      20.28193       0              0              0              8049.535       1382.4879      3336.5491      2600.6896     -339.15651     -1363.6542     -1438.7508      19.906992      19.936819      20.28193       90             90             90           
    397500   259.93467     -159.72944     -127.10463     -159.72944      0              5204.7727      20.119623      19.886225      20.325596      0              0              0              8132.3392      6022.7915      5632.2358      3959.2908     -532.61723     -439.11465     -1773.5556      20.119623      19.886225      20.325596      90             90             90           
    398000   254.82526     -158.62329     -126.63977     -158.62329      0              6859.8905      20.167512      19.766666      20.224016      0              0              0              8062.1925      5138.1941      7936.9865      7504.4909     -635.38748     -1533.5305     -420.37611      20.167512      19.766666      20.224016      90             90             90           
    398500   257.79397     -158.36837     -126.01223     -158.36837      0              7842.4453      20.063791      19.884823      20.179924      0              0              0              8051.0818      3093.4041      13252.531      7181.4012     -302.0239      -592.51469      1551.926       20.063791      19.884823      20.179924      90             90             90           
    399000   244.03098     -161.31827     -130.68955     -161.31827      0              1286.8611      19.858945      20.129336      20.162469      0              0              0              8059.8941      1865.1127     -2458.1521      4453.6227     -502.893        1971.2005      2352.4919      19.858945      20.129336      20.162469      90             90             90           
    399500   259.31179     -160.58344     -128.03681     -160.58344      0              3998.7575      19.850798      20.217338      20.211667      0              0              0              8111.554       128.22543      3893.3447      7974.7022     -1700.1426     -838.97736     -1260.0178      19.850798      20.217338      20.211667      90             90             90           
    400000   240.79823     -158.9768      -128.75383     -158.9768       0              7437.711       20.011347      19.90359       20.222449      0              0              0              8054.5534      6779.2476      9190.5044      6343.381       1437.879       2149.0083      1972.8598      20.011347      19.90359       20.222449      90             90             90           
Loop time of 1422.68 on 1 procs for 400000 steps with 972 atoms

Performance: 12.146 ns/day, 1.976 hours/ns, 281.160 timesteps/s
103.5% CPU use with 1 MPI tasks x no OpenMP threads

MPI task timing breakdown:
Section |  min time  |  avg time  |  max time  |%varavg| %total
---------------------------------------------------------------
Pair    | 1059       | 1059       | 1059       |   0.0 | 74.43
Bond    | 0.023479   | 0.023479   | 0.023479   |   0.0 |  0.00
Neigh   | 236.05     | 236.05     | 236.05     |   0.0 | 16.59
Comm    | 9.5379     | 9.5379     | 9.5379     |   0.0 |  0.67
Output  | 98.315     | 98.315     | 98.315     |   0.0 |  6.91
Modify  | 18.649     | 18.649     | 18.649     |   0.0 |  1.31
Other   |            | 1.13       |            |       |  0.08

Nlocal:            972 ave         972 max         972 min
Histogram: 1 0 0 0 0 0 0 0 0 0
Nghost:           4678 ave        4678 max        4678 min
Histogram: 1 0 0 0 0 0 0 0 0 0
Neighs:              0 ave           0 max           0 min
Histogram: 1 0 0 0 0 0 0 0 0 0
FullNghs:       251342 ave      251342 max      251342 min
Histogram: 1 0 0 0 0 0 0 0 0 0

Total # of neighbors = 251342
Ave neighs/atom = 258.5823
Ave special neighs/atom = 0
Neighbor list builds = 40000
Dangerous builds not checked

unfix		3
unfix		2

write_data	data.final.${pid}
write_data	data.final.0
System init for write_data ...
Generated 0 of 1 mixed pair_coeff terms from geometric mixing rule

write_restart   restart.lmp.${pid}
write_restart   restart.lmp.0
System init for write_restart ...
Generated 0 of 1 mixed pair_coeff terms from geometric mixing rule
Total wall time: 0:24:01
