LAMMPS data file via write_data, version 23 Jun 2022, timestep = 400000

972 atoms
2 atom types

-0.04308895122033185 20.034141951221862 xlo xhi
0.04785807399098019 19.943194926008943 ylo yhi
0.20780454544059168 20.592967454558085 zlo zhi

Masses

1 1.008
2 15.999

Atoms # full

2 0 2 0 2.2220945261638048 1.9395432419803242 0.8359675581537409 0 0 0
31 0 1 0 1.0362890403503158 1.915801193056889 2.0200387751811006 0 0 0
32 0 2 0 0.7762855176671821 0.9717697294030107 2.2609404599844876 0 0 0
33 0 2 0 1.342601787632809 2.345288469214819 2.8644960814712186 0 0 0
5 0 2 0 3.659559874876284 1.465917247403856 3.718835581678052 0 0 0
10 0 1 0 1.7695767140103984 3.725070476320402 4.019454968472975 0 0 0
675 0 2 0 2.257608114913733 4.861014590134703 0.7813111877997275 0 0 1
18 0 2 0 4.812661718329089 3.308913783249288 3.1266058815401783 0 0 0
4 0 1 0 4.472794909850632 1.5975848908217196 3.1406863919138184 0 0 0
35 0 2 0 4.578606138228924 2.39603061465058 0.6116567656271832 0 0 0
230 0 2 0 4.37298608646366 0.24229984401203528 2.0618678026062884 0 1 0
6 0 2 0 5.15376121463479 1.3698266130726087 3.722002835886556 0 0 0
36 0 2 0 6.07060001329353 2.6622343250744036 1.2667102463502735 0 0 0
68 0 2 0 7.870294041157562 2.8520730115402264 2.8512476725940776 0 0 0
67 0 1 0 7.792338733812844 2.1556272564597676 2.1773561960960515 0 0 0
34 0 1 0 5.4940166107244215 2.6648751265428876 0.4731338850693516 0 0 0
272 0 2 0 7.09370598350007 0.3583543144095783 1.907076030130737 0 1 0
16 0 1 0 4.726862577619956 4.210569180407492 3.503893406629016 0 0 0
17 0 2 0 4.812674431709897 4.881674566482157 2.825516443429618 0 0 0
69 0 2 0 8.420326370750097 2.1930080305072406 1.4019107744026713 0 0 0
41 0 2 0 10.194407154241514 1.1195187068542098 4.103244844296292 0 0 0
37 0 1 0 9.632881223741668 2.3342517872738133 0.2480800256478633 0 0 0
46 0 1 0 8.434149981316232 4.293737958602061 3.9687563562565034 0 0 0
39 0 2 0 10.520445065923953 2.394814068490684 0.4934233449639087 0 0 0
40 0 1 0 11.017943505836877 1.404722238218216 3.6473476862263223 0 0 0
54 0 2 0 11.226626208653261 3.301537609658568 4.023911611460322 0 0 0
266 0 2 0 10.94827285158103 0.34304861869081704 2.3101222569346085 0 1 0
70 0 1 0 12.242458838929977 2.8071200653824007 0.7211395788502096 0 0 0
72 0 2 0 12.94802887861278 2.576048936244662 1.3953362490528376 0 0 0
84 0 2 0 14.591942715596886 3.17877201652062 3.670276445365655 0 0 0
103 0 1 0 14.388282048240157 1.8132266086663924 2.199294612100777 0 0 0
105 0 2 0 14.127051728857653 0.851752017391 2.050462461812068 0 0 0
104 0 2 0 15.2439704039333 1.9843365890917037 1.7038959227251267 0 0 0
82 0 1 0 14.828880371053222 4.078337474734726 3.940559428040635 0 0 0
83 0 2 0 14.496849208972632 4.667393460246058 3.2485864304329506 0 0 0
108 0 2 0 19.83531137799035 2.392356933151044 1.1535659925002935 0 0 0
76 0 1 0 17.79300125739787 1.352135948024111 3.121121094260141 0 0 0
77 0 2 0 17.84965087798853 0.7087030115485808 2.450890812443536 0 0 0
89 0 2 0 17.80911076610554 3.104298813019283 3.254651527444512 0 0 0
107 0 2 0 18.25904373339648 2.439274336415204 0.9998918680191154 0 0 0
73 0 1 0 16.336698795888488 2.620413118797475 0.4799997363350692 0 0 0
106 0 1 0 19.078757142137782 2.421141522470396 0.5479227405435094 0 0 0
88 0 1 0 17.468369819796713 4.010181383108092 3.4999825711576436 0 0 0
90 0 2 0 16.53144990595451 3.8643651305756626 3.6495421680041247 0 0 0
78 0 2 0 18.50425216238778 1.1498349569764017 3.7128439542442897 0 0 0
96 0 2 0 16.41653602603339 0.8082794082446256 4.020803021572003 0 0 0
20 0 2 0 1.4536633606068436 5.149708300039428 2.8319036488097953 0 0 0
19 0 1 0 1.0065939296742514 5.621367992937666 2.075122288761615 0 0 0
21 0 2 0 1.177031702774427 6.614933956952218 2.132970849094253 0 0 0
139 0 1 0 0.8795671601354117 8.377633453735207 2.3960729818892155 0 0 0
141 0 2 0 1.6494708695404507 8.624786228703702 1.8785429066506987 0 0 0
110 0 2 0 3.6028533175824653 9.076225921726648 0.7327158335726829 0 0 0
119 0 2 0 0.8825813207692931 9.933519715271263 3.6979632689606508 0 0 0
109 0 1 0 2.6928501615561298 9.210977314544229 0.5010851806466259 0 0 0
126 0 2 0 3.914827659718767 9.828404260999283 3.5653433542724553 0 0 0
140 0 2 0 0.14349275019971247 8.81033382534436 1.9522761397165478 0 0 0
112 0 1 0 4.3293703148158045 8.130457928163395 3.439283822407097 0 0 0
14 0 2 0 4.424018497061688 5.626353112052664 0.7894136582163535 0 0 0
114 0 2 0 4.4365740700362375 7.676862395671107 2.6011618789744375 0 0 0
13 0 1 0 4.789293467838997 6.212002283141885 1.499409393281304 0 0 0
56 0 2 0 7.978457814291328 5.308429244188865 2.844983282353004 0 0 0
15 0 2 0 5.7721758165542925 6.190944583105833 1.329531724457185 0 0 0
177 0 2 0 7.441303441242113 7.690901418395769 2.774565054933613 0 0 0
55 0 1 0 7.700822347894557 6.029213823833298 2.208004532741246 0 0 0
113 0 2 0 4.924684490197988 7.759323595511403 4.1346823775455945 0 0 0
175 0 1 0 7.425433635042846 8.67930775340697 2.7085641869787587 0 0 0
176 0 2 0 6.659653653194628 8.836556306094531 2.117869012355733 0 0 0
142 0 1 0 5.514605442455571 9.324934704875838 1.018927591017001 0 0 0
144 0 2 0 5.523854591005191 8.692965463049783 0.24605263253683973 0 0 0
57 0 2 0 8.270302347541701 5.801335049940561 1.3889929031504307 0 0 0
149 0 2 0 10.251872348024886 7.8756473645292635 4.192697402228154 0 0 0
51 0 2 0 11.010228629147166 5.1044492975266404 2.424195674541186 0 0 0
50 0 2 0 10.659639577414982 5.809268227725686 1.024613107287661 0 0 0
49 0 1 0 11.174240680025152 5.874929805339229 1.806682768709719 0 0 0
150 0 2 0 11.092273763654987 7.4566183710412215 2.9154506537237483 0 0 0
148 0 1 0 11.042396142088702 8.01456889115177 3.6819646688322822 0 0 0
147 0 2 0 8.453769274742497 8.812306898810887 1.369754090342611 0 0 0
145 0 1 0 8.917870787115842 8.948892022039836 0.4713275243313717 0 0 0
179 0 2 0 10.934536602557941 8.732909584341638 1.005629086969891 0 0 0
162 0 2 0 10.609302845074627 9.763106239471261 3.400851763763987 0 0 0
178 0 1 0 11.838151991977366 8.804666622279452 0.7221437902794957 0 0 0
146 0 2 0 8.768209351310302 9.94874631143177 0.347305781104409 0 0 0
91 0 1 0 13.764845809273426 5.834410561971268 2.1168094186025774 0 0 0
92 0 2 0 13.773907132357314 6.682631860171344 2.5369074019464284 0 0 0
93 0 2 0 12.876301119707257 5.752081924546847 1.7392824319121922 0 0 0
747 0 2 0 15.209653903560694 5.721063978216656 0.8290261630725054 0 0 1
204 0 2 0 15.982503223016186 7.0900146460834454 4.127997126071472 0 0 0
211 0 1 0 14.193265357924004 8.608754075235538 2.0459108960914016 0 0 0
212 0 2 0 14.23120021812763 9.248818552333306 2.8250236419724084 0 0 0
213 0 2 0 13.324163961628775 8.750975628901484 1.62007253762847 0 0 0
183 0 2 0 15.420288328553566 9.041965684531439 0.9361221757209512 0 0 0
181 0 1 0 15.9847862614348 9.403070929404045 0.23292114693773247 0 0 0
86 0 2 0 18.052950205484755 5.10224884510423 2.4557528862188196 0 0 0
87 0 2 0 19.342175889262897 5.580502689242008 1.630621679598099 0 0 0
85 0 1 0 18.329799791583767 5.592186157955044 1.643568695710979 0 0 0
185 0 2 0 17.76050792382552 7.321514186607997 2.5787597535463758 0 0 0
746 0 2 0 16.81969094477592 5.680440273639067 0.497776391924877 0 0 1
184 0 1 0 17.157253214383807 7.802831528725116 3.138907965880735 0 0 0
186 0 2 0 17.15807498072342 8.763793943536756 2.9730024096185055 0 0 0
214 0 1 0 18.91230373774509 9.315845519001876 0.8492581648087731 0 0 0
216 0 2 0 17.934068493424192 9.454788958743475 0.8713163300119109 0 0 0
215 0 2 0 19.041298937974908 8.516966250673775 0.28515249037384083 0 0 0
118 0 1 0 1.0252271553954013 10.851857784569278 4.0090149091927305 0 0 0
120 0 2 0 1.9883472061292622 10.787815598019652 4.080567644594773 0 0 0
124 0 1 0 3.669428598523095 10.760627337550554 3.841684648474906 0 0 0
129 0 2 0 0.6178518263146714 11.982252465749642 2.7149004900830427 0 0 0
127 0 1 0 0.36811097686822203 12.380652332939675 1.874418259035606 0 0 0
249 0 2 0 0.6761161105556871 14.000823819272243 2.1440775646554915 0 0 0
221 0 2 0 2.9203882371631256 14.550464128656117 3.5903952742926837 0 0 0
123 0 2 0 3.8182282962922063 12.497087184775676 0.988944360852126 0 0 0
220 0 1 0 3.835980583979861 14.726642153212486 3.392136587511947 0 0 0
122 0 2 0 3.9906224464840276 11.91150140336008 2.2933363357018535 0 0 0
155 0 2 0 7.812911732742016 10.149687747361831 3.689983175182906 0 0 0
156 0 2 0 7.645941720894778 11.632660959724548 3.6778415317954383 0 0 0
154 0 1 0 7.900387900900967 10.908395152965031 4.27595265430917 0 0 0
222 0 2 0 4.01823560250256 14.014556758139673 2.686810539191578 0 0 0
121 0 1 0 4.355553535796276 12.605254509274674 1.7397469349216674 0 0 0
165 0 2 0 6.089999146567622 12.681014187468799 2.1082056621772933 0 0 0
163 0 1 0 7.054624787465301 12.60290117535682 2.3118879561243633 0 0 0
164 0 2 0 7.343409847608639 13.573212350675439 2.4099088817778016 0 0 0
143 0 2 0 5.62450080246849 10.184486420751236 0.5651357942971664 0 0 0
161 0 2 0 9.721201235523127 10.799611387131566 3.921561964445242 0 0 0
819 0 2 0 8.281066254595698 11.962185126725094 0.7958561625540302 0 0 1
818 0 2 0 9.832988939207398 11.832291464711751 0.5092128264517259 0 0 1
160 0 1 0 10.658072573776153 10.629881787538288 3.765095095650507 0 0 0
158 0 2 0 10.981073452547818 12.037107157373116 2.4771557701111706 0 0 0
258 0 2 0 9.697865185991782 14.630260266313526 3.842344976360308 0 0 0
157 0 1 0 10.953387678948165 12.576951857343646 1.6367013848759884 0 0 0
159 0 2 0 10.781775579848691 13.469995645248884 2.0756940728044517 0 0 0
256 0 1 0 10.449803931147299 14.716198734570817 3.2352762650358375 0 0 0
190 0 1 0 14.391543073908496 10.732358641807393 3.937225944803663 0 0 0
191 0 2 0 14.169204065992139 11.361687435178071 3.2523974274138885 0 0 0
192 0 2 0 15.307260507085267 10.813991468414835 4.0859033386648385 0 0 0
855 0 2 0 14.808380256996674 12.349286145959857 0.7298235673402371 0 0 1
199 0 1 0 13.65912471887522 12.690229123662082 1.8669047090631097 0 0 0
200 0 2 0 12.727882426487465 12.414558571249517 1.817652410999402 0 0 0
201 0 2 0 13.724000967341318 13.603859324488507 2.196898734888525 0 0 0
196 0 1 0 16.95433821455056 10.543418937355145 3.528333617172751 0 0 0
197 0 2 0 17.236500981568007 11.192904402804343 2.848728717622 0 0 0
128 0 2 0 19.535952592799774 12.17370463140012 1.7124739326124898 -1 0 0
193 0 1 0 17.67316162908061 12.43183546310546 1.5562089807837114 0 0 0
194 0 2 0 17.581771861699046 13.310493776446751 1.944907931470195 0 0 0
195 0 2 0 16.87738314800235 12.338068098570522 0.9702171769090732 0 0 0
294 0 2 0 16.46961583156145 14.414616407301022 3.532181332699938 0 0 0
292 0 1 0 17.372608703757315 14.651891695112996 3.2939852638434832 0 0 0
247 0 1 0 0.7605134836150222 14.993017049458482 2.267956505505864 0 0 0
248 0 2 0 0.046117995014465896 15.294884412285052 1.654740883475799 0 0 0
218 0 2 0 2.060514630280085 15.672522366876057 1.144968744128383 0 0 0
227 0 2 0 0.6155172837919244 16.46169678156467 3.43852341940796 0 0 0
235 0 1 0 0.42220259858235587 19.22411412680528 1.736860330751601 0 0 0
236 0 2 0 0.5750686394905911 18.492987244920922 2.3138556784346 0 0 0
237 0 2 0 1.2001366552996047 19.262029743619735 1.1407012948539428 0 0 0
226 0 1 0 0.6681099191564401 17.437421876127313 3.6109195589628444 0 0 0
228 0 2 0 1.6090864064126171 17.568756226464092 3.837036378064382 0 0 0
232 0 1 0 3.6125784206607996 17.445261623060556 3.673395679809694 0 0 0
233 0 2 0 3.8622980416639616 16.50644308839585 3.4097233546634502 0 0 0
234 0 2 0 3.8668473099948537 17.93395210666452 2.859632280058727 0 0 0
891 0 2 0 3.16599194843328 18.794310132478035 0.3763075695189647 0 0 1
217 0 1 0 2.5101969699387134 15.828270432221432 0.3001223380701913 0 0 0
251 0 2 0 4.214777917404119 15.92313476759503 0.3852310230115514 0 0 0
283 0 1 0 7.4801899041868065 15.138048503288644 1.976798752247198 0 0 0
284 0 2 0 6.655729341011837 15.400806644149338 1.635040029506895 0 0 0
250 0 1 0 5.138718987119614 16.116031392671275 0.44900348851644856 0 0 0
229 0 1 0 4.404282763814398 19.24848571915123 1.6301097438707364 0 0 0
231 0 2 0 5.345906320630821 19.042743875368092 1.5914768480291295 0 0 0
271 0 1 0 7.219498295448493 19.275743320036163 1.779192422368413 0 0 0
273 0 2 0 7.56168436407021 18.743916177361218 2.558496273231369 0 0 0
285 0 2 0 8.200514764532887 15.371352210663163 1.4067444899455428 0 0 0
257 0 2 0 10.647318193414867 15.677787884362486 3.133413641501541 0 0 0
255 0 2 0 10.320673205153485 15.681704770346741 0.34055742005438494 0 0 0
263 0 2 0 8.1425444128986 16.44862677302372 3.268579182379198 0 0 0
262 0 1 0 8.193054580087525 17.33603756948701 3.5760588875898307 0 0 0
264 0 2 0 9.181587042967026 17.413969987497456 3.738264615194213 0 0 0
927 0 2 0 8.492447149572051 18.80773311876502 0.6034522579892361 0 0 1
265 0 1 0 10.951268792566124 19.338504700006453 1.8451949643656258 0 0 0
267 0 2 0 10.375203981444557 19.412743614280654 1.083555901639183 0 0 0
269 0 2 0 11.02613284675286 17.906655595900496 2.831986986801806 0 0 0
268 0 1 0 10.810923347637189 17.28857279217396 3.5320655514100827 0 0 0
270 0 2 0 11.38395946350365 17.399615114164714 4.269459242531662 0 0 0
286 0 1 0 12.157171416532018 15.7710571785191 0.4949735712582433 0 0 0
319 0 1 0 14.228285631083839 15.444296710668256 2.343762974694162 0 0 0
320 0 2 0 13.437043257136247 15.685437428256254 1.812634056953592 0 0 0
321 0 2 0 14.373480358796778 16.25408566391874 2.902776808348408 0 0 0
307 0 1 0 13.728765466674345 19.153986733072927 1.6980250864532827 0 0 0
308 0 2 0 12.756087953699764 19.081214265384485 1.6903476282322676 0 0 0
309 0 2 0 14.081431300890063 18.667289603234234 2.4364460559364933 0 0 0
298 0 1 0 14.581658744865999 17.77056048823645 3.8188770637970273 0 0 0
291 0 2 0 15.312676593507456 15.498077702655905 0.9404342006129298 0 0 0
963 0 2 0 14.769635242638358 18.68342343805835 0.4701020902023623 0 0 1
300 0 2 0 15.59714175753623 17.605582971551886 3.8283443269772515 0 0 0
293 0 2 0 17.377010157928254 15.630817464833788 3.375263954157236 0 0 0
290 0 2 0 16.877898519763562 15.639408019692945 0.5138861449054934 0 0 0
322 0 1 0 18.626485847153667 15.658504215511734 0.469286312802563 0 0 0
301 0 1 0 17.861098610821365 19.076997181154443 1.5923445145067332 0 0 0
302 0 2 0 17.248524291165545 18.804227247082437 0.8786048472187532 0 0 0
303 0 2 0 18.73999895852605 19.062742249422154 1.256000235912068 0 0 0
306 0 2 0 17.51955863824118 17.835656064612635 2.9030333374115314 0 0 0
304 0 1 0 17.234547125697233 17.37476279452966 3.708435549965684 0 0 0
12 0 2 0 2.641411901549322 3.913731507871962 4.4139013725928615 0 0 0
22 0 1 0 2.4783545174254726 1.0737570003335308 4.7409558444848425 0 0 0
23 0 2 0 2.624351910401677 1.7117588396768786 5.43410368497809 0 0 0
325 0 1 0 2.8275269432381442 2.6545521584334146 6.909349261645813 0 0 0
327 0 2 0 2.577816799564732 3.608147756125959 7.008234457205073 0 0 0
326 0 2 0 3.7447173103712452 2.630675579995056 7.161436431497879 0 0 0
101 0 2 0 0.640754407383527 0.786410022808936 5.067540177820096 1 0 0
11 0 2 0 1.091482137278687 3.915570334101877 4.672166413237295 0 0 0
24 0 2 0 2.8313232999683833 0.28924575491193927 5.211937772074189 0 0 0
358 0 1 0 5.896222931369429 2.390070218910258 7.143163009200614 0 0 0
29 0 2 0 6.885032881602194 0.49216082088725305 5.021440268600907 0 0 0
28 0 1 0 5.946921019661572 0.3354080501602965 5.150184241690955 0 0 0
359 0 2 0 5.86002994441612 1.6770917673532066 6.482287769886417 0 0 0
9 0 2 0 5.740526112074089 4.309258682014683 5.05481084957758 0 0 0
8 0 2 0 6.216755306256792 4.214820288613293 6.559879208745631 0 0 0
7 0 1 0 6.085055230817499 4.8450534869836055 5.815240801557111 0 0 0
48 0 2 0 7.889735766628773 4.514410177101493 4.730402753903788 0 0 0
360 0 2 0 6.5365897544092135 2.096475792218848 7.810743129706767 0 0 0
42 0 2 0 11.71176586598702 1.1888814531645513 4.286116376591997 0 0 0
47 0 2 0 9.315756914810775 4.273701077715552 4.338865618182699 0 0 0
52 0 1 0 10.945425976265076 4.137143960611103 4.406762823879539 0 0 0
58 0 1 0 8.781839020590574 0.7031134243841655 5.028888120902455 0 0 0
59 0 2 0 8.912253995424575 1.4832401741984451 5.61435910541781 0 0 0
361 0 1 0 9.777632433579322 2.585172424931735 6.838422038337954 0 0 0
363 0 2 0 9.728599300539582 3.532684966359 6.576249756236345 0 0 0
362 0 2 0 10.711676059276993 2.4618762715644165 7.030631582072955 0 0 0
53 0 2 0 11.738639742654376 4.410792942768778 4.984788205687775 0 0 0
392 0 2 0 8.735692477490687 2.1779497463324535 8.351104157901176 0 0 0
394 0 1 0 12.423712596754374 2.472668947006232 7.186292550210292 0 0 0
396 0 2 0 12.69355643690369 3.3038190122081628 6.787871355123017 0 0 0
65 0 2 0 14.05966210517965 0.7560983714588986 5.128424919752687 0 0 0
64 0 1 0 13.10308063143251 0.6333533505918926 5.313631437924788 0 0 0
66 0 2 0 12.89913460807792 1.341921746894215 5.980496463593003 0 0 0
395 0 2 0 12.969367168225473 2.3375433025017123 7.979884476558644 0 0 0
429 0 2 0 15.384961442898174 2.041124833795387 8.054300706270258 0 0 0
94 0 1 0 15.811272081051873 0.9690994866152475 4.820914622088593 0 0 0
44 0 2 0 14.008306340859544 4.591282310797662 5.5142606277429085 0 0 0
43 0 1 0 13.252197577230373 4.794515571666549 6.067254428261671 0 0 0
95 0 2 0 16.18581117745915 1.6591386180428302 5.421483650248463 0 0 0
397 0 1 0 16.572391231026657 2.536748450335014 6.819010959081976 0 0 0
100 0 1 0 19.76421463892708 0.8900362489853171 5.292610678274879 0 0 0
398 0 2 0 17.533869461507905 2.524335553881003 6.977014569276884 0 0 0
430 0 1 0 19.354730500392087 2.828450953460733 7.010223648859445 0 0 0
431 0 2 0 19.553414691246246 2.136475545779217 6.409195904582517 0 0 0
432 0 2 0 19.34640789994443 3.6662415234795724 6.516702814190064 0 0 0
399 0 2 0 16.38447800358886 3.5131343236595747 6.854742622891326 0 0 0
81 0 2 0 18.562533825925726 4.978535406241939 4.800494914194963 0 0 0
131 0 2 0 2.386603277698862 7.7435695270005995 4.345301470687888 0 0 0
25 0 1 0 2.6772973768340966 5.577948158445441 6.906478968110409 0 0 0
26 0 2 0 2.465475006519147 6.112980864710314 6.138863808843867 0 0 0
27 0 2 0 3.5600344923021163 5.8406894463395655 7.208949158919355 0 0 0
130 0 1 0 1.7543507728594068 7.475989230043815 5.015397491702914 0 0 0
344 0 2 0 1.4979093740721419 5.8133839397419855 8.32262033288625 0 0 0
132 0 2 0 0.8358784282646659 7.691486390573744 4.753204531063429 0 0 0
435 0 2 0 2.202070311140276 8.605962880094161 6.351311168550275 0 0 0
433 0 1 0 2.572849913847752 9.168253688523743 7.058355142584416 0 0 0
434 0 2 0 3.5320470795222176 9.151061409063294 7.126537242165698 0 0 0
465 0 2 0 1.538164276242615 8.945303591523505 8.360863222262399 0 0 0
138 0 2 0 6.947212533266689 7.347020437325677 4.934957448747034 0 0 0
136 0 1 0 6.033532458709444 7.385320548179287 5.293140874174607 0 0 0
137 0 2 0 5.848569314791094 6.458297623462982 5.593578640148305 0 0 0
466 0 1 0 5.349872553498559 9.155318683723362 7.236181912981884 0 0 0
468 0 2 0 5.525613141864705 8.484624277623379 6.558174543381561 0 0 0
339 0 2 0 5.737830968870583 6.124087952498599 8.140253712629402 0 0 0
61 0 1 0 9.490310553742773 5.325193705527433 6.74823952483619 0 0 0
63 0 2 0 8.717193188369425 5.316216172951503 7.293971770916849 0 0 0
166 0 1 0 8.908958265969197 7.418075515990748 5.1751825465390695 0 0 0
167 0 2 0 9.231045805418116 6.61301525876686 5.6644839395204984 0 0 0
62 0 2 0 10.221594699187861 5.5828298213727345 7.349071571465736 0 0 0
168 0 2 0 8.869750744151306 8.120658594426075 5.879173326962785 0 0 0
469 0 1 0 8.953683692741164 9.483835199850844 7.103604846976191 0 0 0
471 0 2 0 9.887769258491026 9.085523678613388 7.189558826854048 0 0 0
502 0 1 0 11.804914452652028 9.109477461587307 7.280034608684703 0 0 0
173 0 2 0 12.263816317943025 7.734737556372418 4.713631735420374 0 0 0
45 0 2 0 13.014970984812436 5.740487945099709 6.0922980351742755 0 0 0
174 0 2 0 13.76704105438928 7.446974266292097 5.306428981284156 0 0 0
416 0 2 0 14.735427990713282 5.384934721008557 7.907853185232245 0 0 0
172 0 1 0 12.831843063560711 7.403306987152942 5.482798254421314 0 0 0
99 0 2 0 15.866375470084037 5.637059795083081 6.086187012177878 0 0 0
202 0 1 0 15.642277932409772 6.84527288205571 5.000696428787041 0 0 0
503 0 2 0 12.124140136540744 8.496644391073605 6.595266620011263 0 0 0
203 0 2 0 15.961300720869351 7.586178131439974 5.59562370170737 0 0 0
507 0 2 0 15.41222873949277 8.962558153203686 7.016097542405999 0 0 0
537 0 2 0 13.3716076544782 8.863387941152354 7.99728526453573 0 0 0
535 0 1 0 14.261252036040228 8.710349768740551 8.305057872369142 0 0 0
79 0 1 0 19.328105487754137 5.105675511421246 5.3563600201893715 0 0 0
97 0 1 0 16.08091621216274 5.209370397615697 6.959541472737369 0 0 0
80 0 2 0 19.373906921664364 6.038874156779181 5.412903775398416 0 0 0
98 0 2 0 16.839636741669537 5.736336091618805 7.302157396312318 0 0 0
208 0 1 0 19.14949267000503 7.880399112653572 5.083400800565184 0 0 0
209 0 2 0 18.24257332083325 7.821296026764871 4.774490995451415 0 0 0
505 0 1 0 16.07336210945317 9.174314153133706 6.3386068135672 0 0 0
210 0 2 0 19.00610275232463 8.327315875433063 5.95642019298169 0 0 0
506 0 2 0 16.86610059937361 9.257957591460674 6.908226173302724 0 0 0
538 0 1 0 18.59493916143618 9.511979048947017 7.494233466392415 0 0 0
539 0 2 0 19.25466697729481 9.458809106546589 8.245975062720733 0 0 0
135 0 2 0 2.3453132647800725 10.938711947285563 6.7676329085422715 0 0 0
133 0 1 0 2.491274031604671 11.884973779555201 6.685038655768135 0 0 0
134 0 2 0 3.306965674285555 12.123523997511455 7.223478771102396 0 0 0
453 0 2 0 1.162158384787065 12.562358258830482 7.690351184260425 0 0 0
238 0 1 0 1.6826483937389998 13.998851605489346 4.916079460322662 0 0 0
239 0 2 0 0.7333619610676524 14.103486977151258 4.943045978025595 0 0 0
240 0 2 0 1.868914342970866 13.193539969262035 5.472950224917167 0 0 0
451 0 1 0 0.49745862870123014 12.771536276588195 8.347429303669944 0 0 0
125 0 2 0 4.350568774176516 10.955445958214915 4.488821035811302 0 0 0
467 0 2 0 5.3958240126313015 10.015597345352335 6.720282325731852 0 0 0
116 0 2 0 6.27283280168083 11.093883316367224 5.137409587961356 0 0 0
115 0 1 0 5.547353355869465 11.356674212314822 5.617438114913553 0 0 0
246 0 2 0 5.018674829141077 14.309582157722415 4.72872543305086 0 0 0
117 0 2 0 5.614274214143707 12.334407145597442 5.594277194714765 0 0 0
244 0 1 0 5.721002294556304 14.07695200051317 5.378993572703387 0 0 0
276 0 2 0 7.407233430089992 14.482861054749947 5.145284759220904 0 0 0
245 0 2 0 5.362382117151495 14.46753603648006 6.193887499384732 0 0 0
447 0 2 0 5.5061927675799 12.667638406840013 8.054769106177535 0 0 0
445 0 1 0 4.527774438037529 12.689664417234201 8.167740126561302 0 0 0
470 0 2 0 9.068500201583793 10.427311031947191 7.046550219148469 0 0 0
152 0 2 0 11.657971075535812 11.12397632469755 5.245225797006001 0 0 0
169 0 1 0 9.14152065370521 12.297185701587994 6.873977223703087 0 0 0
489 0 2 0 8.019625053619627 12.58881940544101 8.09796847158372 0 0 0
274 0 1 0 8.40213282122402 14.333932366839397 5.043994038244653 0 0 0
170 0 2 0 8.953301144352688 12.798407865416337 6.095562176831701 0 0 0
275 0 2 0 8.740721585997514 14.791631111850467 5.867294696257212 0 0 0
171 0 2 0 9.966953035422527 12.67183662291634 7.2754898331305435 0 0 0
281 0 2 0 11.692367099860304 14.140483549900804 4.570163409654079 0 0 0
504 0 2 0 12.054521836892409 10.020339326430477 6.992932257970665 0 0 0
153 0 2 0 13.213847634599402 11.04185242099121 5.293915485090003 0 0 0
151 0 1 0 12.433940988601291 11.280872898736252 5.8247540601406085 0 0 0
207 0 2 0 15.869372637468775 11.03617391741616 6.328148077876974 0 0 0
282 0 2 0 12.206418171989945 12.930843699936913 5.527158770280796 0 0 0
311 0 2 0 14.179437073458123 14.068044851324517 4.934586834136409 0 0 0
280 0 1 0 12.335754423021218 13.880863075418281 5.257384845714664 0 0 0
206 0 2 0 15.052125763487213 11.828342887364721 7.33716249856541 0 0 0
310 0 1 0 15.134992523152674 13.937705174566963 4.888927587742758 0 0 0
312 0 2 0 15.322394720440487 13.040630482098631 5.295445761944322 0 0 0
205 0 1 0 15.81049372095163 11.889181754896594 6.751842649662667 0 0 0
189 0 2 0 19.5700781517519 11.215204308170767 5.012019074345832 0 0 0
198 0 2 0 17.56943468721598 10.690307764575588 4.303781920022051 0 0 0
540 0 2 0 18.908601454397996 10.308649182499494 6.985924298320625 0 0 0
187 0 1 0 18.65756549830975 11.319267078237452 5.412893708975896 0 0 0
318 0 2 0 18.572389213166552 14.248287927553823 4.531990738857131 0 0 0
188 0 2 0 18.694206342496877 12.290024374981769 5.497393720182387 0 0 0
518 0 2 0 17.146438139003664 12.590271051529728 7.525294997500814 0 0 0
316 0 1 0 19.063931371809225 13.919147043867001 5.330576639532559 0 0 0
317 0 2 0 18.837714555108448 14.585025952745042 5.98177996532226 0 0 0
519 0 2 0 18.628737468254144 12.77487935651953 8.017322052123207 0 0 0
517 0 1 0 17.69081125983817 12.984408892796854 8.2558055263838 0 0 0
542 0 2 0 2.2830879770614345 15.253775834000221 6.185784692677602 0 0 0
543 0 2 0 3.334445171333174 16.02960428892265 7.029403766134838 0 0 0
541 0 1 0 2.3750599307630558 15.996198770890242 6.803569396505458 0 0 0
241 0 1 0 2.6783545696308266 18.695991250622527 6.588580886325206 0 0 0
242 0 2 0 2.446591758639776 17.792119437128985 6.333922985139168 0 0 0
243 0 2 0 3.295432221290027 18.62879847983134 7.287418073258527 0 0 0
560 0 2 0 1.2170763322309603 18.92214817800104 7.794418627614684 0 0 0
575 0 2 0 5.506859795027115 16.113662426243742 8.063207781693649 0 0 0
30 0 2 0 5.838056674477024 19.300017704280624 5.103859027909122 0 -1 0
574 0 1 0 5.077275636591037 16.019251318486067 7.183755306687926 0 0 0
224 0 2 0 5.2458399877468755 17.30584254779766 4.636600699044448 0 0 0
225 0 2 0 6.749384988373676 17.316090952245958 4.535438328760088 0 0 0
223 0 1 0 6.017844680348168 17.54868675580458 5.1726047709214145 0 0 0
576 0 2 0 5.499020834120537 16.65752848816482 6.567224387262805 0 0 0
578 0 2 0 8.409684908769643 15.618250357768321 7.80720686897946 0 0 0
577 0 1 0 9.024936105481633 15.931976237000425 7.102617416721967 0 0 0
611 0 2 0 10.860104502999176 16.008941209424066 7.322088250939315 0 0 0
610 0 1 0 11.825438389435707 15.999618916139065 7.230626094778539 0 0 0
60 0 2 0 8.893967228273675 19.885306344451134 5.674968157953864 0 -1 0
278 0 2 0 8.511198546765574 18.788371666194262 7.493998969565716 0 0 0
277 0 1 0 9.22678414311934 18.769619570492804 6.800447074903489 0 0 0
579 0 2 0 8.754714575453793 16.754837546209483 6.658666900390072 0 0 0
279 0 2 0 10.039826068309113 19.052114867319894 7.349895889878665 0 0 0
612 0 2 0 12.024038561219477 15.377166964668753 6.523311563914518 0 0 0
261 0 2 0 12.312581350044617 17.46680869989578 6.447633096465015 0 0 0
260 0 2 0 12.522661127411356 18.805014307122217 5.698457229789609 0 0 0
299 0 2 0 14.212121027962858 17.66631213257113 4.72932862482102 0 0 0
259 0 1 0 12.588632430977423 17.877246340208497 5.601426743866625 0 0 0
315 0 2 0 15.417120106238889 18.89084230907118 7.148007890102849 0 0 0
314 0 2 0 16.017331166619392 19.37352840256299 5.849525852940517 0 0 0
615 0 2 0 15.9093197945298 16.667124828619798 6.75809745292407 0 0 0
614 0 2 0 16.09965061478333 15.1620723790149 6.3471483585525466 0 0 0
648 0 2 0 19.204837191760745 15.863122362909301 8.126609592757362 0 0 0
647 0 2 0 17.893945582584166 16.06027126459043 7.354732273466968 0 0 0
646 0 1 0 18.787191488347084 16.05541397924598 7.257368576171269 0 0 0
305 0 2 0 17.620447145989765 17.925118762615014 4.383082618657526 0 0 0
313 0 1 0 16.10219697300333 18.663631037462515 6.505403901095569 0 0 0
613 0 1 0 16.19166098928907 15.789096675820995 7.0940235797294875 0 0 0
297 0 2 0 19.573393569494428 17.890125564194193 4.900839747049975 0 0 0
102 0 2 0 19.454516291391542 19.94300345391401 5.570781768967784 0 -1 0
295 0 1 0 18.942603537361528 18.254105378769484 5.568829081277885 0 0 0
296 0 2 0 18.96841513429593 17.560856203852893 6.303885929570223 0 0 0
627 0 2 0 17.52725837488802 19.191514135396794 7.767552376906495 0 0 0
626 0 2 0 19.02923569689146 19.26255731785582 8.222257278513782 0 0 0
356 0 2 0 1.7315819289244845 2.3113631142484943 8.406230386905527 0 0 0
355 0 1 0 0.9892128865849674 1.9832528474328184 8.945613550956862 0 0 0
335 0 2 0 0.7451885957648858 3.4920720021922955 10.272620530298724 0 0 0
346 0 1 0 2.211635797165481 0.8491706923974013 11.9008930737416 0 0 0
347 0 2 0 2.802249200073476 1.01915970082581 11.136465384035724 0 0 0
348 0 2 0 1.298747902262484 0.9842224750799802 11.682293714346685 0 0 0
561 0 2 0 0.8033783160851492 0.22829954236385294 8.763689945152493 0 1 0
328 0 1 0 3.8542471289214215 1.5716690362234613 9.978007775709468 0 0 0
329 0 2 0 3.653107718183185 2.512377732972473 9.8317513513915 0 0 0
357 0 2 0 0.2268825996204995 2.3087179601162884 8.433796546454964 0 0 0
334 0 1 0 1.0274446819529188 4.152829971397392 10.999667561005351 0 0 0
336 0 2 0 1.9359038142265006 3.8931230123233638 11.17892066280129 0 0 0
340 0 1 0 3.862836941624305 4.156960432554497 10.233090762110068 0 0 0
330 0 2 0 4.712757879722052 1.5947223584232362 10.395181248521865 0 0 0
353 0 2 0 6.937460385307013 1.2205452490022037 11.516980960365617 0 0 0
352 0 1 0 5.986277859145527 1.0340020978534783 11.584419200178676 0 0 0
372 0 2 0 7.9111518384640425 3.5806075638655863 10.208414035447166 0 0 0
341 0 2 0 4.105209462126629 4.8034060089437105 9.459985887058554 0 0 0
342 0 2 0 4.4169574552262905 4.52406783435305 10.956139828202438 0 0 0
332 0 2 0 6.621179672371307 4.269215030143098 11.840069451718684 0 0 0
354 0 2 0 5.676522193094847 1.615121839212993 12.287758690160242 0 0 0
331 0 1 0 5.747857971631515 4.431241712991262 12.256102604363528 0 0 0
393 0 2 0 8.014470300016846 0.9793493237347742 8.94513703454473 0 0 0
391 0 1 0 8.051224474272944 1.921159731310052 9.026859079012471 0 0 0
382 0 1 0 8.937191540440638 0.7692666675205195 12.078017271635542 0 0 0
366 0 2 0 10.159467102281381 1.1090914678779973 10.61483327159081 0 0 0
364 0 1 0 10.861305418908994 1.5731412053389537 10.15892700722318 0 0 0
378 0 2 0 10.816919342810142 3.2498905180898388 10.267418192507472 0 0 0
365 0 2 0 11.699551562999424 1.5290699883586598 10.7627617161903 0 0 0
376 0 1 0 10.779105444960056 4.2212680055080085 10.587935632252561 0 0 0