LAMMPS (23 Jun 2022)
echo both

include		in.partitions
variable        pid world 0
include		in.temp
variable        temperature equal 250
variable        tempDamp equal 0.100 # this is 0.1 ps
include		in.pressure
variable        pressure equal 5066.25
variable        pressureDamp equal 1.0 #this is 1ps
include		in.seed
variable        seed world 745823

units           metal
atom_style	full
include		in.box
read_data       iceIII.data
Reading data file ...
  orthogonal box = (0 0 0) to (19.991053 19.991053 20.800772)
  1 by 1 by 1 MPI processor grid
  reading atoms ...
  972 atoms
Finding 1-2 1-3 1-4 neighbors ...
  special bond factors lj:    0        0        0       
  special bond factors coul:  0        0        0       
     0 = max # of 1-2 neighbors
     0 = max # of 1-3 neighbors
     0 = max # of 1-4 neighbors
     1 = max # of special neighbors
  special bonds CPU = 0.001 seconds
  read_data CPU = 0.009 seconds
include 	in.setup
variable	out_freq equal 500
variable	out_freq2 equal 500

timestep        0.0005

neigh_modify    delay 7 every 1

include         in.deepmd
# This is deepMD model

# create groups ###
#group ox type 2
#group hy type 1

mass 2 15.999
mass 1 1.008

pair_style      deepmd ../graph.pb
Summary of lammps deepmd module ...
  >>> Info of deepmd-kit:
  installed to:       /u/sigbjobo/software/DEEPMD_FROM_SOURCE/deepmd-kit/install
  source:             v2.1.3
  source branch:       master
  source commit:      5a32c49
  source commit at:   2022-07-01 09:52:58 +0800
  surpport model ver.:1.1 
  build float prec:   double
  build with tf inc:  /u/sigbjobo/software/DEEPMD_FROM_SOURCE/tensorflow/install/include;/u/sigbjobo/software/DEEPMD_FROM_SOURCE/tensorflow/install/include
  build with tf lib:  /u/sigbjobo/software/DEEPMD_FROM_SOURCE/tensorflow/install/lib/libtensorflow_cc.so;/u/sigbjobo/software/DEEPMD_FROM_SOURCE/tensorflow/install/lib/libtensorflow_framework.so
  set tf intra_op_parallelism_threads: 0
  set tf inter_op_parallelism_threads: 0
  >>> Info of lammps module:
  use deepmd-kit at:  /u/sigbjobo/software/DEEPMD_FROM_SOURCE/deepmd-kit/install
  source:             v2.1.3
  source branch:      master
  source commit:      5a32c49
  source commit at:   2022-07-01 09:52:58 +0800
  build float prec:   double
  build with tf inc:  /u/sigbjobo/software/DEEPMD_FROM_SOURCE/tensorflow/install/include;/u/sigbjobo/software/DEEPMD_FROM_SOURCE/tensorflow/install/include
  build with tf lib:  /u/sigbjobo/software/DEEPMD_FROM_SOURCE/tensorflow/install/lib/libtensorflow_cc.so;/u/sigbjobo/software/DEEPMD_FROM_SOURCE/tensorflow/install/lib/libtensorflow_framework.so
pair_coeff      * *

bond_style      none
angle_style     none
dihedral_style  none
improper_style  none
neigh_modify exclude none


neighbor        2.0 bin
neigh_modify    every 10 delay 0 check no

thermo          ${out_freq}
thermo          500
thermo_style 	custom step temp pe etotal epair emol press lx ly lz xy xz yz vol pxx pyy pzz pxy pxz pyz cella cellb cellc cellalpha cellbeta cellgamma

restart 	${out_freq} restart.lmp.${pid} restart2.lmp.${pid}
restart 	500 restart.lmp.${pid} restart2.lmp.${pid}
restart 	500 restart.lmp.0 restart2.lmp.${pid}
restart 	500 restart.lmp.0 restart2.lmp.0


include         in.dump
dump            myDump all atom ${out_freq2} dump.water.${pid}
dump            myDump all atom 500 dump.water.${pid}
dump            myDump all atom 500 dump.water.0
dump            myDump2 all dcd ${out_freq2} dump.dcd
dump            myDump2 all dcd 500 dump.dcd
dump_modify     myDump append yes
dump_modify     myDump2 append yes


timer           timeout 04:55:00 every 1000
New timer settings: style=normal  mode=nosync  timeout=04:55:00

fix             2 all nph aniso ${pressure} ${pressure} ${pressureDamp}
fix             2 all nph aniso 5066.25 ${pressure} ${pressureDamp}
fix             2 all nph aniso 5066.25 5066.25 ${pressureDamp}
fix             2 all nph aniso 5066.25 5066.25 1
fix             3 all temp/csvr ${temperature} ${temperature} ${tempDamp} ${seed}
fix             3 all temp/csvr 250 ${temperature} ${tempDamp} ${seed}
fix             3 all temp/csvr 250 250 ${tempDamp} ${seed}
fix             3 all temp/csvr 250 250 0.1 ${seed}
fix             3 all temp/csvr 250 250 0.1 745823
velocity 	all create ${temperature} ${seed} dist gaussian
velocity 	all create 250 ${seed} dist gaussian
velocity 	all create 250 745823 dist gaussian

run             400000

CITE-CITE-CITE-CITE-CITE-CITE-CITE-CITE-CITE-CITE-CITE-CITE-CITE

Your simulation uses code contributions which should be cited:

- USER-DEEPMD package:

@article{Wang_ComputPhysCommun_2018_v228_p178,
  author = {Wang, Han and Zhang, Linfeng and Han, Jiequn and E, Weinan},
  doi = {10.1016/j.cpc.2018.03.016},
  url = {https://doi.org/10.1016/j.cpc.2018.03.016},
  year = 2018,
  month = {jul},
  publisher = {Elsevier {BV}},
  volume = 228,
  journal = {Comput. Phys. Commun.},
  title = {{DeePMD-kit: A deep learning package for many-body potential energy representation and molecular dynamics}},
  pages = {178--184}
}

CITE-CITE-CITE-CITE-CITE-CITE-CITE-CITE-CITE-CITE-CITE-CITE-CITE

Generated 0 of 1 mixed pair_coeff terms from geometric mixing rule
Neighbor list info ...
  update every 10 steps, delay 0 steps, check no
  max neighbors/atom: 2000, page size: 100000
  master list distance cutoff = 8
  ghost atom cutoff = 8
  binsize = 4, bins = 5 5 6
  1 neighbor lists, perpetual/occasional/extra = 1 0 0
  (1) pair deepmd, perpetual
      attributes: full, newton on
      pair build: full/bin
      stencil: full/bin/3d
      bin: standard
Per MPI rank memory allocation (min/avg/max) = 7.648 | 7.648 | 7.648 Mbytes
   Step          Temp          PotEng         TotEng         E_pair         E_mol          Press            Lx             Ly             Lz             Xy             Xz             Yz           Volume          Pxx            Pyy            Pzz            Pxy            Pxz            Pyz           Cella          Cellb          Cellc        CellAlpha       CellBeta      CellGamma   
         0   250           -175.65013     -144.27223     -175.65013      0              37550.22       19.991053      19.991053      20.800772      0              0              0              8312.8663      41329.716      41781.31       29539.634     -62.74363      -1049.3293     -446.25346      19.991053      19.991053      20.800772      90             90             90           
       500   250.07021     -163.44412     -132.05741     -163.44412      0              2461.6596      19.900587      19.810595      20.367411      0              0              0              8029.698       2920.8088      3373.2878      1090.8823     -206.81863     -744.55836     -1248.8681      19.900587      19.810595      20.367411      90             90             90           
      1000   257.58213     -162.34741     -130.01786     -162.34741      0              1566.5039      20.044059      19.950724      20.183958      0              0              0              8071.4334      1908.2385      2059.6542      731.61903     -1398.885      -172.47038     -2179.9017      20.044059      19.950724      20.183958      90             90             90           
      1500   240.32508     -161.85851     -131.69493     -161.85851      0              12171.952      20.142276      20.046032      20.177548      0              0              0              8147.1436      8567.5677      15302.933      12645.356      621.62885     -475.2488       1277.6514      20.142276      20.046032      20.177548      90             90             90           
      2000   243.45572     -159.97585     -129.41933     -159.97585      0             -1558.7368      20.093064      20.010873      20.229921      0              0              0              8134.0416     -1072.4561      223.64815     -3827.4024     -792.30859      682.11436      7.7470311      20.093064      20.010873      20.229921      90             90             90           
      2500   254.89047     -160.19941     -128.2077      -160.19941      0              8128.4722      19.859514      20.043534      20.333654      0              0              0              8093.9094      9760.3279      6787.4533      7837.6356      925.72816      3414.4637     -57.127418      19.859514      20.043534      20.333654      90             90             90           
      3000   247.61474     -159.79046     -128.71194     -159.79046      0              7658.8001      19.839142      20.067572      20.461109      0              0              0              8146.0463      9180.5297      7080.1346      6715.7359     -1113.6451     -1498.8521      2435.689       19.839142      20.067572      20.461109      90             90             90           
      3500   248.97943     -160.78253     -129.53273     -160.78253      0              1226.6257      20.100747      19.943561      20.342263      0              0              0              8154.8161     -2243.7691      3120.7104      2802.9359     -1257.2139      597.9623      -330.73721      20.100747      19.943561      20.342263      90             90             90           
      4000   252.71854     -161.93008     -130.21098     -161.93008      0              7081.1155      20.189455      19.91055       20.210501      0              0              0              8124.2811      7872.7164      7075.0097      6295.6205      145.1305      -651.91627      511.99925      20.189455      19.91055       20.210501      90             90             90           
      4500   254.99762     -162.17703     -130.17187     -162.17703      0              3396.4368      20.012274      20.0022        20.196753      0              0              0              8084.5482      6810.1467     -1730.6016      5109.7654      368.67694      218.02982     -652.47756      20.012274      20.0022        20.196753      90             90             90           
      5000   240.93071     -160.23324     -129.99364     -160.23324      0              3763.1743      19.898527      20.09759       20.33368       0              0              0              8131.6912      3990.7635      2588.9503      4709.8091     -256.66799      3281.6915     -239.24449      19.898527      20.09759       20.33368       90             90             90           
      5500   242.91693     -161.8966      -131.40771     -161.8966       0              2828.5254      19.924335      20.021369      20.505673      0              0              0              8179.9687      2517.0814      4502.7719      1465.7229     -436.75685      26.910668      322.26525      19.924335      20.021369      20.505673      90             90             90           
      6000   260.14708     -162.24313     -129.59165     -162.24313      0              3454.5741      19.971576      19.770869      20.380606      0              0              0              8047.3925      2145.9967      4601.0026      3616.723      -2370.2167     -1603.4779     -2993.0083      19.971576      19.770869      20.380606      90             90             90           
      6500   253.13542     -162.85532     -131.08388     -162.85532      0              1286.7628      20.087058      20.018301      20.307366      0              0              0              8165.77        3412.5867      2924.0446     -2476.3428     -62.783568      287.94238     -10.740652      20.087058      20.018301      20.307366      90             90             90           
      7000   244.51737     -158.69322     -128.00345     -158.69322      0              3662.0023      19.98166       20.268609      20.215935      0              0              0              8187.463       1268.8409      2298.3507      7418.8152     -113.79368      568.67851     -1408.6947      19.98166       20.268609      20.215935      90             90             90           
      7500   253.99679     -159.6934      -127.81385     -159.6934       0              6296.7917      19.940702      20.120037      20.149194      0              0              0              8084.0111      3810.5448      10186.446      4893.3839      894.80821      2674.3004     -2670.667       19.940702      20.120037      20.149194      90             90             90           
      8000   244.36661     -160.61499     -129.94414     -160.61499      0              5534.6829      20.147806      19.850668      20.26977       0              0              0              8106.8416      5073.0311      5273.9009      6257.1167     -769.81658     -1508.2645     -1861.1861      20.147806      19.850668      20.26977       90             90             90           
      8500   241.69144     -161.257       -130.92193     -161.257        0              5625.6919      20.140292      19.849361      20.391899      0              0              0              8152.1087      5513.6484      6383.069       4980.3583     -843.88753     -1234.5226     -3278.2364      20.140292      19.849361      20.391899      90             90             90           
      9000   250.51151     -159.77728     -128.33518     -159.77728      0              5564.6095      19.964598      20.075956      20.401545      0              0              0              8177.1105      6978.094       2633.9948      7081.7399     -97.803209      1378.8958     -3253.0509      19.964598      20.075956      20.401545      90             90             90           
      9500   252.58142     -159.94251     -128.24061     -159.94251      0              3578.3019      19.844204      20.178515      20.398448      0              0              0              8168.0806      5252.4421      3662.069       1820.3946      1645.0954     -581.33482     -570.22742      19.844204      20.178515      20.398448      90             90             90           
     10000   256.8396      -159.97102     -127.73467     -159.97102      0              6072.5084      20.028612      19.997513      20.282036      0              0              0              8123.4105      2284.0582      6087.1261      9846.3408     -1001.3559      1587.553      -2543.2897      20.028612      19.997513      20.282036      90             90             90           
     10500   261.88369     -159.63874     -126.7693      -159.63874      0              3346.1693      20.243991      19.979951      20.260025      0              0              0              8194.6526      2544.1253      3869.0127      3625.37       -782.77777      231.44939      2351.1827      20.243991      19.979951      20.260025      90             90             90           
     11000   255.00508     -160.70637     -128.70028     -160.70637      0              3975.4906      20.127291      19.99999       20.273707      0              0              0              8161.0917      1792.6541      4831.3352      5302.4826     -321.87979      292.44173     -2083.6629      20.127291      19.99999       20.273707      90             90             90           
     11500   242.83316     -160.11154     -129.63316     -160.11154      0              6936.2873      19.919145      20.006561      20.416153      0              0              0              8136.1145      8515.5379      6560.8939      5732.4299      1682.4754      3759.2204      1780.879       19.919145      20.006561      20.416153      90             90             90           
     12000   253.23587     -160.0532      -128.26916     -160.0532       0              5358.5622      19.939219      19.911474      20.447566      0              0              0              8118.0769      6223.8168      4885.7591      4966.1105     -259.54886      1188.7073     -3389.8357      19.939219      19.911474      20.447566      90             90             90           
     12500   248.73481     -159.80504     -128.58593     -159.80504      0              6338.7555      20.160633      19.966328      20.321127      0              0              0              8179.9407      5092.0782      6156.0901      7768.0982      1152.1841      1004.7975      481.71764      20.160633      19.966328      20.321127      90             90             90           
     13000   258.54352     -159.93465     -127.48444     -159.93465      0              5276.4671      20.200495      20.108446      20.113487      0              0              0              8170.1098      680.49692      8498.996       6649.9084      889.25172     -917.83684     -848.86163      20.200495      20.108446      20.113487      90             90             90           
     13500   249.55543     -161.38847     -130.06637     -161.38847      0              4647.023       19.966204      20.193527      20.103846      0              0              0              8105.6313      4769.4914      293.28664      8878.291      -1256.0967     -90.0179        1146.9477      19.966204      20.193527      20.103846      90             90             90           
     14000   248.57235     -162.00292     -130.8042      -162.00292      0              694.72198      19.887219      20.061832      20.355184      0              0              0              8121.1901      415.94237      1940.1657     -271.94209     -1013.7536      1363.8393      2834.3129      19.887219      20.061832      20.355184      90             90             90           
     14500   239.76201     -161.87112     -131.77821     -161.87112      0              4716.0504      20.029294      19.887668      20.623374      0              0              0              8215.0311      3732.5642      4935.7243      5479.8628     -633.23842      1380.4029      134.81724      20.029294      19.887668      20.623374      90             90             90           
     15000   252.36062     -160.20145     -128.52726     -160.20145      0              3608.852       20.124921      19.776275      20.354312      0              0              0              8100.9339      5471.6         239.5711       5115.385       201.81505     -851.57783     -843.2897       20.124921      19.776275      20.354312      90             90             90           
     15500   258.65815     -160.95007     -128.48547     -160.95007      0              4769.1818      20.140946      19.945308      20.072536      0              0              0              8063.4865      6573.6421      4766.7218      2967.1813     -1049.514       611.44047      1758.7258      20.140946      19.945308      20.072536      90             90             90           
     16000   262.16349     -161.63654     -128.73198     -161.63654      0              3351.9472      20.115898      20.23424       20.137309      0              0              0              8196.4872      5040.0171     -661.57178      5677.3964     -905.2095      -1004.5854      43.715982      20.115898      20.23424       20.137309      90             90             90           
     16500   256.23015     -160.77597     -128.61611     -160.77597      0              4970.0241      19.940565      20.190192      20.241935      0              0              0              8149.4807      2646.2162      6192.2083      6071.6478     -530.79535      50.484823     -2071.1457      19.940565      20.190192      20.241935      90             90             90           
     17000   255.18555     -160.80357     -128.77482     -160.80357      0              7812.0186      19.857469      19.965784      20.369144      0              0              0              8075.7534      7347.629       8596.7414      7491.6854     -723.97594     -1695.3669      2023.6347      19.857469      19.965784      20.369144      90             90             90           
     17500   256.2854      -161.37846     -129.21167     -161.37846      0              2035.3451      20.076403      19.972731      20.524977      0              0              0              8230.1178      1485.0023      1387.1522      3233.881      -322.81857      296.59957     -2772.1419      20.076403      19.972731      20.524977      90             90             90           
     18000   254.53218     -162.69895     -130.7522      -162.69895      0              3304.9824      20.088263      19.937848      20.294694      0              0              0              8128.3643      1091.2706      4613.3896      4210.287       53.669919      2200.7205      1131.2853      20.088263      19.937848      20.294694      90             90             90           
     18500   247.61635     -161.18194     -130.10322     -161.18194      0              6373.3685      20.121555      19.943109      20.130942      0              0              0              8078.2728      6419.0165      5789.4958      6911.5931      400.13949     -2897.1939     -833.48009      20.121555      19.943109      20.130942      90             90             90           
     19000   245.15469     -160.50328     -129.73352     -160.50328      0              3932.0873      20.15068       19.961442      20.261845      0              0              0              8150.0564      3874.5421      100.64824      7821.0714      84.797427     -386.54956      445.83501      20.15068       19.961442      20.261845      90             90             90           
     19500   250.08719     -161.02949     -129.64064     -161.02949      0              1781.4282      19.997573      20.024364      20.393576      0              0              0              8166.3765      3047.6143      578.45751      1718.2129      66.017466      911.50795      1283.8106      19.997573      20.024364      20.393576      90             90             90           
     20000   246.68706     -162.00282     -131.04073     -162.00282      0              8181.008       19.796492      20.080249      20.365013      0              0              0              8095.469       10381.886      7739.7671      6421.3713      801.64571      1146.4935      967.40618      19.796492      20.080249      20.365013      90             90             90           
     20500   244.56653     -161.60989     -130.91395     -161.60989      0              6252.6118      19.963971      20.140376      20.307113      0              0              0              8165.1224      4982.7533      5297.4824      8477.5997     -671.58298      3831.1626     -411.71308      19.963971      20.140376      20.307113      90             90             90           
     21000   243.29479     -161.02339     -130.48708     -161.02339      0              3297.9784      20.199344      19.959355      20.11952       0              0              0              8111.5039      5881.5955     -119.1151       4131.4547      153.52952     -237.22525      765.99848      20.199344      19.959355      20.11952       90             90             90           
     21500   246.43037     -162.83918     -131.90931     -162.83918      0              6403.5833      20.244775      19.835396      20.082501      0              0              0              8064.392       2491.5975      10546.067      6173.0855     -141.15476     -1302.8627      1133.5355      20.244775      19.835396      20.082501      90             90             90           
     22000   248.28172     -161.06916     -129.90692     -161.06916      0              1919.109       20.097112      20.015025      20.454662      0              0              0              8227.7691     -89.461135      3931.0042      1915.784       873.7764      -90.267392     -461.89115      20.097112      20.015025      20.454662      90             90             90           
     22500   243.267       -159.52344     -128.99061     -159.52344      0              7473.5647      19.690325      19.961453      20.64241       0              0              0              8113.4474      8177.8758      11775.143      2467.6752      1468.8481     -28.445647     -1177.2808      19.690325      19.961453      20.64241       90             90             90           
     23000   249.31538     -162.24932     -130.95735     -162.24932      0              5998.6899      19.836381      20.027814      20.495917      0              0              0              8142.6045      5402.3043      6701.7426      5892.0227      544.49752     -1556.2054     -245.07228      19.836381      20.027814      20.495917      90             90             90           
     23500   244.50409     -160.24583     -129.55773     -160.24583      0              6725.5018      20.177978      20.113489      20.10146       0              0              0              8158.1686      7276.6496      6770.7872      6129.0684     -1289.661      -1184.0191     -361.30988      20.177978      20.113489      20.10146       90             90             90           
     24000   252.97103     -159.38348     -127.63268     -159.38348      0              7513.3476      20.163364      20.170437      20.021076      0              0              0              8142.6489      6935.8919      7177.1766      8426.9744     -76.685992      384.5806       1089.9318      20.163364      20.170437      20.021076      90             90             90           
     24500   249.37689     -160.19338     -128.89369     -160.19338      0              5862.7779      19.977386      20.053549      20.159268      0              0              0              8076.1552      8508.0442      1388.8277      7691.4619     -1418.5694     -1124.6955      62.007948      19.977386      20.053549      20.159268      90             90             90           
     25000   252.02832     -160.61218     -128.9797      -160.61218      0              3043.6246      20.066427      19.98866       20.481675      0              0              0              8215.2201      4964.8429      1961.7197      2204.3111     -415.34637     -664.81117     -1138.8956      20.066427      19.98866       20.481675      90             90             90           
     25500   262.59179     -161.11693     -128.15861     -161.11693      0              5781.8088      20.041683      19.88409       20.513353      0              0              0              8174.7895      5084.0747      4790.48        7470.8716      498.25006     -749.94971     -391.89814      20.041683      19.88409       20.513353      90             90             90           
     26000   257.55781     -160.31382     -127.98733     -160.31382      0              3764.2953      19.99231       19.947705      20.271628      0              0              0              8084.3395      5198.7676      3392.104       2702.0143     -701.07164      1406.2934      1140.7721      19.99231       19.947705      20.271628      90             90             90           
     26500   234.58496     -159.52752     -130.08439     -159.52752      0              5328.3917      20.082134      20.225319      20.149037      0              0              0              8183.8857      4770.7708      5842.8644      5371.5399      346.53757     -1206.7457     -1454.1386      20.082134      20.225319      20.149037      90             90             90           
     27000   267.85189     -161.59976     -127.98124     -161.59976      0              5119.5437      20.033876      20.149917      20.091662      0              0              0              8110.6206      5636.6521      2348.5499      7373.429       1279.5518     -3652.3647      704.77183      20.033876      20.149917      20.091662      90             90             90           
     27500   241.6813      -159.44147     -129.10766     -159.44147      0              3007.6254      20.149642      20.008711      20.328593      0              0              0              8195.8455      3591.2798      2505.1443      2926.4522      2446.0517      333.01433      635.90873      20.149642      20.008711      20.328593      90             90             90           
     28000   250.369       -161.45402     -130.02981     -161.45402      0              4729.852       19.979946      19.8301        20.396825      0              0              0              8081.3101      6641.3856      3561.1294      3987.0408     -554.44947      1842.8538     -585.69751      19.979946      19.8301        20.396825      90             90             90           
     28500   242.90624     -159.52841     -129.04086     -159.52841      0              2404.5854      19.959301      19.992536      20.389407      0              0              0              8136.1287      1155.1359      1347.1942      4711.4262      117.27845      2091.4533     -490.13211      19.959301      19.992536      20.389407      90             90             90           
     29000   248.77249     -160.3516      -129.12777     -160.3516       0              6391.5461      20.064263      20.151591      20.306201      0              0              0              8210.3415      5244.3943      5524.7883      8405.4556     -1671.3637      1999.5588     -2091.6471      20.064263      20.151591      20.306201      90             90             90           
     29500   265.68454     -161.23997     -127.89348     -161.23997      0              6965.2845      20.031936      19.950171      20.142201      0              0              0              8049.6403      6390.5431      8294.2294      6211.0809      247.76738     -3352.0203     -1237.1045      20.031936      19.950171      20.142201      90             90             90           
     30000   256.75587     -158.69421     -126.46837     -158.69421      0              3105.2595      20.236977      19.99081       20.256521      0              0              0              8194.8479      2524.9555      1967.529       4823.2939      712.34505      2235.0009     -402.64947      20.236977      19.99081       20.256521      90             90             90           
     30500   253.37983     -159.61787     -127.81576     -159.61787      0              8155.773       20.120002      19.997312      20.268357      0              0              0              8154.8918      6378.5191      12405.47       5683.3304     -386.06334      1113.241      -1662.4825      20.120002      19.997312      20.268357      90             90             90           
     31000   263.59545     -160.59949     -127.5152      -160.59949      0              7149.7178      19.885821      20.103569      20.209903      0              0              0              8079.4336      12493.143      3535.5576      5420.4528      1506.3082     -18.799538     -2088.1052      19.885821      20.103569      20.209903      90             90             90           
     31500   242.64144     -159.15692     -128.70261     -159.15692      0              5657.6712      20.004905      20.226395      20.310985      0              0              0              8218.3753      6881.2816      3009.1324      7082.5998     -88.125745      1388.3301      1180.2909      20.004905      20.226395      20.310985      90             90             90           
     32000   251.56913     -161.0519      -129.47706     -161.0519       0              9498.66        20.083758      19.902202      20.164885      0              0              0              8060.1265      9434.07        9513.836       9548.074       1103.6032     -1883.6647     -1012.0673      20.083758      19.902202      20.164885      90             90             90           
     32500   251.64364     -160.60106     -129.01687     -160.60106      0              4334.5689      20.229533      19.934332      20.291783      0              0              0              8182.9094      4455.4817      7072.8098      1475.4154      275.49996      274.73311     -27.591576      20.229533      19.934332      20.291783      90             90             90           
     33000   252.18604     -160.25254     -128.60026     -160.25254      0              5523.9658      20.118313      20.05376       20.317976      0              0              0              8197.2431      4380.7572      4158.3533      8032.7868      808.85821     -3544.1024      788.7822       20.118313      20.05376       20.317976      90             90             90           
     33500   254.89956     -161.55321     -129.56036     -161.55321      0              7589.3392      19.903026      20.010292      20.278054      0              0              0              8076.0467      9907.9706      7602.454       5257.5929     -514.70622      1524.1681      153.94781      19.903026      20.010292      20.278054      90             90             90           
     34000   242.80689     -162.17182     -131.69674     -162.17182      0              6881.4968      20.0159        20.051596      20.306155      0              0              0              8149.8902      2823.0311      11230.111      6591.3482      1434.2129     -751.16263     -2770.9902      20.0159        20.051596      20.306155      90             90             90           
     34500   242.94729     -162.45119     -131.95848     -162.45119      0              9090.6224      20.12239       19.970975      20.169964      0              0              0              8105.577       11243.931      9000.7162      7027.2202     -1664.3632      707.72304      1705.9857      20.12239       19.970975      20.169964      90             90             90           
     35000   225.74575     -160.97832     -132.64461     -160.97832      0              7929.6194      20.157974      19.988735      20.174198      0              0              0              8128.838       7266.9866      7949.2166      8572.655      -59.29548      -2078.8521     -640.71367      20.157974      19.988735      20.174198      90             90             90           
     35500   239.7964      -161.35177     -131.25454     -161.35177      0              6118.8784      19.943296      20.016211      20.173774      0              0              0              8053.1531      8390.276       2020.3778      7945.9814     -2021.1948     -841.80814      490.60742      19.943296      20.016211      20.173774      90             90             90           
     36000   250.46178     -162.04101     -130.60516     -162.04101      0              6602.9828      20.063106      20.143971      20.408913      0              0              0              8248.2747      7283.3616      5141.4825      7384.1044     -706.63113      146.05775     -1567.8491      20.063106      20.143971      20.408913      90             90             90           
     36500   258.43428     -161.69686     -129.26036     -161.69686      0              9774.3001      20.004741      19.916167      20.317756      0              0              0              8094.9551      11552.865      7475.9688      10294.067      280.33828     -229.85456     -299.48149      20.004741      19.916167      20.317756      90             90             90           
     37000   244.12939     -160.4404      -129.79933     -160.4404       0              6045.08        20.013262      19.977117      20.23892       0              0              0              8091.6673      6107.8554      4356.6073      7670.7774     -105.88217     -910.29905     -61.552816      20.013262      19.977117      20.23892       90             90             90           
     37500   248.51647     -161.37507     -130.18337     -161.37507      0              7218.9717      20.114147      20.133131      20.174958      0              0              0              8170.0661      4032.4165      8629.7947      8994.7038     -424.50562      1722.6104     -257.58871      20.114147      20.133131      20.174958      90             90             90           
     38000   260.71315     -160.93532     -128.21279     -160.93532      0              2219.0963      20.06359       20.070034      20.119134      0              0              0              8101.5114      5397.9745      364.72612      894.58831      183.18572      1297.0637     -907.11716      20.06359       20.070034      20.119134      90             90             90           
     38500   250.26403     -160.37189     -128.96085     -160.37189      0              1883.2876      19.98994       20.025879      20.337339      0              0              0              8141.3642      1231.8298      1157.9111      3260.1218     -1636.9245      1777.3511      1639.0917      19.98994       20.025879      20.337339      90             90             90           
     39000   245.33909     -161.28861     -130.49571     -161.28861      0              3838.7683      19.972689      19.846634      20.559451      0              0              0              8149.5743      3010.8815      4625.154       3880.2695     -391.71082     -489.31899      1494.4275      19.972689      19.846634      20.559451      90             90             90           
     39500   249.95734     -160.44147     -129.06892     -160.44147      0              3126.2453      20.167498      19.776766      20.612762      0              0              0              8221.3562      8708.5039     -699.46562      1369.6975      1021.8137      332.57309     -1592.8544      20.167498      19.776766      20.612762      90             90             90           
     40000   251.12852     -161.26046     -129.74092     -161.26046      0              7711.9157      20.11359       19.898642      20.156174      0              0              0              8067.1687      8560.3272      7749.6794      6825.7404     -612.51384     -3865.304      -2320.4745      20.11359       19.898642      20.156174      90             90             90           
     40500   244.0089      -161.17058     -130.54463     -161.17058      0              4692.9568      20.100844      20.261546      19.993892      0              0              0              8142.9962      2700.183       5391.3335      5987.3538      343.89445      484.52972      1157.5404      20.100844      20.261546      19.993892      90             90             90           
     41000   252.53784     -162.57493     -130.8785      -162.57493      0              7300.5276      20.019596      20.23058       20.17732       0              0              0              8171.9766      7252.1148      8736.8919      5912.5761     -39.772096      641.81248     -679.22084      20.019596      20.23058       20.17732       90             90             90           
     41500   258.65528     -161.42674     -128.9625      -161.42674      0              8906.1826      19.886901      19.953768      20.46855       0              0              0              8122.3014      9714.5911      8183.1302      8820.8266      26.978354      2827.0969      1596.8126      19.886901      19.953768      20.46855       90             90             90           
     42000   249.2165      -160.70594     -129.42638     -160.70594      0              3642.1268      19.956924      19.906764      20.633697      0              0              0              8197.3095      4692.0428      3643.4868      2590.8507      961.04628     -2686.9669     -1898.6549      19.956924      19.906764      20.633697      90             90             90           
     42500   257.02593     -160.63277     -128.37303     -160.63277      0              4999.7723      20.04464       19.966571      20.407473      0              0              0              8167.5343      1779.717       8095.7016      5123.8984     -461.92897     -28.735822      114.6969       20.04464       19.966571      20.407473      90             90             90           
     43000   252.09548     -160.14628     -128.50537     -160.14628      0              3468.4041      20.107316      19.993616      20.137418      0              0              0              8095.6036      5835.6044      521.82103      4047.7867     -318.43186      10.271223      1924.7878      20.107316      19.993616      20.137418      90             90             90           
     43500   249.52305     -160.7484      -129.43036     -160.7484       0              3436.5114      20.206678      20.049315      20.281271      0              0              0              8216.5526      4811.0979      1847.8136      3650.6227      414.37982      1793.9217      384.39217      20.206678      20.049315      20.281271      90             90             90           
     44000   255.46444     -161.54736     -129.48361     -161.54736      0              8144.9111      19.928188      19.920331      20.340884      0              0              0              8074.8449      11543.242      4293.5965      8597.8949     -455.32357     -436.8948       49.841094      19.928188      19.920331      20.340884      90             90             90           
     44500   249.80067     -160.92045     -129.56757     -160.92045      0              6299.7291      19.906907      20.006078      20.437094      0              0              0              8139.2595      8114.968       5226.4015      5557.8177     -50.513964      11.497016     -1543.6595      19.906907      20.006078      20.437094      90             90             90           
     45000   236.73309     -161.63661     -131.92386     -161.63661      0              5078.8399      20.088708      20.035208      20.386044      0              0              0              8205.0041      6685.0139      3387.031       5164.4747      464.79818      2485.805      -2322.1373      20.088708      20.035208      20.386044      90             90             90           
     45500   249.7635      -162.3062      -130.95798     -162.3062       0              5600.0786      20.081884      20.038531      20.184287      0              0              0              8122.3883      2667.2         8328.0498      5804.986       624.61041      783.88963      1305.3855      20.081884      20.038531      20.184287      90             90             90           
     46000   252.69905     -161.80454     -130.08788     -161.80454      0              4123.3566      19.960714      20.001531      20.126215      0              0              0              8035.2876      5808.8143      2591.1949      3970.0605      624.8283      -638.99155      130.46735      19.960714      20.001531      20.126215      90             90             90           
     46500   247.6386      -161.41898     -130.33747     -161.41898      0              5539.3388      20.116219      20.116695      20.400165      0              0              0              8255.3726      6181.1866      4770.0822      5666.7476     -367.96366      2120.8798     -2653.7234      20.116219      20.116695      20.400165      90             90             90           
     47000   253.4546      -160.74146     -128.92997     -160.74146      0              6171.4068      19.989428      19.98092       20.411859      0              0              0              8152.6427      8208.3598      6633.5687      3672.2918      416.30914      1357.8164     -1452.0513      19.989428      19.98092       20.411859      90             90             90           
     47500   257.72345     -160.58137     -128.23409     -160.58137      0              3882.6188      19.949636      19.92212       20.333414      0              0              0              8081.2923      2004.6612      5218.9144      4424.2809      57.379735      1225.9869     -1619.5587      19.949636      19.92212       20.333414      90             90             90           
     48000   246.5947      -160.03607     -129.08558     -160.03607      0              5295.9659      20.17137       20.129674      20.364581      0              0              0              8268.8975      5736.2784      5059.0526      5092.5667      492.45024     -677.05528     -1709.3087      20.17137       20.129674      20.364581      90             90             90           
     48500   254.96342     -161.16444     -129.16357     -161.16444      0              8438.1612      20.05386       20.042546      20.230029      0              0              0              8131.0642      12042.529      5708.2588      7563.696      -810.40119      248.91636      1027.5017      20.05386       20.042546      20.230029      90             90             90           
     49000   256.96749     -159.32973     -127.07733     -159.32973      0              5195.1286      19.985482      19.849907      20.255406      0              0              0              8035.5213      3091.2965      7556.248       4937.8412      406.90509     -2312.5766      1998.4257      19.985482      19.849907      20.255406      90             90             90           
     49500   266.1768      -158.88058     -125.4723      -158.88058      0              5884.1092      20.162544      19.988118      20.473512      0              0              0              8251.0569      4290.8409      6598.9097      6762.5771     -1145.9486     -1997.6436      87.468103      20.162544      19.988118      20.473512      90             90             90           
     50000   260.58034     -160.2501      -127.54424     -160.2501       0              4831.9354      20.030778      20.09319       20.44087       0              0              0              8227.0868      5951.1305      4775.3598      3769.3159     -413.86117      1807.5253      58.660654      20.030778      20.09319       20.44087       90             90             90           
     50500   259.62371     -161.31614     -128.73035     -161.31614      0              4121.0538      19.794138      19.989214      20.270121      0              0              0              8020.2641      1494.2776      7385.255       3483.6287     -753.10152      1647.4771      1844.8593      19.794138      19.989214      20.270121      90             90             90           
     51000   253.57666     -160.53312     -128.70631     -160.53312      0              4717.3716      19.993436      20.069065      20.36707       0              0              0              8172.2778      3348.6676      2672.9134      8130.5339      903.97146      95.574872      1242.7392      19.993436      20.069065      20.36707       90             90             90           
     51500   249.26712     -160.78008     -129.49417     -160.78008      0              699.84417      20.173534      20.075377      20.449125      0              0              0              8281.718       2969.2571      213.15979     -1082.8844     -2606.5112     -1575.2594      1902.2637      20.173534      20.075377      20.449125      90             90             90           
     52000   243.43315     -161.41964     -130.86595     -161.41964      0              6053.9593      19.951036      19.852953      20.268747      0              0              0              8028.1869      7877.697       4717.0976      5567.0832      127.6918       1158.1251     -2917.5087      19.951036      19.852953      20.268747      90             90             90           
     52500   252.4152      -160.88856     -129.20752     -160.88856      0              5674.1725      19.990909      20.03512       20.363385      0              0              0              8155.9483      5067.9708      4383.8759      7570.6708     -153.15584     -311.25467      3096.191       19.990909      20.03512       20.363385      90             90             90           
     53000   255.26231     -162.17921     -130.14083     -162.17921      0              3520.6886      20.053949      20.218308      20.410002      0              0              0              8275.3764      1260.5434      3746.4394      5555.083      -74.059363      3087.1137      2311.0757      20.053949      20.218308      20.410002      90             90             90           
     53500   250.07989     -160.68079     -129.29287     -160.68079      0              6047.1191      19.911935      19.991668      20.250417      0              0              0              8061.14        5337.2013      7420.3623      5383.7937     -41.554613     -734.40494     -2628.5241      19.911935      19.991668      20.250417      90             90             90           
     54000   247.69823     -159.95743     -128.86843     -159.95743      0              4130.1365      20.088409      20.055166      20.360775      0              0              0              8202.8756      6555.8391      2748.8839      3085.6865     -1019.3451      577.80339     -1756.2283      20.088409      20.055166      20.360775      90             90             90           
     54500   248.07914     -162.52933     -131.39252     -162.52933      0              4317.536       20.07706       19.979236      20.319973      0              0              0              8150.8353      3885.0185      5176.5559      3891.0335     -2093.9359     -1153.7787     -1444.6264      20.07706       19.979236      20.319973      90             90             90           
     55000   249.46473     -161.25633     -129.94561     -161.25633      0              6969.2071      20.002767      20.007683      20.256952      0              0              0              8107.0147      11858.87       2590.6836      6458.068       1230.9321      531.28982     -1345.7674      20.002767      20.007683      20.256952      90             90             90           
     55500   243.68486     -162.19554     -131.61026     -162.19554      0              6797.2249      20.019908      20.134571      20.280456      0              0              0              8174.8951      7078.4068      6066.4939      7246.774       1100.7827     -386.37956      1747.7571      20.019908      20.134571      20.280456      90             90             90           
     56000   260.49236     -160.89241     -128.19759     -160.89241      0              5095.7982      20.147133      19.999008      20.255273      0              0              0              8161.3089      3978.3077      2364.1188      8944.9683      1526.6432      869.41714      676.91422      20.147133      19.999008      20.255273      90             90             90           
     56500   250.50007     -160.37028     -128.92961     -160.37028      0              4925.9874      20.141896      19.747604      20.344996      0              0              0              8092.3072      5310.4251      6878.8198      2588.7172      76.787795      2249.3724     -655.96829      20.141896      19.747604      20.344996      90             90             90           
     57000   247.49348     -160.49        -129.42669     -160.49         0              4156.9808      20.019859      19.854288      20.520836      0              0              0              8156.623       4610.6122      5949.5877      1910.7425     -27.50506      -1489.4132     -154.41608      20.019859      19.854288      20.520836      90             90             90           
     57500   249.62527     -161.37876     -130.04789     -161.37876      0              3014.5498      19.954115      20.172127      20.52891       0              0              0              8263.2342      4214.2643      2877.5753      1951.8098     -3792.0119      966.49285     -3756.9346      19.954115      20.172127      20.52891       90             90             90           
     58000   248.70508     -160.60139     -129.38602     -160.60139      0              5800.7126      19.85813       20.123164      20.145026      0              0              0              8050.1215      4716.6502      7381.1514      5304.3364      1010.3657      1020.1086     -3372.1387      19.85813       20.123164      20.145026      90             90             90           
     58500   255.56675     -162.01134     -129.93475     -162.01134      0              7043.0908      20.080541      20.017578      20.13084       0              0              0              8091.869       7352.966       6294.2948      7482.0116     -1146.0081      703.52407      864.768        20.080541      20.017578      20.13084       90             90             90           
     59000   254.81405     -160.68424     -128.70213     -160.68424      0              4750.8587      20.285772      20.033598      20.32019       0              0              0              8258.0644      2356.0863      6282.1849      5614.3048      1531.2223      192.60271      1690.0466      20.285772      20.033598      20.32019       90             90             90           
     59500   255.87805     -160.65319     -128.53752     -160.65319      0              3973.4981      19.968381      19.945513      20.363862      0              0              0              8110.5109      2985.793       5862.1415      3072.5598     -1194.8284      624.08949     -1771.6849      19.968381      19.945513      20.363862      90             90             90           
     60000   249.32951     -161.83446     -130.54071     -161.83446      0              7597.9233      19.813442      20.018872      20.396114      0              0              0              8089.9713      10972.615      5232.878       6588.2771      1139.2708     -1692.3836      2843.3451      19.813442      20.018872      20.396114      90             90             90           
     60500   249.67237     -162.00135     -130.66457     -162.00135      0              4678.9535      20.085016      20.027637      20.379222      0              0              0              8197.6521      5354.2324      3950.8206      4731.8076     -427.50878      2054.4084      1369.1371      20.085016      20.027637      20.379222      90             90             90           
     61000   246.61067     -159.98624     -129.03374     -159.98624      0              4831.0678      20.263171      19.857256      20.240329      0              0              0              8144.1211      1896.8206      6052.0796      6544.3033     -1448.0952     -903.32913      1485.3052      20.263171      19.857256      20.240329      90             90             90           
     61500   260.72055     -161.78174     -129.05829     -161.78174      0              6428.0835      20.081991      19.854623      20.241696      0              0              0              8070.7763      8804.0584      6420.9038      4059.2884      535.30346      12.115008      1471.5981      20.081991      19.854623      20.241696      90             90             90           
     62000   252.66461     -160.18012     -128.46778     -160.18012      0              2820.385       19.938135      20.094876      20.44328       0              0              0              8190.6892      2319.091       4516.9696      1625.0944     -1058.1724     -3911.6022      2523.7338      19.938135      20.094876      20.44328       90             90             90           
     62500   247.87415     -160.87065     -129.75956     -160.87065      0              4411.1884      19.88309       20.152966      20.417933      0              0              0              8181.5316      7999.8447      1347.9192      3885.8013     -230.06208      1129.1071     -1164.8725      19.88309       20.152966      20.417933      90             90             90           
     63000   262.08011     -159.71432     -126.82022     -159.71432      0              3493.5832      19.959243      20.031646      20.292991      0              0              0              8113.4727      2553.4654      2625.4242      5301.8598     -981.269        1374.7915      804.38977      19.959243      20.031646      20.292991      90             90             90           
     63500   240.10228     -159.93356     -129.79793     -159.93356      0              3498.9782      20.082553      20.046959      20.323434      0              0              0              8182.0949      2930.6518      5449.7057      2116.5771     -327.57657      172.04885      1967.8951      20.082553      20.046959      20.323434      90             90             90           
     64000   252.49029     -160.31853     -128.62807     -160.31853      0              3991.3084      20.037743      20.037312      20.333394      0              0              0              8163.9086      5584.697       1917.2976      4471.9306      273.82024     -2576.9171      3244.4492      20.037743      20.037312      20.333394      90             90             90           
     64500   258.8193      -162.16751     -129.68268     -162.16751      0              8789.5272      19.988963      19.924851      20.414187      0              0              0              8130.5036      9247.1092      9305.7111      7815.7614     -1163.1151     -704.4268      -1317.9845      19.988963      19.924851      20.414187      90             90             90           
     65000   242.34357     -161.87397     -131.45704     -161.87397      0              3729.2725      20.161996      19.868829      20.539337      0              0              0              8227.9609      6161.4808      1405.506       3620.8307     -1070.9977     -817.12424      888.88609      20.161996      19.868829      20.539337      90             90             90           
     65500   240.81899     -160.18452     -129.95894     -160.18452      0              5141.0977      20.073287      19.8027        20.32892       0              0              0              8080.8527      4773.8595      3379.022       7270.4117     -816.3323      -1509.4686     -2612.7603      20.073287      19.8027        20.32892       90             90             90           
     66000   263.17496     -160.46737     -127.43586     -160.46737      0              6474.445       20.007272      20.236267      20.19407       0              0              0              8176.0234      8532.0266      2470.9959      8420.3125      993.6323      -1240.6352     -370.10329      20.007272      20.236267      20.19407       90             90             90           
     66500   250.71817     -159.57243     -128.10439     -159.57243      0              6826.7368      19.907101      20.348915      20.11863       0              0              0              8149.8134      4756.5485      7712.9878      8010.6743     -908.42749     -601.98333     -52.85055       19.907101      20.348915      20.11863       90             90             90           
     67000   246.72767     -161.18961     -130.22243     -161.18961      0              2714.2978      20.060147      20.025777      20.353725      0              0              0              8176.4991     -278.0283       5028.3193      3392.6023      339.33527     -1537.2891     -1080.6146      20.060147      20.025777      20.353725      90             90             90           
     67500   240.64566     -160.6914      -130.48758     -160.6914       0              7461.6669      20.12142       19.752992      20.49619       0              0              0              8146.3796      5619.4478      11463.305      5302.2483      364.86909     -1312.9178      1826.3364      20.12142       19.752992      20.49619       90             90             90           
     68000   244.13607     -160.71012     -130.06821     -160.71012      0              4359.3509      20.002162      19.936521      20.409831      0              0              0              8138.9004      6977.7308      1916.7299      4183.5922     -812.68396      1708.4055     -1051.2192      20.002162      19.936521      20.409831      90             90             90           
     68500   251.3533      -160.34205     -128.79429     -160.34205      0              5759.7181      19.882802      20.296125      20.245191      0              0              0              8169.8216      12956.823     -1273.2931      5595.6249     -1333.5753      142.64326     -1240.9959      19.882802      20.296125      20.245191      90             90             90           
     69000   245.57173     -161.34148     -130.51937     -161.34148      0              4786.4951      19.92277       20.199414      20.152806      0              0              0              8110.059       7666.3854      1670.6884      5022.4116      545.89641     -1137.1586     -430.47501      19.92277       20.199414      20.152806      90             90             90           
     69500   249.17102     -162.1852      -130.91135     -162.1852       0              6464.8015      20.187408      19.927342      20.288107      0              0              0              8161.5276      4964.7658      6879.7949      7549.8438     -181.92036      628.77988     -1261.3335      20.187408      19.927342      20.288107      90             90             90           
     70000   243.65585     -160.45196     -129.87033     -160.45196      0              5679.2827      20.172007      19.800661      20.37414       0              0              0              8137.82        1836.5754      10065.912      5135.3603     -939.57327     -1497.6326     -165.49343      20.172007      19.800661      20.37414       90             90             90           
     70500   242.0828      -160.92693     -130.54273     -160.92693      0              5732.8898      20.009842      19.959795      20.408346      0              0              0              8150.9371      7186.5203      3401.4853      6610.6639      1071.3045      2067.0345     -1122.1738      20.009842      19.959795      20.408346      90             90             90           
     71000   247.5426      -161.21006     -130.14059     -161.21006      0              6892.3509      19.903555      20.139995      20.350676      0              0              0              8157.721       11554.354      2430.1555      6692.5428     -1209.6325      1065.9128      2996.9576      19.903555      20.139995      20.350676      90             90             90           
     71500   253.09648     -161.80451     -130.03797     -161.80451      0              4575.4732      19.997088      20.043945      20.245791      0              0              0              8114.9285      3358.0577      3684.6747      6683.6872      1185.2724     -641.36624      471.63047      19.997088      20.043945      20.245791      90             90             90           
     72000   260.14499     -159.64068     -126.98946     -159.64068      0              3978.6218      20.186137      19.970524      20.268399      0              0              0              8170.7538      4128.6113      3466.211       4341.043       800.36404     -929.84891      1351.1787      20.186137      19.970524      20.268399      90             90             90           
     72500   252.90396     -160.27616     -128.53378     -160.27616      0              4834.4206      20.170075      19.922654      20.312505      0              0              0              8162.4061      2046.1547      8689.5002      3767.6068     -1168.3644      408.42854     -1066.7774      20.170075      19.922654      20.312505      90             90             90           
     73000   247.49067     -161.52299     -130.46004     -161.52299      0              6963.1274      19.981285      20.004773      20.402143      0              0              0              8155.1664      5366.1061      10634.437      4888.8392      830.99746     -689.58533      342.10569      19.981285      20.004773      20.402143      90             90             90           
     73500   248.5046      -160.61197     -129.42176     -160.61197      0              3618.882       19.906713      20.100119      20.391185      0              0              0              8159.0699      4649.9744      3615.3482      2591.3233     -1356.6642      1685.855      -2658.6243      19.906713      20.100119      20.391185      90             90             90           
     74000   255.7055      -162.33311     -130.2391      -162.33311      0              7130.6914      20.091858      20.027311      20.142837      0              0              0              8105.1934      5920.6875      7467.5439      8003.8427      2194.2779      2264.9485      76.506597      20.091858      20.027311      20.142837      90             90             90           
     74500   253.25967     -161.66115     -129.87412     -161.66115      0              5068.7155      20.354188      20.0826        20.099664      0              0              0              8216.0395      6116.279       5392.6902      3697.1773     -470.86736      1198.457       1211.5638      20.354188      20.0826        20.099664      90             90             90           
     75000   251.20816     -159.78404     -128.2545      -159.78404      0              6200.9331      20.054218      20.063855      20.118766      0              0              0              8095.0858      7087.0525      3759.7925      7755.9543      1471.522      -3018.7683      1089.8877      20.054218      20.063855      20.118766      90             90             90           
     75500   244.66267     -161.49379     -130.78578     -161.49379      0              6222.1469      19.92297       20.103757      20.491669      0              0              0              8207.4572      7056.0663      5626.6031      5983.7712      446.97997     -1892.5968      1515.944       19.92297       20.103757      20.491669      90             90             90           
     76000   250.23027     -160.97954     -129.57274     -160.97954      0              4906.2562      19.991694      19.889786      20.567747      0              0              0              8178.364       9353.5954      3612.4319      1752.7413     -1561.3255     -757.30078      719.4555       19.991694      19.889786      20.567747      90             90             90           
     76500   242.41054     -163.44234     -133.01701     -163.44234      0              5397.7534      20.096642      19.82899       20.352925      0              0              0              8110.5616      5403.8441      2638.408       8151.0081      2412.575       1316.2046      2593.9204      20.096642      19.82899       20.352925      90             90             90           
     77000   241.66698     -162.5529      -132.22089     -162.5529       0              3762.3485      20.113699      20.007779      20.200064      0              0              0              8129.1207      2364.1039      4623.8071      4299.1345     -2998.688       2133.6259     -1299.2276      20.113699      20.007779      20.200064      90             90             90           
     77500   242.70662     -160.00235     -129.53985     -160.00235      0              6334.7616      20.001341      20.142302      20.200979      0              0              0              8138.4296      4108.1223      7698.3295      7197.8329      1551.9441     -317.34192     -716.73317      20.001341      20.142302      20.200979      90             90             90           
     78000   258.33872     -159.39487     -126.97036     -159.39487      0              3874.9663      19.930069      20.15918       20.329458      0              0              0              8167.8447      3399.3543      2348.3192      5877.2254     -670.30571      674.18305      59.432993      19.930069      20.15918       20.329458      90             90             90           
     78500   250.13411     -162.54144     -131.14671     -162.54144      0              3541.6193      20.020764      20.047711      20.439014      0              0              0              8203.6171      4769.992       5168.9181      685.94774      728.60777     -238.22779      602.16811      20.020764      20.047711      20.439014      90             90             90           
     79000   243.21427     -160.96139     -130.43517     -160.96139      0              4155.7305      20.092393      19.850114      20.359934      0              0              0              8120.2805      5730.6367      1954.8671      4781.6877      1932.5652     -1460.4453     -1312.5073      20.092393      19.850114      20.359934      90             90             90           
     79500   249.26283     -159.95228     -128.6669      -159.95228      0              3006.6329      20.165047      19.953425      20.276098      0              0              0              8158.3259      4543.7127     -1093.9361      5570.122      -743.24755     -16.543412      412.66768      20.165047      19.953425      20.276098      90             90             90           
     80000   252.44094     -159.83562     -128.15135     -159.83562      0              8270.5086      20.052496      20.04124       20.254002      0              0              0              8139.6154      9467.1243      8536.4069      6807.9947      2265.526       1363.4898     -349.49244      20.052496      20.04124       20.254002      90             90             90           
     80500   256.69001     -161.58984     -129.37227     -161.58984      0              4968.2317      19.968189      20.077696      20.333809      0              0              0              8152.1334      8491.6403      1342.902       5070.1526      871.40546      690.11923      1160.6752      19.968189      20.077696      20.333809      90             90             90           
     81000   253.22584     -161.51207     -129.72929     -161.51207      0              5058.8886      20.015702      20.149799      20.44742       0              0              0              8246.6975      1897.3986      8147.158       5132.1092     -1193.6862     -378.48689      2048.6409      20.015702      20.149799      20.44742       90             90             90           
     81500   249.11476     -160.66857     -129.40178     -160.66857      0              9080.1032      19.948014      19.91          20.244753      0              0              0              8040.5065      11346.265      6671.5544      9222.4901      83.683308      463.12882     -631.94237      19.948014      19.91          20.244753      90             90             90           
     82000   244.90135     -161.40769     -130.66973     -161.40769      0              4593.2431      20.176626      19.999257      20.270899      0              0              0              8179.663       3390.8582      3328.7531      7060.1178      1650.224      -493.49076     -1050.9935      20.176626      19.999257      20.270899      90             90             90           
     82500   260.22794     -160.16069     -127.49906     -160.16069      0              6271.2633      20.178775      20.065441      20.257352      0              0              0              8202.1212      5061.7775      6087.1329      7664.8795     -1018.2956      1542.085      -1000.7646      20.178775      20.065441      20.257352      90             90             90           
     83000   261.67385     -161.52654     -128.68343     -161.52654      0              7458.5572      19.902215      20.035616      20.252864      0              0              0              8075.8929      7221.0072      8268.734       6885.9304      957.96025     -432.25206      875.45494      19.902215      20.035616      20.252864      90             90             90           
     83500   255.36762     -161.43351     -129.38191     -161.43351      0              2405.1264      19.895959      20.08357       20.475211      0              0              0              8181.5235      3726.4045      686.42029      2802.5546      347.57445     -3655.4391      119.23173      19.895959      20.08357       20.475211      90             90             90           
     84000   254.71103     -159.33262     -127.36343     -159.33262      0              4114.0087      20.057287      20.025064      20.421132      0              0              0              8202.116       4152.7831      4581.5212      3607.7218     -778.99643      1013.0922     -68.723558      20.057287      20.025064      20.421132      90             90             90           
     84500   256.46439     -160.61318     -128.42392     -160.61318      0              4524.8099      20.24522       19.948943      20.189337      0              0              0              8153.8822      1916.4982      7527.7092      4130.2224     -679.47581     -387.90397     -1585.9098      20.24522       19.948943      20.189337      90             90             90           
     85000   244.65157     -160.58224     -129.87563     -160.58224      0              4825.8495      20.203641      19.929409      20.052877      0              0              0              8074.2233      5000.6025      5130.4659      4346.48       -1053.5023      340.41498      304.17998      20.203641      19.929409      20.052877      90             90             90           
     85500   259.76995     -160.83099     -128.22685     -160.83099      0              3490.1453      20.086231      20.170672      20.326432      0              0              0              8235.3103      2357.1687      2898.7191      5214.5481      430.67326      1469.1566      314.56155      20.086231      20.170672      20.326432      90             90             90           
     86000   256.55732     -161.03166     -128.83074     -161.03166      0              4744.554       19.875363      20.104921      20.462613      0              0              0              8176.7085      8038.4881      2795.5729      3399.6011     -1260.1629     -270.89469      2112.1468      19.875363      20.104921      20.462613      90             90             90           
     86500   251.16945     -161.52029     -129.99561     -161.52029      0              2842.2297      19.860159      19.921602      20.393131      0              0              0              8068.4644      4801.2514      4468.8229     -743.38521      100.74473      1182.5672     -1037.663       19.860159      19.921602      20.393131      90             90             90           
     87000   243.44284     -162.06057     -131.50567     -162.06057      0              2777.1942      20.120921      20.11634       20.330146      0              0              0              8228.8157     -1641.8445      4752.9647      5220.4624     -797.38064     -2096.0892      475.65709      20.120921      20.11634       20.330146      90             90             90           
     87500   251.72862     -161.31255     -129.71769     -161.31255      0              4562.9489      20.194428      20.127335      20.057964      0              0              0              8152.7604      2864.4314      2455.701       8368.7142     -1266.581      -621.15569     -1458.7228      20.194428      20.127335      20.057964      90             90             90           
     88000   249.25596     -160.00694     -128.72242     -160.00694      0              8119.0732      20.133173      20.034379      20.04297       0              0              0              8084.4448      6069.7424      10177.422      8110.0554     -1686.6103     -681.95124      556.26734      20.133173      20.034379      20.04297       90             90             90           
     88500   241.40222     -160.58888     -130.2901      -160.58888      0              4772.3955      20.041233      20.023138      20.35241       0              0              0              8167.1853      3698.2591      7322.0941      3296.8332     -143.76331      2377.9124      504.26034      20.041233      20.023138      20.35241       90             90             90           
     89000   241.18412     -162.32422     -132.05282     -162.32422      0              6283.2642      19.94809       20.006745      20.470546      0              0              0              8169.72        6425.8965      5434.1951      6989.701      -1015.9491      846.24151     -632.22659      19.94809       20.006745      20.470546      90             90             90           
     89500   244.5275      -162.66361     -131.97257     -162.66361      0              4679.6356      19.941288      19.990745      20.343271      0              0              0              8109.6662      7575.9895      2644.4376      3818.4796      186.33643      1061.4109     -505.51161      19.941288      19.990745      20.343271      90             90             90           
     90000   249.02409     -162.9259      -131.67049     -162.9259       0              4497.5083      20.063256      20.056995      20.171603      0              0              0              8117.2269      6827.1216      2205.2627      4460.1408      2582.852      -524.40382      165.66027      20.063256      20.056995      20.171603      90             90             90           
     90500   243.70531     -160.16071     -129.57287     -160.16071      0              4072.068       20.168495      20.168368      20.206091      0              0              0              8219.1432      5150.4588      5558.0542      1507.691       1005.7876      1575.3996      1604.9648      20.168495      20.168368      20.206091      90             90             90           
     91000   240.75169     -159.91433     -129.6972      -159.91433      0              4136.4929      20.043987      20.036105      20.186379      0              0              0              8106.9188      3751.2297      3003.5134      5654.7355      601.7761      -537.2905      -2503.6932      20.043987      20.036105      20.186379      90             90             90           
     91500   236.04666     -162.64575     -133.01916     -162.64575      0              8953.717       20.026067      19.914783      20.363882      0              0              0              8121.4172      9990.2772      9566.0061      7304.8677     -640.92938      2352.4156     -1555.421       20.026067      19.914783      20.363882      90             90             90           
     92000   243.94434     -161.7126      -131.09476     -161.7126       0              4579.1188      20.14326       19.947334      20.504714      0              0              0              8238.883       6142.5534      929.46481      6665.3383     -1023.4541      2199.2137     -373.25747      20.14326       19.947334      20.504714      90             90             90           
     92500   239.49497     -160.25933     -130.19994     -160.25933      0              5599.5842      20.012871      19.942791      20.319566      0              0              0              8109.7929      2951.608       9303.0992      4544.0454      507.69549      2236.0483      1036.0372      20.012871      19.942791      20.319566      90             90             90           
     93000   246.66829     -161.03785     -130.07811     -161.03785      0              8628.0344      19.997721      20.071829      20.16134       0              0              0              8092.577       11714.407      7887.6631      6282.033       466.36917      1504.1181      134.12639      19.997721      20.071829      20.16134       90             90             90           
     93500   234.77335     -159.89122     -130.42444     -159.89122      0              1770.8397      20.141175      20.232041      20.198477      0              0              0              8230.8202      2584.9477     -2192.6831      4920.2544     -885.91631     -165.11294     -61.228331      20.141175      20.232041      20.198477      90             90             90           
     94000   245.11765     -161.10556     -130.34045     -161.10556      0              8179.4226      20.024664      20.021096      20.126242      0              0              0              8068.9265      12263.374      5318.8662      6956.0271      207.78036      2265.9349      821.13207      20.024664      20.021096      20.126242      90             90             90           
     94500   238.87593     -160.41768     -130.43598     -160.41768      0              4999.2606      20.05704       19.954078      20.280129      0              0              0              8116.5079      2631.3754      5953.8035      6412.6029     -42.321606      2557.9085     -2670.8017      20.05704       19.954078      20.280129      90             90             90           
     95000   239.57273     -162.46615     -132.39699     -162.46615      0              4827.2469      20.066964      19.956624      20.460988      0              0              0              8193.9884      6273.8195      5556.5697      2651.3514     -61.844335      4156.4515      1303.829       20.066964      19.956624      20.460988      90             90             90           
[...]
    377000   246.26191     -162.44314     -131.53441     -162.44314      0              4746.5875      20.007177      20.22322       20.262684      0              0              0              8198.4752      6784.1467      1705.2901      5750.3258      2284.4101      2264.6851      271.10667      20.007177      20.22322       20.262684      90             90             90           
    377500   245.45385     -161.50093     -130.69362     -161.50093      0              7201.7677      19.982911      19.985824      20.321984      0              0              0              8116.0912      9903.7792      4493.9281      7207.5958     -308.45689     -766.66546     -3793.2157      19.982911      19.985824      20.321984      90             90             90           
    378000   247.12426     -160.46765     -129.45069     -160.46765      0              4914.2641      20.124026      19.804129      20.401939      0              0              0              8130.9644      5862.1175      6005.2811      2875.3937     -793.02793      322.03666     -2437.0176      20.124026      19.804129      20.401939      90             90             90           
    378500   244.029       -161.44735     -130.81888     -161.44735      0              3462.6697      20.2221        19.916188      20.3456        0              0              0              8194.1325      4438.9615      873.94638      5075.1013      928.6614      -32.411761      1292.0193      20.2221        19.916188      20.3456        90             90             90           
    379000   250.2016      -160.73877     -129.33557     -160.73877      0              6250.0602      19.999779      20.126307      20.123614      0              0              0              8100.1917      6033.7536      6114.5574      6601.8695     -1287.7211      787.09882      501.33383      19.999779      20.126307      20.123614      90             90             90           
    379500   242.56364     -160.92214     -130.47758     -160.92214      0              6838.5551      19.964958      20.279994      20.136293      0              0              0              8152.9684      8377.3675      4403.082       7735.2157      2647.719       2405.7453     -2040.0074      19.964958      20.279994      20.136293      90             90             90           
    380000   248.92977     -162.09555     -130.85198     -162.09555      0              7237.8522      20.023013      20.074968      20.246015      0              0              0              8138.1153      8927.977       5064.3579      7721.2216      786.37272      1423.6951      429.70412      20.023013      20.074968      20.246015      90             90             90           
    380500   249.75029     -162.52061     -131.17405     -162.52061      0              7533.4797      20.090989      19.812876      20.311729      0              0              0              8085.2923      6606.013       8067.6484      7926.7779      512.76407      1209.8851     -1118.9449      20.090989      19.812876      20.311729      90             90             90           
    381000   256.99551     -162.86072     -130.6048      -162.86072      0              3559.0012      20.129568      19.907231      20.363779      0              0              0              8160.2539      2321.3314      6870.3603      1485.3118      1053.7566     -1069.7162     -2236.2739      20.129568      19.907231      20.363779      90             90             90           
    381500   251.84219     -158.59943     -126.99032     -158.59943      0              4821.8303      20.000926      20.152444      20.3798        0              0              0              8214.436       7076.9872      2145.884       5242.6198      273.71082      950.43999     -244.80167      20.000926      20.152444      20.3798        90             90             90           
    382000   241.79257     -159.28981     -128.94204     -159.28981      0              5312.2072      19.942613      20.08489       20.315333      0              0              0              8137.209       6051.0484      3567.7168      6317.8563      784.33266     -240.2157       455.43016      19.942613      20.08489       20.315333      90             90             90           
    382500   259.49271     -159.70034     -127.131       -159.70034      0              6296.3888      20.18126       19.839525      20.248346      0              0              0              8107.167       5010.7833      7241.4558      6636.9273      1597.9803      2137.1698     -2966.5893      20.18126       19.839525      20.248346      90             90             90           
    383000   248.45366     -159.47541     -128.29159     -159.47541      0              5348.1192      20.247212      19.989704      20.33277       0              0              0              8229.3992      4228.1513      7971.9274      3844.2788     -1067.7771     -2732.9181     -1741.548       20.247212      19.989704      20.33277       90             90             90           
    383500   258.2276      -159.09525     -126.68469     -159.09525      0              6721.4232      19.899373      20.241535      20.298749      0              0              0              8176.2113      10346.739      3300.1491      6517.3819      644.91785     -4047.7833     -1330.1689      19.899373      20.241535      20.298749      90             90             90           
    384000   248.8029      -160.69147     -129.46382     -160.69147      0              2698.2089      19.896898      20.107908      20.321606      0              0              0              8130.3695      2643.477       4153.0131      1298.1368     -17.739355     -808.0955       990.11725      19.896898      20.107908      20.321606      90             90             90           
    384500   241.90069     -160.78972     -130.42838     -160.78972      0              5147.6856      20.158991      19.844165      20.360223      0              0              0              8144.8702      5580.4092      3470.6484      6391.999      -225.29563     -1872.6648     -3817.0625      20.158991      19.844165      20.360223      90             90             90           
    385000   246.99135     -162.32383     -131.32355     -162.32383      0              3101.535       20.211994      19.934666      20.318289      0              0              0              8186.6318     -1540.7273      5581.2439      5264.0883      234.46812      2023.921       640.00197      20.211994      19.934666      20.318289      90             90             90           
    385500   243.89038     -161.40875     -130.79768     -161.40875      0              2325.1918      19.974671      20.104853      20.243441      0              0              0              8129.5193      3664.4327     -1943.9913      5255.1341     -223.70313      7.3954101      417.48334      19.974671      20.104853      20.243441      90             90             90           
    386000   248.59514     -160.95982     -129.75825     -160.95982      0              6146.2539      19.946397      20.115483      20.286936      0              0              0              8139.7558      5573.8424      7799.608       5065.3113      1655.76        1401.7299      450.51175      19.946397      20.115483      20.286936      90             90             90           
    386500   253.89373     -160.18629     -128.31968     -160.18629      0              6293.2267      20.113624      19.956664      20.398037      0              0              0              8187.7891      11241.911      2839.9135      4797.8553      1288.3045     -1655.8491     -299.02664      20.113624      19.956664      20.398037      90             90             90           
    387000   250.19613     -161.03741     -129.63489     -161.03741      0              3145.057       20.201912      19.818935      20.399925      0              0              0              8167.7296      2468.4779      2673.84        4292.8531     -734.62286      1106.554       770.94468      20.201912      19.818935      20.399925      90             90             90           
    387500   247.59951     -159.84398     -128.76737     -159.84398      0              4270.257       20.063073      19.968428      20.319117      0              0              0              8140.4078      6278.9533      1168.5864      5363.2314      851.64009      973.09385     -632.82019      20.063073      19.968428      20.319117      90             90             90           
    388000   241.64344     -162.18104     -131.85199     -162.18104      0              5126.5192      19.935996      20.184487      20.249512      0              0              0              8148.3601      2923.6604      5281.9767      7173.9206     -1120.73        67.194822      1535.402       19.935996      20.184487      20.249512      90             90             90           
    388500   236.07655     -161.25921     -131.62886     -161.25921      0              9697.5796      19.931375      20.076813      20.223995      0              0              0              8092.8033      9097.0101      7724.2873      12271.441      1362.5549      1306.1117     -1871.9074      19.931375      20.076813      20.223995      90             90             90           
    389000   246.1403      -162.2531      -131.35964     -162.2531       0              4244.9639      20.158625      19.923178      20.350074      0              0              0              8173.0759      3691.0948      2007.1283      7036.6685     -1217.1612     -545.6334      -2409.3818      20.158625      19.923178      20.350074      90             90             90           
    389500   238.67486     -160.99446     -131.03799     -160.99446      0              4437.3942      20.144961      19.780777      20.392585      0              0              0              8126.0981      5305.9995      5670.6581      2335.525       278.97433     -2644.2156      1273.8049      20.144961      19.780777      20.392585      90             90             90           
    390000   240.06966     -161.93026     -131.79873     -161.93026      0              5241.6236      20.020474      19.956148      20.367849      0              0              0              8137.5984      3750.0144      7371.0437      4603.8127     -1421.8888      205.6041       3333.1474      20.020474      19.956148      20.367849      90             90             90           
    390500   249.13111     -160.77247     -129.50362     -160.77247      0              4398.9396      19.960914      20.131669      20.231885      0              0              0              8130.1125      4486.7792      3053.6071      5656.4324      1618.4746     -799.31235      643.36732      19.960914      20.131669      20.231885      90             90             90           
    391000   251.32684     -159.47593     -127.9315      -159.47593      0              5131.0753      20.093571      20.066973      20.227143      0              0              0              8155.9307      6611.4579      3035.3075      5746.4605     -2374.6718      1227.6786     -1398.3111      20.093571      20.066973      20.227143      90             90             90           
    391500   264.80005     -159.48164     -126.24617     -159.48164      0              6058.9633      20.105381      19.936282      20.339754      0              0              0              8152.7131      7038.6901      5244.3074      5893.8924      674.30234      2088.8459     -754.95942      20.105381      19.936282      20.339754      90             90             90           
    392000   235.80936     -161.72867     -132.13186     -161.72867      0              2244.3399      20.05709       19.92737       20.490937      0              0              0              8189.921       234.53446      3671.3607      2827.1246     -496.03511      1547.55        2076.4542      20.05709       19.92737       20.490937      90             90             90           
    392500   244.36963     -161.97032     -131.2991      -161.97032      0              3958.966       19.924358      19.955378      20.368979      0              0              0              8098.6672      5272.9675      3238.29        3365.6405     -115.78743     -357.19681     -783.16105      19.924358      19.955378      20.368979      90             90             90           
    393000   255.00748     -161.26494     -129.25854     -161.26494      0              6735.7033      20.057775      20.029192      20.235684      0              0              0              8129.5046      4377.9496      7304.9508      8524.2097     -422.98424      162.45615      1545.1545      20.057775      20.029192      20.235684      90             90             90           
    393500   264.72083     -159.88673     -126.6612      -159.88673      0              5896.0531      20.277475      20.08873       20.220158      0              0              0              8236.6553      6105.8511      7771.7063      3810.6019     -1954.0922     -608.82321      238.26836      20.277475      20.08873       20.220158      90             90             90           
    394000   249.18108     -161.04715     -129.77203     -161.04715      0              10434.375      20.068449      19.946154      20.133474      0              0              0              8059.1957      8796.3249      10430.353      12076.449      1243.4313      2108.1862      2141.2299      20.068449      19.946154      20.133474      90             90             90           
    394500   238.28768     -160.93475     -131.02688     -160.93475      0              6113.2826      19.914958      20.089782      20.414838      0              0              0              8167.7146      8864.1266      4617.515       4858.2062      158.42132      1674.0746     -1401.5268      19.914958      20.089782      20.414838      90             90             90           
    395000   248.819       -160.16089     -128.93122     -160.16089      0              2113.4794      19.871244      20.024469      20.577474      0              0              0              8188.0055      5594.7564     -917.70106      1663.3829      714.62351     -1827.4435     -152.30139      19.871244      20.024469      20.577474      90             90             90           
    395500   246.90926     -162.08586     -131.09589     -162.08586      0              5344           19.991861      19.77032       20.437426      0              0              0              8077.8008      5680.1845      6136.9851      4214.8305     -1757.2893      2107.0267     -35.22153       19.991861      19.77032       20.437426      90             90             90           
    396000   247.43943     -162.54603     -131.48951     -162.54603      0              5515.6521      20.267066      19.985731      20.201648      0              0              0              8182.7209      2585.3972      9693.3766      4268.1827      1061.3207      894.94849      2489.6501      20.267066      19.985731      20.201648      90             90             90           
    396500   242.05494     -162.14107     -131.76037     -162.14107      0              2272.0124      20.105451      20.192479      19.970525      0              0              0              8107.6118      1481.3386      206.58229      5128.1163     -698.10631     -4234.4661      3643.7063      20.105451      20.192479      19.970525      90             90             90           
    397000   242.32246     -160.07264     -129.65836     -160.07264      0              7038.3417      19.996663      20.117389      20.143777      0              0              0              8103.4521      9050.5905      5173.4151      6891.0195     -846.88774      416.22013      555.9982       19.996663      20.117389      20.143777      90             90             90           
    397500   241.17416     -160.0491      -129.77895     -160.0491       0              7121.3222      20.1215        19.899774      20.430292      0              0              0              8180.5607      3850.6737      9510.6359      8002.657      -299.20314     -1679.7963      2379.0183      20.1215        19.899774      20.430292      90             90             90           
    398000   243.42701     -160.38593     -129.83301     -160.38593      0              7118.7123      20.070631      19.834758      20.457181      0              0              0              8143.9243      6977.6452      4301.4061      10077.086     -1756.09        1388.9917     -1835.0184      20.070631      19.834758      20.457181      90             90             90           
    398500   252.78528     -160.72404     -128.99655     -160.72404      0              7341.5597      19.978747      20.072224      20.29163       0              0              0              8137.3065      4263.0038      7265.6501      10496.025     -971.16079      714.67977     -1266.3841      19.978747      20.072224      20.29163       90             90             90           
    399000   241.60118     -163.45328     -133.12953     -163.45328      0              5305.6446      19.995566      20.184142      20.176598      0              0              0              8143.1409      5153.5126      4466.4928      6296.9282      376.00392      2178.2916     -2325.4011      19.995566      20.184142      20.176598      90             90             90           
    399500   245.2319      -161.76845     -130.989       -161.76845      0              6848.8323      20.045861      20.050163      20.210724      0              0              0              8123.1499      4294.2704      7967.1074      8285.1189     -443.00345      1576.4829     -1068.2658      20.045861      20.050163      20.210724      90             90             90           
    400000   236.75147     -161.27053     -131.55548     -161.27053      0              4028.9634      20.077231      19.895337      20.385163      0              0              0              8142.7162      7680.8052      694.48838      3711.5965      1838.5431      890.27191     -257.0258       20.077231      19.895337      20.385163      90             90             90           
Loop time of 1386.24 on 1 procs for 400000 steps with 972 atoms

Performance: 12.465 ns/day, 1.925 hours/ns, 288.550 timesteps/s
106.1% CPU use with 1 MPI tasks x no OpenMP threads

MPI task timing breakdown:
Section |  min time  |  avg time  |  max time  |%varavg| %total
---------------------------------------------------------------
Pair    | 1061.6     | 1061.6     | 1061.6     |   0.0 | 76.58
Bond    | 0.049272   | 0.049272   | 0.049272   |   0.0 |  0.00
Neigh   | 235.33     | 235.33     | 235.33     |   0.0 | 16.98
Comm    | 11.338     | 11.338     | 11.338     |   0.0 |  0.82
Output  | 53.442     | 53.442     | 53.442     |   0.0 |  3.86
Modify  | 22.803     | 22.803     | 22.803     |   0.0 |  1.64
Other   |            | 1.706      |            |       |  0.12

Nlocal:            972 ave         972 max         972 min
Histogram: 1 0 0 0 0 0 0 0 0 0
Nghost:           4636 ave        4636 max        4636 min
Histogram: 1 0 0 0 0 0 0 0 0 0
Neighs:              0 ave           0 max           0 min
Histogram: 1 0 0 0 0 0 0 0 0 0
FullNghs:       248886 ave      248886 max      248886 min
Histogram: 1 0 0 0 0 0 0 0 0 0

Total # of neighbors = 248886
Ave neighs/atom = 256.05556
Ave special neighs/atom = 0
Neighbor list builds = 40000
Dangerous builds not checked

unfix		3
unfix		2

write_data	data.final.${pid}
write_data	data.final.0
System init for write_data ...
Generated 0 of 1 mixed pair_coeff terms from geometric mixing rule

write_restart   restart.lmp.${pid}
write_restart   restart.lmp.0
System init for write_restart ...
Generated 0 of 1 mixed pair_coeff terms from geometric mixing rule
Total wall time: 0:23:27
