LAMMPS data file via write_data, version 29 Sep 2021, timestep = 400000

972 atoms
2 atom types

-0.10440358488707702 20.095456584886243 xlo xhi
-0.05241747728609347 20.043470477286302 ylo yhi
0.02989931095264886 20.770872689047035 zlo zhi

Masses

1 1.008
2 15.999

Atoms # full

2 0 2 0 2.2774182757830004 2.3733246254255946 0.8502515357363487 0 0 0
31 0 1 0 0.9363866264206111 1.956399903544194 1.9585121365739488 0 0 0
32 0 2 0 0.6502097478230603 1.1072910895100543 2.375138313498348 0 0 0
33 0 2 0 0.9869100868705858 2.590697713270806 2.6939159060703597 0 0 0
5 0 2 0 3.091467026113921 1.1981381552590773 3.352020843942441 0 0 0
10 0 1 0 1.2319791568533671 3.8833786272001913 3.633617327128727 0 0 0
1 0 1 0 2.9991744875313335 2.600455452162537 0.2148827358226497 0 0 0
35 0 2 0 4.755785110922 2.5340675521363623 0.5309688963124023 0 0 0
18 0 2 0 4.095213195227498 3.278844510640524 3.2805509545113476 0 0 0
4 0 1 0 3.955654541543729 1.432580989216873 2.96262885308442 0 0 0
36 0 2 0 6.183967126608607 2.5474953315334767 1.0706656535856136 0 0 0
67 0 1 0 7.678297480470516 1.9965475899348424 1.9715695588844764 0 0 0
6 0 2 0 4.627058510112218 1.148006962649296 3.6022296011886774 0 0 0
68 0 2 0 7.970558308943653 2.429745840588567 2.7917623864730614 0 0 0
34 0 1 0 5.676767017346748 2.5749213950878302 0.2567660507361735 0 0 0
69 0 2 0 8.395095101434555 2.095097690016859 1.3533513742307883 0 0 0
40 0 1 0 10.759301465574273 1.10741224374961 3.3936075749092742 0 0 0
54 0 2 0 10.758352719549615 3.033098691037377 3.512206190322379 0 0 0
41 0 2 0 9.997786748181854 1.0292704363532277 3.988383103230191 0 0 0
42 0 2 0 11.51287145674969 0.8941240867174429 3.9334237554186036 0 0 0
39 0 2 0 10.716433865512517 2.543382556859045 0.3110848328934107 0 0 0
266 0 2 0 11.18532443923555 0.06430893031355805 1.9195574718360284 0 1 0
37 0 1 0 9.796340924315471 2.8137172303489892 0.11734670032384358 0 0 0
70 0 1 0 12.353642319727756 2.473536761259033 0.4364266465793736 0 0 0
72 0 2 0 13.08503343485367 2.281660064597319 1.080606097149016 0 0 0
103 0 1 0 14.775514692018143 2.25194660337297 2.2407089448138002 0 0 0
105 0 2 0 14.611491492226277 1.3095698724520188 2.3503093279420844 0 0 0
84 0 2 0 14.88158212149118 3.523601097095642 3.561520662409157 0 0 0
104 0 2 0 15.37247582427819 2.453338691426388 1.420991914941613 0 0 0
73 0 1 0 16.292811860210012 2.943771943814399 0.15867693699152285 0 0 0
108 0 2 0 19.642369967195442 2.38374753243216 0.8371607383002002 0 0 0
76 0 1 0 17.764818059882884 1.241799283033786 3.0611682216552527 0 0 0
77 0 2 0 17.676622917213685 0.5525630184146979 2.431473679967601 0 0 0
89 0 2 0 17.93584627076641 3.049376638526172 3.174736433224167 0 0 0
107 0 2 0 18.104738617978615 2.3818371374068366 0.5427633513991892 0 0 0
106 0 1 0 18.983387818727376 2.6187458740014677 0.1796081081142756 0 0 0
78 0 2 0 18.340266960658937 0.92041060753768 3.7581161318072103 0 0 0
20 0 2 0 0.678239303246831 5.457170029833875 2.6099651094847816 0 0 0
19 0 1 0 0.9312976360287051 6.12504958342918 1.954778727784468 0 0 0
21 0 2 0 0.9278295490619588 7.02251159690661 2.3214932324552917 0 0 0
675 0 2 0 1.7594795682353084 5.331191297235734 0.5155139193058266 0 0 1
12 0 2 0 2.1870464275648875 4.135506601963355 3.7992802465387996 0 0 0
131 0 2 0 2.0871669681244174 7.456912703136658 4.072252903762318 0 0 0
16 0 1 0 3.884240746652892 4.122872049330245 3.5998617394015024 0 0 0
14 0 2 0 3.822515918319533 5.927881083129384 0.8507751725641161 0 0 0
17 0 2 0 4.185731763981466 4.744019769274099 2.884851760781705 0 0 0
112 0 1 0 4.040793740817366 7.955639273437592 3.4416506604669985 0 0 0
114 0 2 0 4.276422302563919 7.51598408276898 2.6230084434033727 0 0 0
13 0 1 0 4.387116647292062 6.033196335713213 1.6241176275875835 0 0 0
15 0 2 0 5.305574026324688 5.917127601524213 1.4035035000391143 0 0 0
55 0 1 0 6.8237655826191705 5.401827214357641 1.85241777141013 0 0 0
177 0 2 0 7.317869443415815 7.918418734973549 2.93632327667487 0 0 0
113 0 2 0 4.5470541709797905 7.593426203203588 4.145737985216604 0 0 0
56 0 2 0 7.104187029433198 4.849753655860275 2.586701566934951 0 0 0
57 0 2 0 7.605592061343438 5.310451320163078 1.2331883502503027 0 0 0
46 0 1 0 7.983990360224688 3.973667795258244 3.941958467179532 0 0 0
52 0 1 0 10.784073824866018 4.031563022278303 3.597267254741044 0 0 0
51 0 2 0 11.051560993975944 5.051087147607999 2.2255245464319673 0 0 0
50 0 2 0 10.428645922884648 5.63562358826481 0.9121149335959597 0 0 0
49 0 1 0 11.237421064907643 5.663506795779995 1.4788271936697448 0 0 0
150 0 2 0 10.939072779265413 7.090179783374171 2.310720658077744 0 0 0
149 0 2 0 9.94709257294386 7.496137755666223 3.484298240286006 0 0 0
148 0 1 0 10.731180239154773 7.802863055720595 2.9989846901322728 0 0 0
82 0 1 0 15.093945793640685 4.397182762587787 3.9317153161487712 0 0 0
83 0 2 0 14.685602289250053 5.01925392979471 3.366205938476329 0 0 0
91 0 1 0 13.90277713280927 6.236721946638555 1.9976857126216507 0 0 0
92 0 2 0 13.976127648076535 7.227397680465499 2.0402709164606128 0 0 0
93 0 2 0 13.110063309732245 6.078726801574935 1.4521652295578853 0 0 0
747 0 2 0 15.358386686858154 5.696951253994233 0.8167872979673855 0 0 1
745 0 1 0 15.968257885935888 5.560717032876933 0.05994553601775823 0 0 1
88 0 1 0 17.787550504197263 4.00645941550785 3.3055051500618493 0 0 0
90 0 2 0 16.87180845907634 4.247391969924088 3.5214170666583238 0 0 0
86 0 2 0 18.051497914628722 5.298882635522538 1.9258870774514347 0 0 0
85 0 1 0 18.19890741485017 6.068619905200688 1.360764735497417 0 0 0
87 0 2 0 19.199837182155512 6.082607309654071 1.2578209040989525 0 0 0
185 0 2 0 17.455097596867535 7.565108100422331 2.3880135877957662 0 0 0
746 0 2 0 16.803142863314328 6.000683545637457 0.40138640290614325 0 0 1
184 0 1 0 17.350768587342802 7.958907624318741 3.2698071976650334 0 0 0
139 0 1 0 0.7253484813172828 8.842092990755429 2.05348354707658 0 0 0
141 0 2 0 1.514136279244908 8.978619313592981 1.4537671468282414 0 0 0
119 0 2 0 0.892302032228887 9.91365133286833 3.3677547286563927 0 0 0
110 0 2 0 3.6319388771998478 8.9370800745291 0.25456933153770955 0 0 0
109 0 1 0 2.643257258447179 8.933814229304367 0.2202461262434423 0 0 0
118 0 1 0 1.1439465330433023 10.587097700283357 4.071544362629862 0 0 0
120 0 2 0 2.093880268106756 10.596579574777916 4.0485750387827295 0 0 0
140 0 2 0 -0.08260369259166904 8.766242012570215 1.479396463787862 0 0 0
129 0 2 0 0.7845251606669194 11.736386865991058 2.816108986431463 0 0 0
782 0 2 0 1.513469167432456 11.845032035418543 0.7045612192996938 0 0 1
124 0 1 0 4.173434847996323 10.653350525482324 3.5092266991159815 0 0 0
126 0 2 0 4.28458468503101 9.72668210162936 3.308299885569619 0 0 0
175 0 1 0 7.403878169558065 8.727251801748265 2.4052007634891654 0 0 0
176 0 2 0 6.600863312181101 8.821574562983772 1.8428134801119755 0 0 0
142 0 1 0 5.2901123792551745 9.244518066313626 0.35186580641731513 0 0 0
155 0 2 0 7.817077497285222 10.123171761200616 3.417640584425294 0 0 0
156 0 2 0 7.941161233350115 11.644319215339666 3.6342867146554436 0 0 0
122 0 2 0 4.353797353372028 11.863606112954395 2.0872775090786235 0 0 0
143 0 2 0 6.008741721235948 9.853132172845264 0.13985503283176004 0 0 0
154 0 1 0 8.001912168868243 10.794455428621475 4.0717643531393195 0 0 0
147 0 2 0 8.75140947845955 9.115742226550239 1.1381556648007596 0 0 0
161 0 2 0 9.89093365073764 10.535867782080771 4.1348290586088465 0 0 0
162 0 2 0 10.878529380886127 9.552487070626269 3.366229844378407 0 0 0
179 0 2 0 10.965299756870387 8.934453657231694 0.21123098757329842 0 0 0
160 0 1 0 10.799684810997872 10.462544507970346 3.6785582553821383 0 0 0
178 0 1 0 11.93050148492969 8.96842251610913 0.07515018883952962 0 0 0
158 0 2 0 11.027255394926602 11.711586299571305 2.3221663780314756 0 0 0
145 0 1 0 9.254442892820297 9.484216221909303 0.37256359409921186 0 0 0
146 0 2 0 9.01217437199415 10.418271683446228 0.10786439363441903 0 0 0
211 0 1 0 13.948356568425226 9.049562893600406 1.8747544501842908 0 0 0
212 0 2 0 14.107995310874363 9.582397022187402 2.6395753372281896 0 0 0
213 0 2 0 13.124044540267619 9.276318246286335 1.4671331165209478 0 0 0
190 0 1 0 14.409648091425995 11.06330822299071 3.6692171441206343 0 0 0
191 0 2 0 14.20308099717181 11.740843120407606 2.949432566717109 0 0 0
183 0 2 0 15.20499284819192 9.016053224432886 0.6406263211554261 0 0 0
192 0 2 0 15.350285272201278 11.076734272354896 3.7421239346673767 0 0 0
181 0 1 0 15.946686231500003 9.271564395485363 0.05271201459337134 0 0 0
186 0 2 0 17.439250905222412 8.903510499275699 3.083411659969201 0 0 0
197 0 2 0 17.43904250462048 11.311092708246589 3.00575727035437 0 0 0
196 0 1 0 17.164771182806835 10.80759105786853 3.786458051011216 0 0 0
216 0 2 0 17.866252806252177 8.94477927114843 0.4219329090707975 0 0 0
214 0 1 0 18.81748931769759 8.902422044520566 0.4258975107684394 0 0 0
127 0 1 0 0.6194702983103398 12.25627994617917 2.0147134080182916 0 0 0
249 0 2 0 0.5592773326027108 14.106429484460389 2.0095058742014773 0 0 0
221 0 2 0 3.12046193815707 14.27831950632181 3.7597550484377242 0 0 0
247 0 1 0 0.7698150939443172 15.057125801604696 2.0270000827286823 0 0 0
218 0 2 0 1.9792652929076113 15.489866526252108 0.8478099963692745 0 0 0
220 0 1 0 3.8552614207231235 14.68803450294398 3.3156430190597166 0 0 0
222 0 2 0 3.9144526509951447 14.14921222076544 2.544294213247466 0 0 0
123 0 2 0 3.79305466028104 12.173265881085374 0.7584302055970795 0 0 0
248 0 2 0 0.03846494481136578 15.480511160843136 1.6197114104608035 0 0 0
217 0 1 0 2.4286294053481656 15.998476429795671 0.114894221379862 0 0 0
121 0 1 0 4.478227813103537 12.500965191775023 1.359976905420851 0 0 0
165 0 2 0 6.444256732477393 12.56640470011658 1.8790845881874765 0 0 0
163 0 1 0 7.344110626473085 12.799586573523007 2.142649846951171 0 0 0
164 0 2 0 7.360898629679991 13.821285477311305 2.048301449391348 0 0 0
283 0 1 0 7.541522111019708 15.401643737681164 2.0013628605477045 0 0 0
284 0 2 0 6.8138085566892475 15.886884737752624 1.7453088278245363 0 0 0
818 0 2 0 9.873316522777182 12.505027452804 0.6165403330388264 0 0 1
819 0 2 0 8.384719203830866 12.519363117704449 0.7801396594431979 0 0 1
285 0 2 0 8.160841810409211 15.380298060757756 1.2529831216450027 0 0 0
258 0 2 0 9.92212785929386 14.706896532594168 3.6666340046706876 0 0 0
157 0 1 0 11.279482623510402 12.484613671315078 1.784385681298412 0 0 0
159 0 2 0 10.909231375018493 13.252347429874657 2.2479537119810002 0 0 0
256 0 1 0 10.79488701869399 14.822311557379923 3.20519510240756 0 0 0
257 0 2 0 10.809638308727106 15.758398438084596 3.0465892574868487 0 0 0
255 0 2 0 10.431767535336071 15.553569545305047 0.1646800119989828 0 0 0
817 0 1 0 9.077600867555473 12.270014321118826 0.15451619307498918 0 0 1
855 0 2 0 15.169677093813977 12.279027383197485 0.2738349681116653 0 0 1
199 0 1 0 13.91777782201835 12.890332079876686 1.6998019179831017 0 0 0
200 0 2 0 12.969292236756925 12.845237628019149 1.745766391537455 0 0 0
201 0 2 0 14.243827947695644 13.73431861112592 1.9907926608941882 0 0 0
319 0 1 0 14.232607109185333 15.470801948950326 2.075813000646646 0 0 0
291 0 2 0 15.656728547104969 15.914782114414718 0.900952772491456 0 0 0
320 0 2 0 13.466610984669702 15.668716410538375 1.574285897783155 0 0 0
286 0 1 0 12.13761442460985 15.758741630159566 0.485362111198947 0 0 0
128 0 2 0 19.894456011182317 12.088571066428786 1.7327483123912144 -1 0 0
195 0 2 0 17.32176782657822 12.409972457567386 1.165313576031654 0 0 0
193 0 1 0 18.032028488650873 12.267936147533723 1.8138354391994835 0 0 0
194 0 2 0 17.90896928373926 12.983462378284779 2.465334239853789 0 0 0
292 0 1 0 17.23005960861099 14.124049523276009 3.493063504548065 0 0 0
294 0 2 0 16.513866219803464 13.965965949076923 4.13440398059772 0 0 0
293 0 2 0 17.48215014547739 15.062591225454309 3.5790851464626607 0 0 0
227 0 2 0 1.154040563565195 16.364361799877273 3.651243165372983 0 0 0
235 0 1 0 0.49476962595020746 19.258301828654446 1.5271785674432998 0 0 0
236 0 2 0 0.7139810969777258 18.58934241703998 2.254633680876985 0 0 0
237 0 2 0 1.1525048169177678 18.99349064452943 0.8618489005424128 0 0 0
226 0 1 0 1.2045264058253138 17.256936505289936 3.9624698205985975 0 0 0
891 0 2 0 3.802817938646961 18.739097959493364 0.4143290465942118 0 0 1
228 0 2 0 2.160387242481433 17.41648784510143 4.016273134691632 0 0 0
272 0 2 0 7.693713834205532 20.004096671835548 2.2012620270143564 0 0 0
230 0 2 0 4.484094913413548 20.022276285457387 2.1981735253279755 0 0 0
232 0 1 0 4.026878447008207 17.266470738681157 3.7325065750266173 0 0 0
251 0 2 0 4.3516335161483255 16.169204979736335 0.27725331951307075 0 0 0
233 0 2 0 4.104788725181866 16.328220284033733 3.4481442689625923 0 0 0
250 0 1 0 5.285388525417311 16.363885365466736 0.3562571471475353 0 0 0
234 0 2 0 4.2344794907057866 17.854299311135733 2.8860221544078315 0 0 0
229 0 1 0 4.84706345410547 19.230801080383266 1.7988174500088299 0 0 0
231 0 2 0 5.835000970972804 19.168026187503933 1.95773478605002 0 0 0
271 0 1 0 7.468766730419237 19.093450016775527 1.9645880188589449 0 0 0
273 0 2 0 7.722679892370516 18.458555955687615 2.7029034256472544 0 0 0
263 0 2 0 7.960033502321446 16.56238853622846 3.2767920172284666 0 0 0
262 0 1 0 8.029474886008465 17.40613651734469 3.7781947137030114 0 0 0
927 0 2 0 8.559238965987513 18.916423338789002 0.5555815370080013 0 0 1
265 0 1 0 11.391153049078879 19.34156924655673 1.3889213443334005 0 0 0
267 0 2 0 10.61059449849856 19.02194641294986 0.8184798814414956 0 0 0
269 0 2 0 11.13175453553278 18.209842016898087 3.0164865772013925 0 0 0
268 0 1 0 10.908840258005297 17.60309509083781 3.736756184134969 0 0 0
264 0 2 0 8.96911235240692 17.608402611284795 3.94391221693113 0 0 0
321 0 2 0 14.425153382386512 16.236231567756604 2.6830923821705133 0 0 0
307 0 1 0 14.222548635535766 19.728647020763972 2.0967636475796247 0 0 0
308 0 2 0 13.392706577520634 19.490015382327414 1.6539310643265728 0 0 0
309 0 2 0 14.407435904234966 18.994435239535946 2.6127283018859333 0 0 0
298 0 1 0 14.820415059318163 17.505467004389757 3.46967139790873 0 0 0
963 0 2 0 15.17090724506805 19.061022250439542 0.5820044287524675 0 0 1
300 0 2 0 15.751889939327834 17.3055882312793 3.6143357016208526 0 0 0
322 0 1 0 19.001349321992357 16.366286782047915 0.251882093873228 0 0 0
290 0 2 0 17.182843604004148 16.35219841736329 0.3462779666481864 0 0 0
301 0 1 0 17.960728070860746 19.17566648475332 1.5987057905205526 0 0 0
302 0 2 0 17.263929863449157 19.059002882587798 0.9474139474567194 0 0 0
303 0 2 0 18.87773967433643 19.131839627541645 1.313109713445158 0 0 0
306 0 2 0 17.73577750599129 17.58528687160387 2.9090663589045014 0 0 0
304 0 1 0 17.56786943939368 16.969817419738142 3.5723595743973884 0 0 0
289 0 1 0 16.21314830382279 16.204104281954656 0.11403474321387899 0 0 0
22 0 1 0 1.9660596697781951 0.7310637750486806 4.783850931543814 0 0 0
23 0 2 0 1.8701242477776179 1.4158649488468935 5.4322187385603815 0 0 0
325 0 1 0 2.2097068384475045 2.65729882175185 7.132978540660288 0 0 0
327 0 2 0 2.079156008845119 3.519206560826842 6.778286299882236 0 0 0
101 0 2 0 0.18481470096568536 0.7175656992652183 4.834857904467275 1 0 0
326 0 2 0 3.142382849953354 2.4193913729346135 7.191317637754477 0 0 0
24 0 2 0 2.189090124446573 -0.02510144282957003 5.355090008628059 0 0 0
356 0 2 0 1.2364697406119745 2.093149723407181 8.277374630757482 0 0 0
29 0 2 0 6.639823310997426 1.2705634427079746 4.884920025641156 0 0 0
28 0 1 0 5.697497893641577 0.9692105605114978 4.974905573827676 0 0 0
358 0 1 0 4.78988011283346 2.1741617760638476 7.312994102470563 0 0 0
359 0 2 0 5.180878553852061 1.8714596959318295 6.411764489233774 0 0 0
360 0 2 0 5.592046334531337 2.2032435301882263 7.865683310606766 0 0 0
30 0 2 0 5.708466885649572 0.05665349672125841 5.4605975608745485 0 0 0
58 0 1 0 8.462546446839418 1.0215004338900981 5.160647152823576 0 0 0
59 0 2 0 8.792930195200059 1.760795180952439 5.715509331751032 0 0 0
361 0 1 0 9.601527200445254 2.88824324429317 6.9709706833791385 0 0 0
363 0 2 0 9.659228155976415 3.876883265096157 6.806713782131491 0 0 0
362 0 2 0 10.510974110348837 2.619186546857954 7.348114420791184 0 0 0
392 0 2 0 8.085838972104906 2.415117564379375 8.028147172542148 0 0 0
60 0 2 0 8.69531939940345 0.21397530994112013 5.722738741669378 0 0 0
394 0 1 0 12.291074141621182 2.58678896094959 7.458162842091929 0 0 0
396 0 2 0 12.683301854546912 3.2907303472289775 6.963310226471545 0 0 0
66 0 2 0 12.72259568879408 1.052526907432819 6.288090384905823 0 0 0
64 0 1 0 13.024435282662441 0.6934942834399779 5.428377814155242 0 0 0
65 0 2 0 13.982980170944908 0.9503251898724538 5.275430875809114 0 0 0
94 0 1 0 15.860638974528214 0.9852477775230122 5.062022349782024 0 0 0
395 0 2 0 12.854902182650006 2.519497048644058 8.215263233714941 0 0 0
95 0 2 0 15.75599425823 1.7718025804219335 5.633565349698279 0 0 0
399 0 2 0 15.795565215219527 3.907290417280043 6.898075478201945 0 0 0
357 0 2 0 19.895279110984788 2.1710010726757414 8.23244767905842 -1 0 0
96 0 2 0 16.224779783452295 1.2401646555724 4.238725035750602 0 0 0
397 0 1 0 16.055719806908733 2.944564433992425 6.897544686731764 0 0 0
100 0 1 0 19.425573682829114 0.5289939063047696 4.993593780357947 0 0 0
398 0 2 0 17.038499200716863 2.8993033771523926 7.017190540247882 0 0 0
430 0 1 0 18.718332918442325 2.4596153925284634 6.907210188641757 0 0 0
431 0 2 0 18.957513462371057 1.758287685666029 6.321543074844444 0 0 0
432 0 2 0 18.853958617056332 3.3306090942147906 6.443664291242303 0 0 0
11 0 2 0 0.6926265918342994 4.012194962402576 4.387802672258373 0 0 0
25 0 1 0 2.002246638737917 5.330626382983099 6.75737173590346 0 0 0
26 0 2 0 2.013485495124234 6.015422964786521 6.0832223767802835 0 0 0
27 0 2 0 2.7429683010215373 5.523017116712549 7.328240605525552 0 0 0
130 0 1 0 1.646578203835808 7.374497228521163 4.923761451883838 0 0 0
132 0 2 0 0.7120316773995399 7.459904886201719 4.827795822211729 0 0 0
344 0 2 0 0.6814314964640159 5.403753248324599 8.037388758050616 0 0 0
8 0 2 0 5.280294339941537 4.214832992539533 6.627383857834992 0 0 0
48 0 2 0 7.46967745266376 4.216505918807952 4.707147479600303 0 0 0
9 0 2 0 5.047327799198366 4.185813475069678 5.116133011960486 0 0 0
7 0 1 0 5.709382799615214 4.5110254400034115 5.788681896781573 0 0 0
136 0 1 0 5.7523783726773 7.203143196764324 5.390262478552305 0 0 0
137 0 2 0 5.669604539836307 6.230861309178059 5.411526766286522 0 0 0
138 0 2 0 6.690984976111608 7.398278196710519 5.1702508657425215 0 0 0
339 0 2 0 5.119382512082089 6.056307342785274 8.268798332730974 0 0 0
53 0 2 0 11.434898003598573 4.108209983693007 4.3058360993035 0 0 0
47 0 2 0 8.936722955296611 4.188545435103912 4.1876250290421835 0 0 0
61 0 1 0 9.119607074808865 5.5221017074394005 6.625319775813311 0 0 0
63 0 2 0 8.476629917674222 5.538988686176217 7.372515051096305 0 0 0
167 0 2 0 8.989748719773758 6.673404425566341 5.2583474738272225 0 0 0
166 0 1 0 8.707181172881954 7.437348919342765 4.770739162668319 0 0 0
62 0 2 0 9.898774962475343 5.911608599606664 7.0416408525536065 0 0 0
173 0 2 0 12.139811447518811 7.73605028658461 4.295794549889283 0 0 0
44 0 2 0 13.535437662585624 4.796132093994044 5.142703596928057 0 0 0
43 0 1 0 12.71435561730235 4.915706704759289 5.662000104148743 0 0 0
45 0 2 0 12.605559168857624 5.886561002416629 5.795318508128296 0 0 0
172 0 1 0 12.54447280646172 7.952567490106645 5.174742340975311 0 0 0
174 0 2 0 13.500943784950904 7.924620462090871 5.011293228704317 0 0 0
416 0 2 0 14.238291015538888 5.607008399265605 8.069799945596992 0 0 0
202 0 1 0 15.482341676919962 7.63476181773662 5.0770488292451645 0 0 0
99 0 2 0 15.650215881574313 6.267222186927247 6.129335233474129 0 0 0
97 0 1 0 15.604276565088387 5.687775269282524 6.930840605801105 0 0 0
204 0 2 0 15.970124323077801 7.7859782118514085 4.265387956200692 0 0 0
209 0 2 0 18.645617998237675 7.797779590634819 4.662337130552337 0 0 0
81 0 2 0 18.66661170805836 4.7298178729042455 4.76827969720177 0 0 0
79 0 1 0 19.34641842606914 4.838634643198236 5.481306433155729 0 0 0
80 0 2 0 19.278682336306634 5.784013702927825 5.741426110442613 0 0 0
98 0 2 0 16.367237630670672 5.911225880711958 7.5037828523829955 0 0 0
208 0 1 0 19.1951514011065 7.582225821242273 5.417009793378467 0 0 0
433 0 1 0 2.327762240348795 9.178635045550278 7.090894128897297 0 0 0
435 0 2 0 2.029635034160743 8.658468660712249 6.33424771386257 0 0 0
434 0 2 0 3.2632337509077933 8.904286929506116 7.0251048849810696 0 0 0
135 0 2 0 2.5029612320165135 11.009933779147419 6.946544265910542 0 0 0
133 0 1 0 2.5015283702654014 11.969150689460115 6.755079772356017 0 0 0
189 0 2 0 0.037385114367180394 10.819641638996806 5.158614482788394 1 0 0
125 0 2 0 4.471561612090441 10.847871240988868 4.418427237469644 0 0 0
468 0 2 0 5.187805895642768 8.53609635206835 6.611806351706022 0 0 0
466 0 1 0 4.915695259227539 9.18776076978204 7.271538367020606 0 0 0
467 0 2 0 5.066909391299609 10.019763853071229 6.847772584868715 0 0 0
115 0 1 0 5.661068644066571 11.329356896452703 5.799361889497765 0 0 0
116 0 2 0 6.473940919297899 10.928119800113446 5.3897652047083975 0 0 0
501 0 2 0 6.244113993608606 8.90121768080582 8.197880666444203 0 0 0
500 0 2 0 7.811808913837268 8.777286020502205 8.18676395675424 0 0 0
168 0 2 0 8.908796522053681 8.227440724722502 5.356499624101123 0 0 0
469 0 1 0 9.028144507348983 9.12707781574204 7.093370813233176 0 0 0
471 0 2 0 10.013459760412136 8.958896504168802 7.164231851787986 0 0 0
470 0 2 0 9.062323111258818 10.080581824054317 7.051147915994262 0 0 0
502 0 1 0 11.717521238425107 9.127962799015839 7.385562522516357 0 0 0
152 0 2 0 11.83455024731113 11.00042568198978 5.012461395348054 0 0 0
504 0 2 0 11.932808758963095 10.01150042253253 7.031303461695246 0 0 0
169 0 1 0 9.640539042694972 11.756659237611798 6.559302627922236 0 0 0
203 0 2 0 15.6258300707363 8.409265029191571 5.65811503214473 0 0 0
503 0 2 0 12.027948373928718 8.507375811867796 6.656935254594516 0 0 0
151 0 1 0 12.519480621883877 11.173784941296175 5.692056146063734 0 0 0
153 0 2 0 13.340690288261065 11.286399105036075 5.160563719127988 0 0 0
507 0 2 0 15.106047409362649 8.969035922708468 7.936466808184136 0 0 0
207 0 2 0 15.754952349490411 11.007789070646583 6.737043239927245 0 0 0
505 0 1 0 15.69868216589547 9.222063652236123 7.228616017770883 0 0 0
205 0 1 0 15.673725212092334 11.96231094271732 6.763902235033011 0 0 0
198 0 2 0 17.809949661741772 10.951372698616622 4.4962464268355244 0 0 0
210 0 2 0 19.016754156176823 8.246296012845198 6.128695308611344 0 0 0
506 0 2 0 16.61655481815294 9.292061417218013 7.538642494073967 0 0 0
538 0 1 0 18.798145828576992 9.205922152928764 7.339304618892589 0 0 0
539 0 2 0 19.321326950558174 9.178333850861337 8.122410489177682 0 0 0
540 0 2 0 19.05268345768966 10.03167170543337 6.824338149144411 0 0 0
187 0 1 0 19.384296020758335 11.079708088652527 5.610970954699369 0 0 0
188 0 2 0 19.535577461201704 11.992946653039711 5.748408039791847 0 0 0
134 0 2 0 3.3647838108855597 12.290983160902448 7.133423353086773 0 0 0
239 0 2 0 1.0574582507054182 14.41189265777318 5.114946954026232 0 0 0
238 0 1 0 1.9603980141146518 14.133586582778753 5.096555348554147 0 0 0
240 0 2 0 1.9492152364873645 13.310468879568717 5.610506145533766 0 0 0
542 0 2 0 2.6560126564677042 15.613873116182052 6.18262524332782 0 0 0
453 0 2 0 0.9622577443991494 12.391512902607259 7.901649934640755 0 0 0
573 0 2 0 1.4798427297556225 15.711692092216323 8.155759323627006 0 0 0
246 0 2 0 5.244736342624415 14.289390859464419 4.5806484681432895 0 0 0
117 0 2 0 5.717014958968095 12.289796120551477 5.752417228979112 0 0 0
244 0 1 0 5.746817575109203 13.987375359696697 5.356050469682296 0 0 0
276 0 2 0 7.577038828445622 14.335142812514347 4.937796827194061 0 0 0
245 0 2 0 5.309890162232756 14.535991452938203 6.097949870675002 0 0 0
575 0 2 0 6.060725159142916 15.762283802245127 7.9318548478970365 0 0 0
445 0 1 0 4.723624296036099 12.716679269639275 8.07165521927968 0 0 0
489 0 2 0 7.976835156657399 12.495850197306785 7.966306090910923 0 0 0
170 0 2 0 9.190208676474406 12.417990268452458 5.9984477898515065 0 0 0
274 0 1 0 8.557301583819434 14.42158210134428 5.012117753963875 0 0 0
275 0 2 0 8.772363196264948 15.031414213873147 5.717594384459175 0 0 0
171 0 2 0 10.399179544868867 12.13828956432875 7.064378293064351 0 0 0
611 0 2 0 11.327223006409318 15.851799410810523 7.232050490323788 0 0 0
578 0 2 0 8.789925749947093 15.756381640178251 7.724118842347245 0 0 0
281 0 2 0 11.865686837443087 14.008204225951149 4.423500234825609 0 0 0
610 0 1 0 12.31325670281412 15.743747792439356 7.186290809907637 0 0 0
206 0 2 0 15.044776216664824 12.040970771365831 7.5388662610854595 0 0 0
282 0 2 0 12.337260630782346 12.844059166017677 5.3784814179534735 0 0 0
280 0 1 0 12.330378581514793 13.837145238093296 5.240409744912762 0 0 0
311 0 2 0 14.34206051244671 14.013953474345474 4.899537478958734 0 0 0
612 0 2 0 12.402031272776203 15.097287704289586 6.500440432889359 0 0 0
310 0 1 0 15.203452690284506 14.267699610300818 5.244077833695579 0 0 0
312 0 2 0 15.434125430889074 13.4891355608773 5.805085644157535 0 0 0
614 0 2 0 15.578274300965338 15.749293215291958 6.297431068310567 0 0 0
645 0 2 0 15.10666384248671 15.79200937263284 8.24769272803543 0 0 0
518 0 2 0 17.275063991853916 12.104080526288326 7.969363160667606 0 0 0
318 0 2 0 18.73417302304305 14.020270161214613 4.582264488528945 0 0 0
316 0 1 0 19.42265684520781 14.042323645403659 5.266068464282023 0 0 0
317 0 2 0 19.2788230122473 14.842379986263909 5.792530495317616 0 0 0
648 0 2 0 19.412128158067745 15.765252292491423 7.905234537505864 0 0 0
647 0 2 0 17.957792259743446 16.000943548670172 7.259783885926067 0 0 0
543 0 2 0 3.5816951471437117 16.150995939672036 7.373465068668228 0 0 0
541 0 1 0 2.6649571022693714 16.186394231862863 6.986310783489921 0 0 0
241 0 1 0 2.348152336758437 18.923177642839164 6.65181271709171 0 0 0
242 0 2 0 2.4508926587704623 18.000202649066566 6.478864905013862 0 0 0
243 0 2 0 3.2196000848847306 19.16011922833782 7.038798145970565 0 0 0
297 0 2 0 -0.08541543060731793 17.70597607652425 4.996277376843243 1 0 0
574 0 1 0 5.348630751685074 16.061492857742657 7.321582497164448 0 0 0
224 0 2 0 5.19898266586078 17.985255011193814 4.783793624241015 0 0 0
223 0 1 0 5.893952688757855 18.33137528317568 5.409245384883648 0 0 0
225 0 2 0 6.704576918813238 17.9933408248204 5.019119975393619 0 0 0
576 0 2 0 5.640020925202661 16.869469780769208 6.865269175158301 0 0 0
270 0 2 0 11.59725802172359 17.52743875969184 4.376342388604275 0 0 0
577 0 1 0 9.297160036223813 16.263038941279845 7.067791222459517 0 0 0
278 0 2 0 8.023396139969364 19.20769282697875 7.579892099032973 0 0 0
277 0 1 0 8.770684793430034 19.097329725791816 6.922669151573924 0 0 0
579 0 2 0 8.76824742250942 17.039352291047678 6.904736407003223 0 0 0
279 0 2 0 9.574033181517185 18.980236562519025 7.48458774030086 0 0 0
261 0 2 0 12.884405777753264 17.515922007355144 6.4173308029444875 0 0 0
259 0 1 0 13.139412041145105 17.95030139678346 5.608160612695541 0 0 0
299 0 2 0 14.410149321942484 17.48627089512226 4.386045382073345 0 0 0
260 0 2 0 13.039825524008299 18.937021503666983 5.667496837359211 0 0 0
315 0 2 0 15.441057496741944 19.08964799132867 7.05602421433166 0 0 0
615 0 2 0 16.03164755887236 17.185231499819338 6.700512145933501 0 0 0
633 0 2 0 13.341536322426379 19.398570371652717 8.310040545655237 0 0 0
613 0 1 0 16.091453075549047 16.241056456257652 6.971160680322528 0 0 0
646 0 1 0 18.916067820395526 16.142806641801087 7.163309384031382 0 0 0
314 0 2 0 16.21801392596213 19.46135113068842 5.756785461829652 0 0 0
313 0 1 0 16.237768830200906 18.829699687434527 6.47964579256023 0 0 0
305 0 2 0 18.00455291409804 17.37212219977146 4.335460002312736 0 0 0
102 0 2 0 19.412065945250827 19.651983517387734 5.205866163764343 0 -1 0
295 0 1 0 19.26645009307595 18.032281534774526 5.4439018967523385 0 0 0
296 0 2 0 19.217377210140715 17.444904560381445 6.254000959344435 0 0 0
627 0 2 0 18.052224305114308 19.5654890839535 7.369801750332965 0 0 0
625 0 1 0 18.386152520169965 19.50390206002033 8.257591020248306 0 0 0
355 0 1 0 0.4508029602218523 1.8708781725501162 8.830361600960478 0 0 0
335 0 2 0 0.6976268338357944 3.00318985927401 10.203908391607492 0 0 0
346 0 1 0 2.182557955692804 0.8570642548084924 11.977708662000932 0 0 0
347 0 2 0 2.761286082836904 1.1602675288014916 11.237350569687205 0 0 0
348 0 2 0 1.224198766261315 0.7999479345234729 11.66162755787131 0 0 0
561 0 2 0 0.7847443145026015 0.160119678130851 9.157382630485637 0 1 0
334 0 1 0 0.9320070587196656 3.651303478314566 10.894729808891102 0 0 0
336 0 2 0 1.8728328855378031 3.575336722895098 10.986541001365554 0 0 0
340 0 1 0 3.833210771008337 3.957446904284909 10.613067334265729 0 0 0
329 0 2 0 4.094226616622506 2.0787445048593844 10.06125072836633 0 0 0
328 0 1 0 4.189383551257615 1.0955707467711493 10.22051834286505 0 0 0
330 0 2 0 4.803349132179703 1.0034204534205688 10.934385894531694 0 0 0
393 0 2 0 7.444005461318048 1.1422295298882819 8.676777309596694 0 0 0
353 0 2 0 6.785286395457091 0.8052367607460429 12.04255840045827 0 0 0
352 0 1 0 5.868555715522959 0.6918069049624381 12.336598007593238 0 0 0
554 0 2 0 4.17485223814418 -0.008485099586893155 8.930339590063582 0 1 0
391 0 1 0 7.3450352799929615 2.1174491374144826 8.518124021245951 0 0 0
372 0 2 0 7.319513720886548 3.3786164363228117 9.81481255892968 0 0 0
382 0 1 0 8.562601824035418 0.8288964367403469 11.628959288998459 0 0 0
366 0 2 0 10.001276796397724 1.0379218842135105 10.137660750422002 0 0 0
364 0 1 0 10.889760230070191 1.1796751739226345 9.734393091106575 0 0 0
378 0 2 0 10.726852113532422 2.9155972426367853 10.226418650611159 0 0 0
365 0 2 0 11.482741300308364 0.9143959053615552 10.50069057867542 0 0 0
371 0 2 0 8.569703377026912 3.928794803606334 10.451727383930232 0 0 0
376 0 1 0 10.427876956797839 3.734312443964214 10.543127713041809 0 0 0
383 0 2 0 8.72392165791658 -0.012088102295876403 12.073827708145034 0 0 0
384 0 2 0 8.757619107213698 1.517739483119295 12.292091756775424 0 0 0
429 0 2 0 15.32138555933951 2.480122076266592 8.386350883979643 0 0 0
427 0 1 0 14.69656395183062 2.080875633114218 8.995346702506364 0 0 0