LAMMPS (29 Sep 2021 - Update 2)
  using 1 OpenMP thread(s) per MPI task
echo both

include		in.partitions
variable        pid world 0
include		in.temp
variable        temperature equal 265
variable        tempDamp equal 0.100 # this is 0.1 ps
include		in.pressure
variable        pressure equal 3039.75
variable        pressureDamp equal 1.0 #this is 1ps
include		in.seed
variable        seed world 745823

units           metal
atom_style	full
include		in.box
read_data       iceIII.data
Reading data file ...
  orthogonal box = (0.0000000 0.0000000 0.0000000) to (19.991053 19.991053 20.800772)
  1 by 1 by 1 MPI processor grid
  reading atoms ...
  972 atoms
Finding 1-2 1-3 1-4 neighbors ...
  special bond factors lj:    0        0        0       
  special bond factors coul:  0        0        0       
     0 = max # of 1-2 neighbors
     0 = max # of 1-3 neighbors
     0 = max # of 1-4 neighbors
     1 = max # of special neighbors
  special bonds CPU = 0.003 seconds
  read_data CPU = 0.026 seconds
include 	in.setup
variable	out_freq equal 500
variable	out_freq2 equal 500

timestep        0.0005

neigh_modify    delay 7 every 1

include         in.deepmd
# This is deepMD model

# create groups ###
#group ox type 2
#group hy type 1

mass 2 15.999
mass 1 1.008

pair_style      deepmd ../graph.pb
pair_coeff      * *

bond_style      none
angle_style     none
dihedral_style  none
improper_style  none
neigh_modify exclude none


neighbor        2.0 bin
neigh_modify    every 10 delay 0 check no

thermo          ${out_freq}
thermo          500
thermo_style 	custom step temp pe etotal epair emol press lx ly lz xy xz yz vol pxx pyy pzz pxy pxz pyz cella cellb cellc cellalpha cellbeta cellgamma

restart 	${out_freq} restart.lmp.${pid} restart2.lmp.${pid}
restart 	500 restart.lmp.${pid} restart2.lmp.${pid}
restart 	500 restart.lmp.0 restart2.lmp.${pid}
restart 	500 restart.lmp.0 restart2.lmp.0


include         in.dump
dump            myDump all atom ${out_freq2} dump.water.${pid}
dump            myDump all atom 500 dump.water.${pid}
dump            myDump all atom 500 dump.water.0
dump            myDump2 all dcd ${out_freq2} dump.dcd
dump            myDump2 all dcd 500 dump.dcd
dump_modify     myDump append yes
dump_modify     myDump2 append yes


timer           timeout 04:55:00 every 1000
New timer settings: style=normal  mode=nosync  timeout=04:55:00

fix             2 all nph aniso ${pressure} ${pressure} ${pressureDamp}
fix             2 all nph aniso 3039.75 ${pressure} ${pressureDamp}
fix             2 all nph aniso 3039.75 3039.75 ${pressureDamp}
fix             2 all nph aniso 3039.75 3039.75 1
fix             3 all temp/csvr ${temperature} ${temperature} ${tempDamp} ${seed}
fix             3 all temp/csvr 265 ${temperature} ${tempDamp} ${seed}
fix             3 all temp/csvr 265 265 ${tempDamp} ${seed}
fix             3 all temp/csvr 265 265 0.1 ${seed}
fix             3 all temp/csvr 265 265 0.1 745823
velocity 	all create ${temperature} ${seed} dist gaussian
velocity 	all create 265 ${seed} dist gaussian
velocity 	all create 265 745823 dist gaussian

run             400000

CITE-CITE-CITE-CITE-CITE-CITE-CITE-CITE-CITE-CITE-CITE-CITE-CITE

Your simulation uses code contributions which should be cited:

- USER-DEEPMD package:

@article{Wang_ComputPhysCommun_2018_v228_p178,
  author = {Wang, Han and Zhang, Linfeng and Han, Jiequn and E, Weinan},
  doi = {10.1016/j.cpc.2018.03.016},
  url = {https://doi.org/10.1016/j.cpc.2018.03.016},
  year = 2018,
  month = {jul},
  publisher = {Elsevier {BV}},
  volume = 228,
  journal = {Comput. Phys. Commun.},
  title = {{DeePMD-kit: A deep learning package for many-body potential energy representation and molecular dynamics}},
  pages = {178--184}
}

CITE-CITE-CITE-CITE-CITE-CITE-CITE-CITE-CITE-CITE-CITE-CITE-CITE

Neighbor list info ...
  update every 10 steps, delay 0 steps, check no
  max neighbors/atom: 2000, page size: 100000
  master list distance cutoff = 8
  ghost atom cutoff = 8
  binsize = 4, bins = 5 5 6
  1 neighbor lists, perpetual/occasional/extra = 1 0 0
  (1) pair deepmd, perpetual
      attributes: full, newton on
      pair build: full/bin
      stencil: full/bin/3d
      bin: standard
Per MPI rank memory allocation (min/avg/max) = 7.648 | 7.648 | 7.648 Mbytes
Step Temp PotEng TotEng E_pair E_mol Press Lx Ly Lz Xy Xz Yz Volume Pxx Pyy Pzz Pxy Pxz Pyz Cella Cellb Cellc CellAlpha CellBeta CellGamma 
       0          265   -175.65013   -142.38956   -175.65013            0    37792.124    19.991053    19.991053    20.800772            0            0            0    8312.8663    41560.269    42048.299    29767.804   -62.884948   -1050.0672   -451.78328    19.991053    19.991053    20.800772           90           90           90 
     500    258.66164   -161.32522   -128.86019   -161.32522            0   -802.81051    20.101781    20.007734    20.586754            0            0            0    8279.8089   -442.88176    223.55054   -2189.1003   -551.93317   -791.27273   -904.99668    20.101781    20.007734    20.586754           90           90           90 
    1000    272.73109   -160.14539   -125.91447   -160.14539            0    504.77081    20.221312    20.092646    20.348324            0            0            0    8267.5177    453.15386    1276.7925   -215.63393   -1693.0439    755.70737    622.21497    20.221312    20.092646    20.348324           90           90           90 
    1500    261.37015   -160.36666   -127.56167   -160.36666            0    11539.004    20.293357    20.184226    20.324799            0            0            0    8325.1535    9009.8208    12820.073    12787.118    1977.8895   -1310.0211    25.148685    20.293357    20.184226    20.324799           90           90           90 
    2000    259.36094   -157.75024   -125.19743   -157.75024            0   -759.50164    20.210058    20.148034    20.359281            0            0            0    8290.1552   -449.48338   -415.54403   -1413.4775   -106.84911   -93.276643    1448.4287    20.210058    20.148034    20.359281           90           90           90 
    2500     261.9076   -157.04645   -124.17401   -157.04645            0    5204.5453    20.042294    20.202328    20.503632            0            0            0    8301.9412     6290.969    1710.6293    7612.0375    1165.8088   -1347.5117     30.39318    20.042294    20.202328    20.503632           90           90           90 
    3000    267.91683   -158.04872   -124.42205   -158.04872            0    2689.4019    20.040033    20.240161    20.719025            0            0            0     8403.916    2861.8299    3836.7338    1369.6419     42.36909   -448.39227     1310.458    20.040033    20.240161    20.719025           90           90           90 
    3500    267.77149   -158.71212   -125.10369   -158.71212            0    3468.5375    20.150378    19.981684    20.622451            0            0            0    8303.3924    3677.1816    2849.0447    3879.3863    724.52176   -1404.5347    510.10023    20.150378    19.981684    20.622451           90           90           90 
    4000    257.83327   -157.85737   -125.49631   -157.85737            0    2209.4928    20.365238    19.965337    20.538305            0            0            0    8350.8509     2566.655    2458.7323    1603.0912    1287.3162    163.09024   -138.89096    20.365238    19.965337    20.538305           90           90           90 
    4500    266.65216   -159.17265   -125.70471   -159.17265            0    3520.5598    20.231705    20.056362    20.355292            0            0            0    8259.6563    3956.6884    2263.7685    4341.2227    1732.2429   -3318.7832    -729.4527    20.231705    20.056362    20.355292           90           90           90 
    5000    258.01249   -157.73362   -125.35006   -157.73362            0    4860.3004    20.128993    20.250323    20.407858            0            0            0    8318.6225    4330.8719    5187.6135    5062.4157    473.38879    1575.7938   -8.6924737    20.128993    20.250323    20.407858           90           90           90 
    5500    255.85885    -158.9577   -126.84445    -158.9577            0    1901.3196    19.985699    20.308595    20.509491            0            0            0    8324.4221    2701.7079   -1215.3687    4217.6195    1636.9626   -1272.8861   -2304.1101    19.985699    20.308595    20.509491           90           90           90 
    6000    268.33571   -158.85497   -125.17573   -158.85497            0    137.74508    20.023513    20.183609    20.608698            0            0            0    8328.9383    4763.8615   -3289.9569   -1060.6693   -2266.6534   -353.75911    792.96379    20.023513    20.183609    20.608698           90           90           90 
    6500     270.2228   -160.42401   -126.50791   -160.42401            0    1334.7226    20.205663    19.984166    20.666563            0            0            0    8345.0201     1614.977    1807.8091    581.38169    1737.2658    1511.9593   -3177.5476    20.205663    19.984166    20.666563           90           90           90 
    7000      266.201   -157.30718   -123.89587   -157.30718            0    3831.0674    20.327127    20.064232    20.572655            0            0            0      8390.52    4636.5459    5285.7934    1570.8629   -261.11299    985.20408   -77.422568    20.327127    20.064232    20.572655           90           90           90 
    7500    265.66707   -157.27757   -123.93327   -157.27757            0    1991.3703    20.184259     20.23792    20.333954            0            0            0    8306.1643    4537.5061   -531.17327    1967.7782   -75.652088    1014.0957   -289.97903    20.184259     20.23792    20.333954           90           90           90 
    8000    262.46881   -158.08338    -125.1405   -158.08338            0    1888.0106    20.099234     20.26022    20.218118            0            0            0    8233.1193    2597.7638    960.78644    2105.4814   -442.07318   -2049.2407     1461.273    20.099234     20.26022    20.218118           90           90           90 
    8500    254.84776   -158.61471   -126.62836   -158.61471            0    5321.3384    20.277714     20.17842    20.446961            0            0            0     8366.329    8268.9989    5335.5558    2359.4607    919.46524    881.17369    -1073.034    20.277714     20.17842    20.446961           90           90           90 
    9000    272.34171   -157.75449   -123.57245   -157.75449            0     4515.101    20.249793    20.002501    20.669039            0            0            0    8371.9218     3427.024    5813.2078    4305.0713    154.71423   -1339.0315   -1370.6734    20.249793    20.002501    20.669039           90           90           90 
    9500    264.91044   -156.80802   -123.55868   -156.80802            0    3447.5893    20.000971    19.936912    20.726667            0            0            0    8264.9159    1468.7288    5709.4762    3164.5628    -9.575972    1567.6009   -3119.3575    20.000971    19.936912    20.726667           90           90           90 
   10000     275.3225   -157.97656   -123.42039   -157.97656            0    3043.4162    20.031988    20.275183    20.703512            0            0            0    8408.7775    2724.9396    3581.3291    2823.9799    290.13384   -2474.8002   -37.980025    20.031988    20.275183    20.703512           90           90           90 
   10500    281.11183   -156.81145   -121.52866   -156.81145            0    244.87335    20.213248    20.322532    20.422593            0            0            0    8389.2821   -512.82442    -1921.336    3168.7805   -1132.7499    517.35709    1302.3278    20.213248    20.322532    20.422593           90           90           90 
   11000    264.43458   -156.67949   -123.48988   -156.67949            0    1952.0065    20.310997    20.091653    20.271538            0            0            0    8272.4399    2427.5145    4769.6477   -1341.1427   -458.80882   -505.31279     1095.929    20.310997    20.091653    20.271538           90           90           90 
   11500    268.91576   -159.57869   -125.82664   -159.57869            0    7563.2924     20.28494    20.067717    20.359306            0            0            0    8287.7124    6909.5966    8185.9535    7594.3271    472.38809   -334.64392   -2372.2964     20.28494    20.067717    20.359306           90           90           90 
   12000    268.45965   -157.83831   -124.14351   -157.83831            0    2396.9339    20.220163    20.174136       20.576            0            0            0    8393.4507    261.78808    5766.7343    1162.2793    436.22631   -225.44514   -1439.9254    20.220163    20.174136       20.576           90           90           90 
   12500     275.0762   -158.52198   -123.99672   -158.52198            0    2059.6282     20.12336    20.172142    20.713378            0            0            0    8408.2078      3519.82    3047.8958    -388.8311    31.686065   -151.97989   -370.85176     20.12336    20.172142    20.713378           90           90           90 
   13000     263.9342   -155.89218   -122.76538   -155.89218            0    6164.7875     20.06082    20.065272    20.595696            0            0            0    8290.2991     6304.069    6189.6831    6000.6105   -398.03127   -825.84994    -3065.929     20.06082    20.065272    20.595696           90           90           90 
   13500    262.87505   -158.44895   -125.45509   -158.44895            0   -9.5546133    20.219838    20.181488    20.538505            0            0            0    8381.0738   -710.71118    2581.7752   -1899.7279   -151.80605   -798.03506     840.2547    20.219838    20.181488    20.538505           90           90           90 
   14000     262.4465   -159.12461   -126.18453   -159.12461            0    4968.5583    20.261779    20.210444    20.365569            0            0            0    8339.6915    6570.8948    4147.1063    4187.6737    1883.0438   -2101.9373    2287.2561    20.261779    20.210444    20.365569           90           90           90 
   14500    255.06316   -159.39483   -127.38144   -159.39483            0    3331.1475     20.28563     20.04429    20.322109            0            0            0    8263.1938    2939.7798    3076.3536    3977.3091    1277.7033    231.43324     442.2023     20.28563     20.04429    20.322109           90           90           90 
   15000    269.98423   -158.60516     -124.719   -158.60516            0    4537.3532    20.313875    20.063381     20.61288            0            0            0    8401.0885    3953.8781    5568.7229    4089.4586    1483.0178   -506.87513    2911.2424    20.313875    20.063381     20.61288           90           90           90 
   15500     264.0228   -158.21056   -125.07264   -158.21056            0    4916.7658    20.149775    20.173045    20.805551            0            0            0    8457.0887    7195.5744    4157.0735    3397.6495   -525.85952     1176.531    396.61631    20.149775    20.173045    20.805551           90           90           90 
   16000    275.03145   -158.51564     -123.996   -158.51564            0    5000.1429    19.912154    20.140721    20.583583            0            0            0    8254.9461    9792.2366    1733.0552     3475.137     1194.194    1099.3561    229.79628    19.912154    20.140721    20.583583           90           90           90 
   16500    275.89697   -158.84919   -124.22092   -158.84919            0    4265.6334    20.153404    20.268351    20.400883            0            0            0    8333.2769    6652.7968   -623.64598    6767.7493    -373.0303   -330.83088    1362.2805    20.153404    20.268351    20.400883           90           90           90 
   17000    264.89762   -157.76466   -124.51694   -157.76466            0    4157.4196    20.412507    20.261521    20.355366            0            0            0     8418.744    4191.0399     4160.657     4120.562   -58.429782    1371.9818    1126.5155    20.412507    20.261521    20.355366           90           90           90 
   17500    271.28141   -158.93111   -124.88214   -158.93111            0    5729.3813     20.31958    20.085038    20.454072            0            0            0    8347.7065    4129.4848    8046.4214    5012.2377    -749.1779    917.17734    2688.0077     20.31958    20.085038    20.454072           90           90           90 
   18000    268.15519   -159.91696   -126.26038   -159.91696            0    6932.9404    20.139071    20.010185    20.617554            0            0            0    8308.5967    9988.1123    1184.3625    9626.3463   -680.81123   -719.57195   -559.41607    20.139071    20.010185    20.617554           90           90           90 
   18500    259.88599   -158.65505   -126.03634   -158.65505            0    4016.0326    20.095409    20.147065    20.681921            0            0            0    8373.3551    5344.0711    4541.1921    2162.8346   -387.22908   -2142.0868    408.23609    20.095409    20.147065    20.681921           90           90           90 
   19000    263.45202   -158.75925   -125.69296   -158.75925            0    2068.2778    20.156178    20.272894    20.479425            0            0            0    8368.3859    2319.4921    3676.2811    209.06024    2237.2528   -1136.8722   -1719.2801    20.156178    20.272894    20.479425           90           90           90 
   19500    275.20883   -159.33396   -124.79206   -159.33396            0    6169.8105    20.211875    20.208704    20.275257            0            0            0    8281.5464    3948.3786    8051.0763    6509.9766    667.70942   -254.69946   -171.55481    20.211875    20.208704    20.275257           90           90           90 
   20000    261.50908   -159.33576   -126.51333   -159.33576            0    1715.9992    20.254104    20.199659    20.323382            0            0            0    8314.8239    2144.9209   -80.352803    3083.4294   -183.26012   -1881.2321    2391.7966    20.254104    20.199659    20.323382           90           90           90 
   20500    262.70113   -159.51565   -126.54361   -159.51565            0    2472.0837    20.227029    20.127248    20.518554            0            0            0    8353.3997    2589.3865    1692.4687    3134.3958    471.10754    516.04648    -2446.276    20.227029    20.127248    20.518554           90           90           90 
   21000    268.94258   -159.77423   -126.01882   -159.77423            0    4186.4999    20.098156    20.036952    20.688188            0            0            0    8331.2527     5083.502     4845.613    2630.3847   -175.00899    -836.8753    502.27988    20.098156    20.036952    20.688188           90           90           90 
   21500    250.00699   -158.77829   -127.39951   -158.77829            0    4786.8109     20.06256    20.023405    20.560918            0            0            0    8259.7477     7748.196     6192.507    419.72969    733.79696    335.82451    1231.8663     20.06256    20.023405    20.560918           90           90           90 
   22000    261.06172   -158.54039   -125.77411   -158.54039            0    4905.2228    20.305162    20.284801    20.307309            0            0            0       8364.3    5380.4396    3228.2835    6106.9452   -223.55987   -1234.2732    514.37689    20.305162    20.284801    20.307309           90           90           90 
   22500    265.74389   -158.18771   -124.83377   -158.18771            0    6863.8026    20.356004    20.404933    20.175807            0            0            0    8380.2818    7334.4866    5402.0999    7854.8214   -402.43856    1182.1912   -38.388861    20.356004    20.404933    20.175807           90           90           90 
   23000    264.57924   -159.97376     -126.766   -159.97376            0    5026.0735    20.095331    20.149629     20.28699            0            0            0    8214.4755    5140.5505    3036.1068    6901.5631    -578.7006    2224.1757   -158.87758    20.095331    20.149629     20.28699           90           90           90 
   23500    254.56127   -157.39384   -125.44344   -157.39384            0    2355.2951    20.133774     20.08731    20.684816            0            0            0    8365.6299    565.78545    4552.1398      1947.96   -1735.1971    414.55677   -443.20173    20.133774     20.08731    20.684816           90           90           90 
   24000    275.01278   -157.39579   -122.87849   -157.39579            0    5404.6861    20.161089    20.020224      20.7009            0            0            0    8355.4941    5648.5328    5957.3702    4608.1552    -1075.588    2191.4321   -540.72543    20.161089    20.020224      20.7009           90           90           90 
   24500    256.57116   -156.73044   -124.52778   -156.73044            0      745.671    20.225593    20.122525    20.605023            0            0            0    8386.0385   -1697.0894    2205.7721    1728.3303    882.81117   -1253.1779    1352.9985    20.225593    20.122525    20.605023           90           90           90 
   25000    267.34311   -157.09493   -123.54027   -157.09493            0    3951.2415    20.106429    20.141795    20.438281            0            0            0    8277.0863    3407.3872    6120.6986    2325.6386   -1168.6134    1766.7484    399.24022    20.106429    20.141795    20.438281           90           90           90 
   25500    274.63503   -158.66373   -124.19384   -158.66373            0    776.99834    20.197071    20.250924    20.477492            0            0            0    8375.4859    3688.1103    -2189.797    832.68177    1220.1346   -1730.5345    1554.2799    20.197071    20.250924    20.477492           90           90           90 
   26000    266.55286   -156.94155   -123.48607   -156.94155            0    252.12032    20.245493    20.175608    20.534408            0            0            0    8387.5896   -1978.3272    3587.3312   -852.64302    -949.2633   -818.38508      217.433    20.245493    20.175608    20.534408           90           90           90 
   26500    264.01758   -158.96217    -125.8249   -158.96217            0    2161.8551    20.162424    20.007974    20.579189            0            0            0    8301.8355    3437.6733    898.68643    2149.2057   -804.53583   -150.64277    56.653464    20.162424    20.007974    20.579189           90           90           90 
   27000    272.62989   -157.38688   -123.16867   -157.38688            0    958.57008     20.15443    20.138439     20.71244            0            0            0    8406.7392   -1045.9425    3109.1802    812.47259    1932.3386   -2017.2365     1284.358     20.15443    20.138439     20.71244           90           90           90 
   27500     264.0057   -157.53564   -124.39986   -157.53564            0    1829.8046    20.096023    20.168044    20.529843            0            0            0    8320.6934    8059.2973   -4199.7762    1629.8928   -1044.5529    -2099.451   -2823.7583    20.096023    20.168044    20.529843           90           90           90 
   28000    261.87362   -158.98102   -126.11284   -158.98102            0      129.807    20.241412    20.250645    20.384965            0            0            0    8355.8305   -224.11359   -18.837086    632.37168    2285.0892    666.88882     1353.571    20.241412    20.250645    20.384965           90           90           90 
   28500    273.70456   -158.88991   -124.53681   -158.88991            0   -1187.1226    20.319454    20.220244     20.34444            0            0            0    8358.8046   -1702.9401   -856.25002   -1002.1778   -2244.3036    292.04723   -213.16723    20.319454    20.220244     20.34444           90           90           90 
   29000    265.58566   -158.01698   -124.68289   -158.01698            0    3034.2186    20.126916    20.097371    20.392685            0            0            0    8248.8021    4128.1455    1424.7073    3549.8032    75.684184    63.241962   -1849.9164    20.126916    20.097371    20.392685           90           90           90 
   29500     266.2674    -157.3465   -123.92685    -157.3465            0    1590.8817    20.105958    20.272098    20.834075            0            0            0    8491.7595    1796.6758    2535.2445    440.72469    660.87629    2280.5884   -4311.6407    20.105958    20.272098    20.834075           90           90           90 
   30000    272.98586   -155.78107   -121.51817   -155.78107            0    1398.6895     19.98107    20.008285    20.787686            0            0            0    8310.6452    2258.3292    2983.5238   -1045.7844   -175.80623   -6537.4135   -2396.0387     19.98107    20.008285    20.787686           90           90           90 
   30500    271.99577   -158.02556   -123.88694   -158.02556            0    3888.2339    20.261367    19.973084    20.685481            0            0            0    8371.0414    702.66501    5951.3973    5010.6396   -1817.5136   -1575.3522    -193.7961    20.261367    19.973084    20.685481           90           90           90 
   31000    275.07266   -157.34776   -122.82295   -157.34776            0    736.00488    20.394357    20.089825    20.483627            0            0            0    8392.5324    1612.7565    2988.8261    -2393.568    54.260952   -637.37476    770.60382    20.394357    20.089825    20.483627           90           90           90 
   31500    263.58843   -156.87001    -123.7866   -156.87001            0    2063.5976    20.217023    20.180582    20.280819            0            0            0    8274.3978    3103.2919   -133.94989    3221.4507    211.22989   -2378.8844    1235.9435    20.217023    20.180582    20.280819           90           90           90 
   32000    273.54802   -159.31508   -124.98163   -159.31508            0    6860.4878      20.1828    20.242128    20.315364            0            0            0    8299.6962    5493.8541    8058.2212     7029.388   -2108.2343   -2374.0915    2180.7895      20.1828    20.242128    20.315364           90           90           90 
   32500    269.33374   -158.46537   -124.66086   -158.46537            0    2255.9555    20.182235    20.222164    20.514705            0            0            0    8372.6348    3127.2767     1641.195    1999.3949   -811.01339    1671.9989   -367.81717    20.182235    20.222164    20.514705           90           90           90 
   33000     266.1651   -157.47077   -124.06396   -157.47077            0     1076.319    20.126323    20.098757    20.660021            0            0            0    8357.2693    51.828287    4771.9815   -1594.8529   -846.49763    540.09399   -402.47714    20.126323    20.098757    20.660021           90           90           90 
   33500    269.24874    -158.9848   -125.19096    -158.9848            0    5054.2088    20.052836    20.077811    20.693716            0            0            0    8331.6427    5762.8816    6208.7407    3191.0042    -1257.429    733.87985     -98.3913    20.052836    20.077811    20.693716           90           90           90 
   34000    257.93405   -159.92635   -127.55264   -159.92635            0     5332.208    20.137905    20.160933    20.654759            0            0            0    8385.8102    8076.5222    5490.7358     2429.366    299.43654    359.39185   -568.37781    20.137905    20.160933    20.654759           90           90           90 
   34500    256.96166   -159.87219   -127.62052   -159.87219            0      3312.84     20.23786    20.083069    20.367242            0            0            0    8278.0281    4509.1803    2382.9801    3046.3597   -1099.5565   -2018.3482   -875.64087     20.23786    20.083069    20.367242           90           90           90 
   35000    248.99695   -159.57028   -128.31827   -159.57028            0    6324.3744    20.335373    20.095061    20.230143            0            0            0    8266.8569     2381.347    7678.4803    8913.2958   -343.40951    2006.9071    157.20829    20.335373    20.095061    20.230143           90           90           90 
   35500     259.0869   -159.54353   -127.02511   -159.54353            0    1729.4433    20.304489    20.319182    20.429494            0            0            0    8428.6087    3053.6245   -65.285555     2199.991   -1687.2422    -1127.871    762.75518    20.304489    20.319182    20.429494           90           90           90 
   36000    269.81462    -159.0908   -125.22593    -159.0908            0    4768.6448    19.977303    20.215915    20.594928            0            0            0    8317.4567     4441.261    7470.1728    2394.5007    271.35777   -175.60871   -18.575299    19.977303    20.215915    20.594928           90           90           90 
   36500    265.33473    -158.3209   -125.01831    -158.3209            0    2953.4797    19.966658    20.115153    20.791487            0            0            0    8350.5344    1431.9056    3794.3062    3634.2273    111.55169    2451.0602    2868.3352    19.966658    20.115153    20.791487           90           90           90 
   37000    264.49035   -158.06005   -124.86344   -158.06005            0    3818.2389    20.155015    20.124645    20.662172            0            0            0    8380.8355    4509.7748    4085.5438    2859.3983   -899.81708    201.24748    1449.7682    20.155015    20.124645    20.662172           90           90           90 
   37500    265.23418   -158.65903   -125.36906   -158.65903            0    5421.2708    20.217757    20.124336    20.396921            0            0            0    8298.8734    9155.0337    2677.0401    4431.7386    1060.4006    1858.0314    9.2899534    20.217757    20.124336    20.396921           90           90           90 
   38000    271.33979   -157.73956   -123.68327   -157.73956            0    5360.8198    20.307393    20.216308      20.3369            0            0            0     8349.121    5187.4065    5736.7392    5158.3137   -218.27183    3479.5674   -777.26221    20.307393    20.216308      20.3369           90           90           90 
   38500    268.85139   -158.41987    -124.6759   -158.41987            0    6537.7452    20.263484     20.17378    20.426406            0            0            0    8350.1321    7786.4948    5122.4626    6704.2783    574.29009   -695.35351    2678.5238    20.263484     20.17378    20.426406           90           90           90 
   39000    268.01788   -159.53787   -125.89852   -159.53787            0    6245.6093    20.165775     20.01603    20.620525            0            0            0    8323.2432    4568.6101    6529.0448     7639.173    -2155.985   -331.05708   -2812.4732    20.165775     20.01603    20.620525           90           90           90 
   39500    265.95845    -158.3977   -125.01683    -158.3977            0    3725.6864    20.085934    19.995615     20.73894            0            0            0    8329.3931    4960.9489    4257.5096    1958.6007    1038.8096   -995.56891    730.91864    20.085934    19.995615     20.73894           90           90           90 
   40000    264.57005   -158.48554   -125.27893   -158.48554            0    2154.7061    20.108278     20.10444     20.61757            0            0            0    8334.9759   -20.746125    3659.9503    2824.9143    657.21226     -866.083    2552.6511    20.108278     20.10444     20.61757           90           90           90 
   40500    265.78733   -159.65098   -126.29159   -159.65098            0     2182.973    20.266041    20.303924    20.486396            0            0            0    8429.7455    1301.2363    1663.7135    3583.9691   -274.47883   -502.11977    2360.9959    20.266041    20.303924    20.486396           90           90           90 
   41000    261.50732   -158.46618   -125.64398   -158.46618            0    2288.7013    20.230468    20.201982    20.158473            0            0            0     8238.678    1081.1526    810.47054    4974.4806    431.83362   -2706.2535    1176.8035    20.230468    20.201982    20.158473           90           90           90 
   41500    268.47277   -158.70633   -125.00988   -158.70633            0    2403.2308    20.270577    20.090989    20.333722            0            0            0    8281.0289    3966.7148    1606.2211    1636.7563    -1208.932    482.17393   -1033.8078    20.270577    20.090989    20.333722           90           90           90 
   42000    260.04564    -157.6929   -125.05416    -157.6929            0    2029.5114    20.237506    20.100582     20.78715            0            0            0    8455.9143    1909.1932     3564.979    614.36198   -19.842552   -2806.6086   -1758.1673    20.237506    20.100582     20.78715           90           90           90 
   42500    265.74168   -156.79046    -123.4368   -156.79046            0    1306.1679    20.028208    20.034716    20.772364            0            0            0    8335.1072    4498.2059    1760.7791   -2340.4813    686.94808    1372.2706    2371.1743    20.028208    20.034716    20.772364           90           90           90 
   43000    266.51201   -157.34902   -123.89867   -157.34902            0    6747.1253    20.083568    20.139983    20.608146            0            0            0    8335.6391    4397.1429    7954.5082    7889.7248    551.29637    486.99706    899.21422    20.083568    20.139983    20.608146           90           90           90 
   43500    265.79586   -158.24753   -124.88706   -158.24753            0    4501.4035    20.221606     20.20498     20.45653            0            0            0    8358.0706    3050.4341    3829.3363    6624.4401    735.30113   -47.493147    820.48842    20.221606     20.20498     20.45653           90           90           90 
   44000     263.0262   -158.17768   -125.16484   -158.17768            0    4055.4981    20.247788    20.176166    20.316522            0            0            0    8299.7609    3807.4642    4271.6992     4087.331    1605.9567   -307.79287    2109.3277    20.247788    20.176166    20.316522           90           90           90 
   44500     263.5722    -157.9695   -124.88813    -157.9695            0    1992.6955    20.269445    20.130267    20.454577            0            0            0    8346.0677    427.62534    2634.9054    2915.5558   -1310.1176    -994.4185   -216.04699    20.269445    20.130267    20.454577           90           90           90 
   45000    262.74907   -160.18977   -127.21171   -160.18977            0    4313.0721    20.128118    20.027974    20.596729            0            0            0    8303.0654   -1018.1067    7894.1819    6063.1411    622.62059   -90.753798   -2295.7432    20.128118    20.027974    20.596729           90           90           90 
   45500    265.50313   -159.82804   -126.50431   -159.82804            0    2323.8054    20.117985    20.144379    20.790915            0            0            0     8425.816    3772.4889    618.11194    2580.8154    244.13546    1373.4289   -285.56082    20.117985    20.144379    20.790915           90           90           90 
   46000    269.11217   -159.08327   -125.30657   -159.08327            0    5351.1314    20.058567    20.071327     20.52418            0            0            0    8263.0769    5346.5396    3941.6265    6765.2282   -941.68576   -170.60988   -1368.2959    20.058567    20.071327     20.52418           90           90           90 
   46500    259.81589   -157.89999   -125.29008   -157.89999            0    3133.9934    20.300315    20.237096    20.292345            0            0            0    8336.4896    3665.2973    1924.1313    3812.5515    412.25432    731.25068    379.01278    20.300315    20.237096    20.292345           90           90           90 
   47000    270.66889   -158.49409     -124.522   -158.49409            0    1588.3886    20.379588    20.353298    20.307825            0            0            0    8423.5199    803.31262   -40.478524    4002.3318    -2873.285   -3162.6746    202.75107    20.379588    20.353298    20.307825           90           90           90 
   47500    269.93904   -156.99879   -123.11831   -156.99879            0    6026.6261    20.134386    20.138195    20.424189            0            0            0    8281.3999    10141.343    4888.8766    3049.6592    225.64466   -2079.1274   -1357.6839    20.134386    20.138195    20.424189           90           90           90 
   48000     263.4181   -157.07333    -124.0113   -157.07333            0    1974.6546    20.214244    20.197487    20.606701            0            0            0    8413.2409    1366.0796     2366.877    2191.0071    988.25852    1579.1206    651.27806    20.214244    20.197487    20.606701           90           90           90 
   48500    268.38247   -158.09599   -124.41087   -158.09599            0    3839.7482    20.152637    20.049764    20.501547            0            0            0    8283.7654    7436.3912    2426.0684    1656.7851   -765.70572    338.77282   -337.38399    20.152637    20.049764    20.501547           90           90           90 
   49000    275.07324   -157.10891   -122.58403   -157.10891            0    2438.2253    20.228122    20.143196    20.551233            0            0            0    8373.7855    3846.7712    701.08011    2766.8245   -563.39886   -2493.2783   -2007.8278    20.228122    20.143196    20.551233           90           90           90 
   49500    282.90287   -155.39657   -119.88898   -155.39657            0    3420.6357    20.248353    20.232372    20.597239            0            0            0     8438.116    3239.8627    2456.6758    4565.3687   -1543.3902    2159.9493    2931.5965    20.248353    20.232372    20.597239           90           90           90 
   50000    278.82743   -157.07642   -122.08034   -157.07642            0    1086.6742    20.146187    20.161557    20.522679            0            0            0    8335.8708    1086.8149    902.22821    1270.9796   -325.48463   -77.392348   -293.97094    20.146187    20.161557    20.522679           90           90           90 
   50500    264.51738    -157.7572    -124.5572    -157.7572            0   -595.10003    20.189706    20.249211    20.655899            0            0            0    8444.6604   -1053.3535   -932.84134    200.89478   -628.66523   -27.966248    879.73983    20.189706    20.249211    20.655899           90           90           90 
   51000    273.21657     -157.814   -123.52215     -157.814            0    1844.1946    20.128919    20.061415    20.558896            0            0            0    8301.9828   -1550.0656    3109.6892    3972.9601   -1148.5566   -2007.5131    603.24336    20.128919    20.061415    20.558896           90           90           90 
   51500    273.89771   -158.81863    -124.4413   -158.81863            0    367.28256    20.183478    20.033067    20.531281            0            0            0     8301.556    2312.7168    936.55145   -2147.4206    2440.6914    97.692051    2310.7042    20.183478    20.033067    20.531281           90           90           90 
   52000    259.45002   -159.73714   -127.17315   -159.73714            0    1557.2473    20.298392    20.216913    20.546574            0            0            0    8431.7144    1762.0611    2341.4079    568.27289   -911.99527    -2231.098   -937.90979    20.298392    20.216913    20.546574           90           90           90 
   52500    269.80812   -157.96052   -124.09647   -157.96052            0    3551.5864     20.11943    20.186165    20.409808            0            0            0    8289.1197    5992.4025    2711.7466    1950.6102   -284.73783   -504.29974   -526.31308     20.11943    20.186165    20.409808           90           90           90 
   53000    266.40197   -159.24951   -125.81297   -159.24951            0    2771.2985    20.113065    20.163193    20.518039            0            0            0    8320.9595    8445.6112   -2152.5842    2020.8686    -396.3155    842.58761    1251.6881    20.113065    20.163193    20.518039           90           90           90 
   53500    274.77392   -159.98553   -125.49822   -159.98553            0    3016.0058    20.193077    20.152823    20.804574            0            0            0    8466.3695     5684.507    2064.4805      1299.03   -1717.3375   -2533.9553   -3244.6173    20.193077    20.152823    20.804574           90           90           90 
   54000    275.62815   -158.45588   -123.86135   -158.45588            0    4284.0927    20.082374    19.931064    20.790455            0            0            0    8321.6514    6454.9499    4280.2802    2117.0479    2968.6861   -2946.5305    1741.6183    20.082374    19.931064    20.790455           90           90           90 
   54500    247.41824   -158.29387   -127.24001   -158.29387            0    3731.6401    20.111163     20.04006    20.635954            0            0            0    8316.8864    4100.8253    3268.5772    3825.5179    850.93221   -194.11997    -1880.477    20.111163     20.04006    20.635954           90           90           90 
   55000    271.69035   -159.83867   -125.73838   -159.83867            0    4668.4599    20.141338    20.293642     20.32659            0            0            0    8308.3132    9699.3165   -548.83409    4854.8972    2415.6956    621.24267    1608.2646    20.141338    20.293642     20.32659           90           90           90 
   55500     260.7555   -159.40415   -126.67631   -159.40415            0    2276.9806     20.33412    20.361665    20.286481            0            0            0    8399.3444    6063.1898   -1223.2116    1990.9635   -336.40857    936.23689   -1265.2607     20.33412    20.361665    20.286481           90           90           90 
   56000    271.78322   -157.39009   -123.27814   -157.39009            0    3754.3748    20.213552    20.124046    20.389372            0            0            0    8293.9572    3295.8061    345.90044    7621.4179    1327.1229   -1088.4325   -127.10062    20.213552    20.124046    20.389372           90           90           90 
   56500    268.23659   -158.29037   -124.62357   -158.29037            0    2910.3903    20.168165    20.058457    20.742368            0            0            0    8391.1647    3811.8826    2342.8396    2576.4487    421.68964    230.31205    3514.8211    20.168165    20.058457    20.742368           90           90           90 
   57000    271.94302     -159.161     -125.029     -159.161            0    1377.9662    20.086176    20.043807    20.825745            0            0            0    8384.5165   -2216.2003    6783.2832   -433.18435   -1661.9039   -610.62561    1054.3212    20.086176    20.043807    20.825745           90           90           90 
   57500      263.428   -157.96403   -124.90076   -157.96403            0    1090.9698    20.158075    20.160179    20.725933            0            0            0    8422.8197    2633.7005    924.70986   -285.50083   -143.62821    1819.9384   -1022.4061    20.158075    20.160179    20.725933           90           90           90 
   58000    263.72284   -158.04008    -124.9398   -158.04008            0    3498.2506    20.199105    20.067287    20.368262            0            0            0    8256.0967    2435.9107    4287.3396    3771.5015    1571.8601    2127.4018   -1512.4582    20.199105    20.067287    20.368262           90           90           90 
   58500    261.56081   -157.82568   -124.99677   -157.82568            0    1704.3933    20.371386    20.232647    20.406047            0            0            0    8410.7008   -596.72151     3269.633    2440.2684   -1358.6828   -1231.2352   -4048.0867    20.371386    20.232647    20.406047           90           90           90 
   59000      267.903   -157.39455   -123.76962   -157.39455            0    2019.0487     20.22889    20.225302    20.521036            0            0            0    8395.8825    2046.8653    383.14311    3627.1378    1118.6134    -799.2023   -949.02253     20.22889    20.225302    20.521036           90           90           90 
   59500    267.94099   -157.34565   -123.71594   -157.34565            0    4217.8958    20.070935    20.060537    20.584887            0            0            0    8288.1699    4292.1609    4151.7073    4209.8193    320.06195    563.36356   -631.88598    20.070935    20.060537    20.584887           90           90           90 
   60000    259.22586   -158.47211   -125.93625   -158.47211            0    1236.7587    20.174535    20.161271    20.699177            0            0            0    8419.2714     758.4159    1180.7346    1771.1257    13.237457    965.46348    157.21142    20.174535    20.161271    20.699177           90           90           90 
   60500    268.63872   -159.83146   -126.11418   -159.83146            0     3515.738    20.167936    20.199664    20.613514            0            0            0    8397.6473    2940.0874    3861.7669    3745.3598   -1230.5545    73.263866   -1445.4127    20.167936    20.199664    20.613514           90           90           90 
   61000    264.70071   -157.94558   -124.72257   -157.94558            0    1734.4111    20.084335    20.125957    20.486631            0            0            0    8281.0335    2585.6489    2893.9315   -276.34708    71.781298    830.08266    151.20236    20.084335    20.125957    20.486631           90           90           90 
   61500    277.40616   -159.19988   -124.38219   -159.19988            0    7748.2469    20.189331    20.176824    20.529814            0            0            0    8362.9547    9901.6966     3740.034      9603.01    1977.0692   -724.05898   -3717.9753    20.189331    20.176824    20.529814           90           90           90 
   62000    279.20178   -158.79399   -123.75093   -158.79399            0    4274.2136    20.168677    20.188998    20.557654            0            0            0    8370.7757     4538.874    3105.4296    5178.3373   -1802.9945   -445.72958   -1579.0436    20.168677    20.188998    20.557654           90           90           90 
   62500     264.2795    -158.3577   -125.18756    -158.3577            0    5705.8715    20.081482    20.095543      20.4945            0            0            0    8270.5205    5470.2494    4154.4143    7492.9508    1670.5428    2211.6652   -172.07751    20.081482    20.095543      20.4945           90           90           90 
   63000     273.4423   -157.06283   -122.74265   -157.06283            0    2933.4002    20.217403    20.181218    20.531947            0            0            0    8377.2768    5744.5328    3893.0154   -837.34753   -347.23813    382.04125    3766.2608    20.217403    20.181218    20.531947           90           90           90 
   63500    255.79881   -157.46716   -125.36144   -157.46716            0    2493.0493    20.332693     20.25506    20.537312            0            0            0    8458.0849   -275.52894    3311.7582    4442.9186    636.68581    879.82803    519.95681    20.332693     20.25506    20.537312           90           90           90 
   64000    268.23644   -157.54811   -123.88132   -157.54811            0    4763.8942    20.205803    20.042925    20.494289            0            0            0    8299.8469    2451.1017    6868.8594    4971.7215   -1872.6227    1311.3007   -350.35253    20.205803    20.042925    20.494289           90           90           90 
   64500    265.04646   -157.95824   -124.69184   -157.95824            0    4038.6649    20.119298    20.087294    20.617545            0            0            0    8332.4212    3374.2983    5841.5187    2900.1777     670.0152   -42.342591    3333.5608    20.119298    20.087294    20.617545           90           90           90 
   65000    258.02747   -159.16244     -126.777   -159.16244            0    2679.0206     20.04449     20.24136    20.677535            0            0            0    8389.4495    2753.3792    1998.0852    3285.5973   -1493.8375    757.34756   -1176.6645     20.04449     20.24136    20.677535           90           90           90 
   65500    265.60172   -159.47317   -126.13707   -159.47317            0     2863.848    20.085169    20.240126    20.514977            0            0            0    8339.8788     4483.009    1812.4419     2296.093    1026.1683    328.73848    143.37916    20.085169    20.240126    20.514977           90           90           90 
   66000     274.7244    -156.7173    -122.2362    -156.7173            0      4737.79    20.399229    20.076024    20.276391            0            0            0       8303.9    1536.2167    8782.4064    3894.7469    390.64779   -181.00023    2496.0375    20.399229    20.076024    20.276391           90           90           90 
   66500    264.76098   -157.16257   -123.93199   -157.16257            0    1982.3451    20.543798    20.083027    20.414704            0            0            0     8422.732    2705.0518   -1506.8771    4748.8605   -823.18442    435.07818    519.59716    20.543798    20.083027    20.414704           90           90           90 
   67000    241.71528   -155.92738   -125.58931   -155.92738            0    1932.4609    20.125712    20.094827    20.605782            0            0            0    8333.4462    4905.1776    -1681.492     2573.697    1118.8492    468.72974    828.55317    20.125712    20.094827    20.605782           90           90           90 
   67500    268.33861   -158.97142   -125.29181   -158.97142            0    2327.4497    19.966411    20.152922    20.761041            0            0            0    8353.8591    2034.0917    3996.4891    951.76833   -226.41554   -1096.8664     1237.406    19.966411    20.152922    20.761041           90           90           90 
   68000    256.92922    -158.2677    -126.0201    -158.2677            0    3838.8219     20.13119    20.159746    20.681365            0            0            0    8393.3183    7581.6856    3454.7583    480.02177    1063.4025   -749.90596    1345.6363     20.13119    20.159746    20.681365           90           90           90 
   68500    270.17145   -157.98432   -124.07467   -157.98432            0    2130.6146    20.287173    20.207497    20.502453            0            0            0    8405.0419    2274.2562    1479.5377    2638.0499    1125.7249   -1950.1625   -82.047865    20.287173    20.207497    20.502453           90           90           90 
   69000    264.11297   -159.51996   -126.37072   -159.51996            0    5442.7896    20.187651    20.178165    20.260503            0            0            0    8253.1111    3198.1028    6881.8559      6248.41    572.35138   -2074.5599    942.98669    20.187651    20.178165    20.260503           90           90           90 
   69500    265.92245   -160.17089   -126.79454   -160.17089            0    1857.6137    20.193284    20.331772    20.383688            0            0            0     8368.834    3972.7315   -129.72957    1729.8392    -1814.056    820.66106     538.1111    20.193284    20.331772    20.383688           90           90           90 
   70000    261.97706   -158.82502   -125.94386   -158.82502            0    2043.9118    20.179309    20.108871    20.531835            0            0            0    8331.4724    4421.4271    532.35313    1177.9552    444.85559   -1232.3208   -382.59075    20.179309    20.108871    20.531835           90           90           90 
   70500    259.07433   -158.54447   -126.02764   -158.54447            0    5005.5037    20.201403    19.981386    20.643126            0            0            0    8332.6397     934.4972    11010.402    3071.6118   -1006.6908     25.37422   -2969.8744    20.201403    19.981386    20.643126           90           90           90 
   71000    262.31969   -158.61621   -125.69205   -158.61621            0    8318.1541    20.220391    20.047743    20.597721            0            0            0    8349.7641    6549.8281    12494.828    5909.8064    1836.3371   -703.36392   -206.37103    20.220391    20.047743    20.597721           90           90           90 
   71500    263.87523   -158.56835   -125.44895   -158.56835            0    1403.7918    20.097708    20.280141    20.386999            0            0            0    8309.4215    -61.53527   -1152.4141    5425.3247   -597.83347    2805.4022    246.90967    20.097708    20.280141    20.386999           90           90           90 
   72000    267.17086   -155.93346   -122.40042   -155.93346            0    3520.5112    20.131716    20.455851    20.404205            0            0            0    8402.6838     1254.384    6595.4324    2711.7173   -917.12404    2478.7801    313.74696    20.131716    20.455851    20.404205           90           90           90 
   72500     266.5361   -158.16356   -124.71019   -158.16356            0       3109.2    20.176239    20.196835    20.488646            0            0            0    8349.0446    4337.6215    1878.6537    3111.3249   -2064.6498   -651.68457   -466.83958    20.176239    20.196835    20.488646           90           90           90 
   73000    268.91791   -159.80031     -126.048   -159.80031            0    4192.2943    20.324404    19.834446    20.629249            0            0            0    8316.1305    4169.1833    3036.7055    5370.9942    109.90325   -848.42363    2804.4694    20.324404    19.834446    20.629249           90           90           90 
   73500    262.34601    -157.5701   -124.64263    -157.5701            0    5188.6573    20.354716    19.832924    20.659607            0            0            0    8340.1499    5565.3496    5406.3201    4594.3021   -458.30816   -188.58042    701.94355    20.354716    19.832924    20.659607           90           90           90 
   74000    261.26916   -158.48551    -125.6932   -158.48551            0    3693.8381    20.084277    20.159343    20.487831            0            0            0    8295.2324     7079.397    583.54321    3418.5741   -340.25078   -1991.2225   -23.814245    20.084277    20.159343    20.487831           90           90           90 
   74500    262.13987   -158.43928   -125.53769   -158.43928            0    3065.7627    20.036291    20.458921    20.405734            0            0            0    8364.7365    1640.5282    6375.4664    1181.2935   -139.79349    3667.6303    1223.9809    20.036291    20.458921    20.405734           90           90           90 
   75000    264.09983   -156.82695   -123.67936   -156.82695            0     2785.064    20.143162    20.292627    20.418557            0            0            0    8346.2419    3411.4645    1907.9006     3035.827    1678.3755   -1191.4954   -303.93883    20.143162    20.292627    20.418557           90           90           90 
   75500    264.53516   -159.05106   -125.84883   -159.05106            0    398.16829    20.271319    20.069735    20.529134            0            0            0    8352.0727    457.56657    871.63784   -134.69955   -1496.0958    4351.1157    1093.6826    20.271319    20.069735    20.529134           90           90           90 
   76000    263.55971   -158.11658   -125.03678   -158.11658            0    3897.0771    20.214942    20.003245    20.644184            0            0            0    8347.7737    1546.7921     6251.908    3892.5314    956.49555    556.40527      305.478    20.214942    20.003245    20.644184           90           90           90 
   76500    259.43885   -160.91809    -128.3555   -160.91809            0    4106.7454    20.090723    20.123529    20.604111            0            0            0     8330.165    2510.9853    6869.5189     2939.732    92.390605   -441.12908   -900.59233    20.090723    20.123529    20.604111           90           90           90 
   77000    253.72579   -160.45774   -128.61221   -160.45774            0    2962.9933    20.107362    20.144178    20.435187            0            0            0    8277.1965      6424.97    -369.4887    2833.4986    1855.7811   -3008.9328    1210.0684    20.107362    20.144178    20.435187           90           90           90 
   77500    264.79161   -158.91877   -125.68435   -158.91877            0    4893.8431    20.260324    20.143177    20.364898            0            0            0    8311.0636    3062.2303    5905.5764    5713.7227    1712.0028    -3749.198   -3335.4716    20.260324    20.143177    20.364898           90           90           90 
   78000    277.00688   -157.04508    -122.2775   -157.04508            0     1199.996    20.326332    20.147914    20.485813            0            0            0    8389.6205    45.463391    2130.7568    1423.7679    197.68561   -1954.8342   -716.27575    20.326332    20.147914    20.485813           90           90           90 
   78500    269.53945    -160.8092   -126.97888    -160.8092            0    1886.3255    20.215784    20.202099    20.571172            0            0            0    8401.2928    1440.1187     902.5255    3316.3324     886.1854    543.18128    657.00657    20.215784    20.202099    20.571172           90           90           90 
   79000    257.77609   -158.88976   -126.53587   -158.88976            0    4052.9016    19.977937    20.162793    20.540343            0            0            0    8273.8764    1978.5057    8776.7357    1403.4635   -1053.5518   -1470.2006    1623.8757    19.977937    20.162793    20.540343           90           90           90 
   79500    259.17533   -157.03631    -124.5068   -157.03631            0      1504.53    20.082235    20.230263    20.585349            0            0            0    8363.1869    3856.5284    3016.7191   -2359.6575   -259.83265     5913.965    107.62314    20.082235    20.230263    20.585349           90           90           90 
   80000    266.08821   -157.52986    -124.1327   -157.52986            0   -6.3761612     20.32189    20.199372    20.638669            0            0            0    8471.9552   -659.58902   -1481.8434    2122.3039    41.084337   -1482.0138   -327.37241     20.32189    20.199372    20.638669           90           90           90 
   80500    262.19156   -157.23832   -124.33024   -157.23832            0    2868.9721    20.154007    20.009752    20.474063            0            0            0    8256.7125    6361.0847    2934.6925   -688.86088   -650.51585    1282.8592   -273.26571    20.154007    20.009752    20.474063           90           90           90 
   81000    268.51698   -159.42411   -125.72211   -159.42411            0    3709.9011    20.157094    20.230059     20.46172            0            0            0    8343.8639    3859.2613    3731.0691     3539.373   -1889.3039   -462.42366   -981.06105    20.157094    20.230059     20.46172           90           90           90 
   81500    261.43606   -158.50406   -125.69081   -158.50406            0    1542.3803    20.225262    20.458552    20.484747            0            0            0    8476.1703   -384.12799    4021.6627    989.60622    1868.5896   -3738.6392   -755.07453    20.225262    20.458552    20.484747           90           90           90 
   82000    264.76036   -159.29205   -126.06156   -159.29205            0    2724.6029     20.08662    20.035365    20.438907            0            0            0    8225.4901    2825.6288    5099.0858    249.09404   -2016.5652    -410.2726   -1092.8008     20.08662    20.035365    20.438907           90           90           90 
   82500    267.91753   -156.66131   -123.03455   -156.66131            0     6369.637    20.247528    19.918114    20.627713            0            0            0    8319.0037   -314.77172    11258.916    8164.7668   -43.144508   -39.068353    1835.6075    20.247528    19.918114    20.627713           90           90           90 
   83000    275.55574     -158.947   -124.36155     -158.947            0    2229.3154    20.338383    20.131474    20.689406            0            0            0    8471.1042    2150.4273    3747.2847     790.2342    1760.2877   -108.03931   -1204.7041    20.338383    20.131474    20.689406           90           90           90 
   83500    264.88637    -157.5219   -124.27559    -157.5219            0    2589.9219    20.134754    20.275552    20.501734            0            0            0    8369.6944    675.46191     2827.068     4267.236    501.19161   -1002.8869    2843.3201    20.134754    20.275552    20.501734           90           90           90 
   84000    284.39546   -158.37972   -122.68479   -158.37972            0    2954.2824    20.066075    20.240857    20.373544            0            0            0    8274.8076    4398.9122    309.85223    4154.0829    221.31949    294.14904    466.58985    20.066075    20.240857    20.373544           90           90           90 
   84500    267.80391   -158.19997   -124.58748   -158.19997            0       2.8645    20.244781    20.280982    20.464902            0            0            0     8402.562    4507.3981   -2967.1615   -1531.6432   -1912.2428    486.12843   -341.04708    20.244781    20.280982    20.464902           90           90           90 
   85000    264.90807   -158.79087   -125.54184   -158.79087            0    3763.3288     20.30836    20.161825    20.491014            0            0            0    8390.1196     1203.172     7548.945    2537.8693    257.28669   -857.60313    987.43167     20.30836    20.161825    20.491014           90           90           90 
   85500    275.90132   -157.77944   -123.15063   -157.77944            0      3184.52    20.148815    20.026331    20.494127            0            0            0    8269.5206    2249.9357    2781.9897    4521.6348    306.33026    406.62798   -694.02976    20.148815    20.026331    20.494127           90           90           90 
   86000     276.3234   -159.25576   -124.57397   -159.25576            0    4234.1732    20.104131    20.155637    20.583019            0            0            0    8340.4772     7284.246    4732.9792    685.29445   -319.05447   -1372.9544   -1151.5369    20.104131    20.155637    20.583019           90           90           90 
   86500    257.43964    -158.8074   -126.49574    -158.8074            0    2805.8134    20.168758     20.31499    20.657639            0            0            0    8464.0153    1349.0353    2194.8917    4873.5131   -968.26693    565.88745   -940.64997    20.168758     20.31499    20.657639           90           90           90 
   87000    254.68379   -158.43831   -126.47254   -158.43831            0    3872.2367    20.146751    20.074114    20.475384            0            0            0     8280.822    3546.5004    2688.6929    5381.5168    850.28311   -2242.2707    572.22058    20.146751    20.074114    20.475384           90           90           90 
   87500    259.32622   -158.31826   -125.76981   -158.31826            0    4163.8175    20.354912    19.994062    20.389254            0            0            0     8297.965   -526.24577    8977.8136    4039.8848    649.85058   -375.30384   -870.42157    20.354912    19.994062    20.389254           90           90           90 
   88000     273.8689     -158.567   -124.19328     -158.567            0    3238.9562    20.432656    20.046599    20.496921            0            0            0    8395.6469    4806.8915    2857.1394    2052.8376    2218.7566    718.60729     2195.584    20.432656    20.046599    20.496921           90           90           90 
   88500    260.12096   -158.45011   -125.80192   -158.45011            0    2561.0474     20.11223    20.190371    20.592711            0            0            0    8362.1518    3395.1031    596.37533    3691.6636   -2460.8756   -2513.6995    48.631685     20.11223    20.190371    20.592711           90           90           90 
   89000    248.79648    -159.0376   -127.81076    -159.0376            0    2964.6752    19.851394    20.287279    20.585399            0            0            0    8290.3735     4893.536    4589.4225   -588.93281    475.65671    -740.9485   -819.22388    19.851394    20.287279    20.585399           90           90           90 
   89500    255.49434   -160.12051   -128.05301   -160.12051            0    191.02105    20.078651    20.292892    20.547563            0            0            0    8372.1847    3765.3883   -4046.0861    853.76089     276.9286   -271.11694   -1063.0526    20.078651    20.292892    20.547563           90           90           90 
   90000    253.64255   -159.15059   -127.31551   -159.15059            0    1405.8561    20.388428    20.034102    20.296775            0            0            0    8290.4989    659.64534    1929.1663    1628.7567   -434.21009    563.62189    1326.1893    20.388428    20.034102    20.296775           90           90           90 
   90500    275.23754   -159.58409   -125.03858   -159.58409            0     5801.652      20.4672    19.986176    20.292989            0            0            0    8301.0719    2717.8649    9491.2465    5195.8445   -1353.1169    37.663776   -336.28836      20.4672    19.986176    20.292989           90           90           90 
   91000    270.04526   -159.32317   -125.42936   -159.32317            0    1223.2084    20.220859    20.166296    20.444987            0            0            0    8337.0532    1227.3434    1649.5299    792.75198     298.0313   -1572.6641     1323.246    20.220859    20.166296    20.444987           90           90           90 
   91500    257.46287   -161.04812   -128.73354   -161.04812            0    4427.3182    19.996796    20.219771    20.582377            0            0            0    8322.0857    2862.1261    1941.2212    8478.6074    1495.0027   -145.68098   -2094.9591    19.996796    20.219771    20.582377           90           90           90 
   92000      258.102   -159.02625   -126.63145   -159.02625            0    6473.9312      20.0179     20.08661    20.559323            0            0            0    8266.7344    8486.0563    5645.8875    5289.8498    107.54061   -1123.3208   -1704.8134      20.0179     20.08661    20.559323           90           90           90 
   92500    250.40374   -157.42217   -125.99359   -157.42217            0    1091.9954    20.327483    20.180317    20.532102            0            0            0    8422.5775    181.43425    2985.1581     109.3938    559.71659     5150.511   -2455.0385    20.327483    20.180317    20.532102           90           90           90 
   93000    268.58612   -158.97088   -125.26021   -158.97088            0    4399.2119    20.217059    20.180725    20.415069            0            0            0     8329.244    6730.1978    1389.2212    5078.2167   -413.44361   -1950.2188   -103.91118    20.217059    20.180725    20.415069           90           90           90 
   93500    263.14037   -159.46478   -126.43761   -159.46478            0    4084.9124     20.12727     20.17428    20.436072            0            0            0    8298.1319    3075.2552    5489.1227    3690.3595   -492.30867    -406.8454   -133.12011     20.12727     20.17428    20.436072           90           90           90 
   94000    255.37035   -158.60976   -126.55782   -158.60976            0    2486.9364     20.22227    20.060439    20.492581            0            0            0    8313.1764    3958.9938    624.29391    2877.5215   -1949.9185    1439.8462   -531.86576     20.22227    20.060439    20.492581           90           90           90 
   94500      267.225   -159.61965   -126.07981   -159.61965            0    5450.8519     20.31381    19.969868    20.599742            0            0            0    8356.5756    4337.8439    5080.7415    6933.9703    237.63745   -1858.3592    1782.3498     20.31381    19.969868    20.599742           90           90           90 
   95000    257.49473   -160.30596   -127.98738   -160.30596            0    2552.6547    20.214935    20.044228    20.570406            0            0            0      8334.98    2552.8734    4124.0068    981.08369    -56.62161    -3298.756   -1112.4101    20.214935    20.044228    20.570406           90           90           90 
   95500    262.77136   -158.15614   -125.17528   -158.15614            0    2696.9233    20.119062    20.245478    20.524519            0            0            0    8360.0476   -819.35219     5509.163    3400.9592   -1006.8162     45.38739    1250.5722    20.119062    20.245478    20.524519           90           90           90 
   96000    264.57365   -156.86413   -123.65707   -156.86413            0    2355.5003    20.041591    20.267609     20.52482            0            0            0    8337.0817    4830.9115   -741.68214    2977.2715   -1128.5119   -1044.6933    1093.4796    20.041591    20.267609     20.52482           90           90           90 
   96500    268.25092   -157.96974   -124.30114   -157.96974            0    1045.1814    20.173776    20.166546    20.576307            0            0            0    8371.1697    2250.6305   -3789.8234    4674.7371   -344.58114    737.53029    -2865.055    20.173776    20.166546    20.576307           90           90           90 
   97000    268.05161   -158.79907   -125.15548   -158.79907            0     3126.288    20.258209    19.948036    20.547034            0            0            0    8303.2923    2077.8497    6176.2311    1124.7832    623.97802    805.70319    1506.8258    20.258209    19.948036    20.547034           90           90           90 
   97500    266.20705   -158.30072   -124.88864   -158.30072            0   -358.01952    20.230969    19.987976    20.513214            0            0            0    8295.0536   -1339.7384   -400.37548    666.05533   -2553.1437   -849.51433   -25.958763    20.230969    19.987976    20.513214           90           90           90 
   98000    262.45938   -159.62859   -126.68689   -159.62859            0    3648.0387    20.224584    20.141784    20.531411            0            0            0    8363.6593    1704.6256    7135.6967    2103.7937    14.666807    2658.2319    1947.1243    20.224584    20.141784    20.531411           90           90           90 
   98500    271.23726   -159.81109   -125.76766   -159.81109            0    3595.2296    20.228968    20.108779    20.481611            0            0            0    8331.5067    5725.5316    2907.6045    2152.5526    689.04937   -2899.7486   -1493.9968    20.228968    20.108779    20.481611           90           90           90 
   99000    255.76728   -157.97445   -125.87269   -157.97445            0    4957.2635    20.187664    20.114107    20.400139            0            0            0    8283.6156    3273.2713    8388.2272     3210.292   -184.04475    640.73819   -3.0450126    20.187664    20.114107    20.400139           90           90           90 
   99500    267.50102   -156.85783   -123.28335   -156.85783            0     4075.929    19.956526     20.38783    20.473337            0            0            0    8329.9921    3832.7012    2004.7563    6390.3295     -472.121    2009.2888    2452.2316    19.956526     20.38783    20.473337           90           90           90 
  100000     255.6432   -156.89505   -124.80886   -156.89505            0    993.76818    19.882037    20.499785    20.662879            0            0            0     8421.724    3029.9417   -453.37593    404.73873    104.49543    1005.3678    1817.6468    19.882037    20.499785    20.662879           90           90           90 
  100500    269.90859   -158.21476    -124.3381   -158.21476            0    5000.9267    20.131927    20.095575    20.632068            0            0            0     8346.964    5020.1549    7906.5856    2076.0397    548.43889    256.60439    105.87348    20.131927    20.095575    20.632068           90           90           90 
  101000    258.05009   -158.39938    -126.0111   -158.39938            0    3410.8767    20.394214    19.790368    20.548543            0            0            0     8293.577    2773.0123    4748.6491    2710.9686   -182.38905   -2531.6539   -426.15648    20.394214    19.790368    20.548543           90           90           90 
  101500    258.95878   -158.29036   -125.78802   -158.29036            0    3654.8765    20.416464    19.965038    20.562749            0            0            0    8381.6945     1123.696    6343.1143    3497.8193   -970.12663   -1109.2162    1363.2428    20.416464    19.965038    20.562749           90           90           90 
  102000    257.20243   -157.82792   -125.54603   -157.82792            0     4363.132    20.162095    20.168912    20.571581            0            0            0    8365.3826    5097.7681    1772.0439     6219.584    463.99758    -1545.961    -3052.941    20.162095    20.168912    20.571581           90           90           90 
  102500     252.7542   -157.43837   -125.71478   -157.43837            0    4358.9925     20.01289    20.223029    20.547711            0            0            0    8316.0953    4740.0589     5321.132    3015.7867    463.05616   -254.35975    473.09941     20.01289    20.223029    20.547711           90           90           90 
  103000    270.60031   -158.72181   -124.75833   -158.72181            0    7474.3176    20.143225    20.222616    20.569398            0            0            0    8378.9176    8009.6795    6586.8529    7826.4205   -613.11558   -1116.5602    1170.9597    20.143225    20.222616    20.569398           90           90           90 
  103500    255.81419   -158.38709   -126.27945   -158.38709            0    3469.9397    20.213206    20.122585    20.467188            0            0            0    8324.8642    2845.0178    5221.8005    2343.0007    1015.3415   -1262.1851   -1694.4501    20.213206    20.122585    20.467188           90           90           90 
  104000    263.53825   -158.06536   -124.98825   -158.06536            0    5153.8771     20.16197    20.121783    20.455863            0            0            0    8298.8366    8597.4342    848.80953    6015.3877   -638.76397     192.1874    2212.8977     20.16197    20.121783    20.455863           90           90           90 
  104500    254.72621   -158.13844   -126.16734   -158.13844            0       1991.2    20.164431    20.200682    20.568342            0            0            0    8378.2109     5424.902   -1062.9494    1611.6473    2.3164901    -1815.924   -660.98577    20.164431    20.200682    20.568342           90           90           90 
  105000    275.17439   -158.26363   -123.72605   -158.26363            0    1796.4653     20.18157    20.029275    20.551802            0            0            0    8307.4948    2830.7814    1669.1355    889.47912    429.96198    240.22761    -166.2103     20.18157    20.029275    20.551802           90           90           90 
  105500    258.76914   -156.60151   -124.12298   -156.60151            0    3511.9311    20.333249    20.019417     20.49163            0            0            0    8341.3187     1641.578    5052.5138    3841.7015   -717.21235   -1252.4203   -1955.6356    20.333249    20.019417     20.49163           90           90           90 
  106000    268.99933   -158.12132   -124.35878   -158.12132            0    4168.7936    20.309166    20.194169    20.477299            0            0            0    8398.2877    217.47429    7680.4212    4608.4853    1015.7886    735.81501    -1303.388    20.309166    20.194169    20.477299           90           90           90 
  106500    262.14029   -157.57843   -124.67678   -157.57843            0     2461.467    20.018886    20.216899    20.510076            0            0            0    8300.8342     3230.626    1669.4359     2484.339     500.3947   -540.72286   -1752.7019    20.018886    20.216899    20.510076           90           90           90 
  107000    259.41806   -157.59815   -125.03818   -157.59815            0    2596.0568    20.057655    20.147268    20.674434            0            0            0    8354.6821    3923.7229    3101.9822    762.46524    913.53752   -1406.8069    800.19248    20.057655    20.147268    20.674434           90           90           90 
  107500    261.71165   -158.12799   -125.28014   -158.12799            0    1651.6135    20.246842     19.99398    20.733493            0            0            0    8393.2283    986.80252    1425.9631     2542.075   -637.33771   -277.77917   -550.08748    20.246842     19.99398    20.733493           90           90           90 
  108000    262.63085   -156.92178   -123.95856   -156.92178            0    285.35039    20.386758    20.018853    20.611328            0            0            0    8411.8851    1197.7428   -569.16239    227.47074    380.40305   -843.85266    2763.0824    20.386758    20.018853    20.611328           90           90           90 
  108500    277.22602   -158.07684   -123.28176   -158.07684            0    5064.4732    20.305442    20.167155    20.363599            0            0            0    8338.9546    3772.0316    7809.1904    3612.1978    1253.4359    1328.7394   -1606.3221    20.305442    20.167155    20.363599           90           90           90 
  109000     260.3281   -157.99744   -125.32324   -157.99744            0    3921.2419    20.099464    20.385527    20.243091            0            0            0    8294.3669    1443.1337    2509.6968    7810.8953   -484.98561    1070.2623    1921.9673    20.099464    20.385527    20.243091           90           90           90 
  109500    254.89086   -157.14371   -125.15195   -157.14371            0    1724.8809    20.166255    20.387091      20.5268            0            0            0    8439.2095    314.99789    1373.6422    3486.0026    2019.4729    1001.1415    1154.4197    20.166255    20.387091      20.5268           90           90           90 
  110000    267.01542    -158.8182   -125.30466    -158.8182            0    4126.5747    20.174314    19.983077    20.719668            0            0            0    8353.0281    7064.5362    3808.6645    1506.5233   -1299.6627    4493.6339   -213.56065    20.174314    19.983077    20.719668           90           90           90 
  110500    260.37827    -159.6459   -126.96541    -159.6459            0    3004.2824     20.18592     19.93095    20.765306            0            0            0    8354.3925    3714.4512    1791.1273    3507.2689   -1818.8969   -1124.0103    2537.7293     20.18592     19.93095    20.765306           90           90           90 
  111000    273.30572   -159.04866   -124.74562   -159.04866            0     5121.322    20.142381    20.181028    20.664372            0            0            0    8399.9422    2267.4702    9744.2884    3352.2074   -532.44429   -478.18349   -2253.9935    20.142381    20.181028    20.664372           90           90           90 
  111500    272.55759   -159.13248   -124.92334   -159.13248            0    3196.5557    20.094397    20.292775    20.449823            0            0            0    8338.8467     4290.585    2935.6393    2363.4428   -90.520099   -3229.0994    1262.7907    20.094397    20.292775    20.449823           90           90           90 
  112000    263.32159   -158.35232   -125.30241   -158.35232            0    3662.4247    20.225922    20.217309    20.325948            0            0            0     8311.559    3592.3318    987.31924    6407.6231    2064.9796   -1258.4047   -655.35941    20.225922    20.217309    20.325948           90           90           90 
[...]
  373000    255.72024   -160.77898   -128.68312   -160.77898            0    3064.3942    20.078152    20.085414     20.39596            0            0            0    8225.2416     4289.089    2929.8428    1974.2507   -1433.4473    1354.8098   -407.30561    20.078152    20.085414     20.39596           90           90           90 
  373500    267.07312   -160.47963   -126.95885   -160.47963            0    832.90811    20.129093    20.115749    20.471358            0            0            0     8289.094   -140.83521    1387.0482    1252.5114    1285.3742    556.81217   -925.17017    20.129093    20.115749    20.471358           90           90           90 
  374000    271.94585   -158.13857   -124.00621   -158.13857            0     3578.222     20.21274    20.199007    20.524833            0            0            0     8379.823     3797.696    4569.2704    2367.6997    758.15502    1780.8907   -2089.1353     20.21274    20.199007    20.524833           90           90           90 
  374500    264.17383   -155.37495   -122.21808   -155.37495            0    4090.5406    20.197454    20.207018    20.561052            0            0            0    8391.5887    4184.1771    2636.5772    5450.8676   -833.01669   -3105.3695   -2277.0937    20.197454    20.207018    20.561052           90           90           90 
  375000    281.74267   -157.90148    -122.5395   -157.90148            0    3444.7791    20.139585    20.109079    20.451745            0            0            0    8282.7219    3392.9873    5251.6974    1689.6526    1248.3735   -34.235086    2502.2155    20.139585    20.109079    20.451745           90           90           90 
  375500    270.77021   -159.36901   -125.38421   -159.36901            0    3510.5029    20.202261    20.218507    20.401418            0            0            0    8333.1541    1270.8532    980.97639    8279.6791   -168.31069   -397.21098   -479.94791    20.202261    20.218507    20.401418           90           90           90 
  376000    265.97568   -157.54521   -124.16218   -157.54521            0    1117.3941    20.159106    20.267439    20.458179            0            0            0     8358.669   -2077.5228    2256.3045    3173.4005    992.05629   -453.06562     4591.049    20.159106    20.267439    20.458179           90           90           90 
  376500    270.87789   -157.47277   -123.47446   -157.47277            0     1969.812    20.132724    20.220952    20.593428            0            0            0    8383.6433    1558.6428    1772.8963    2577.8968    334.87942   -327.06376   -532.82217    20.132724    20.220952    20.593428           90           90           90 
  377000    263.91896   -160.12621   -127.00132   -160.12621            0    2819.8657    20.146088    20.025751     20.56275            0            0            0    8295.8471    1465.1431    2476.3017    4518.1523    1941.9864    941.02322    331.80072    20.146088    20.025751     20.56275           90           90           90 
  377500    256.40417   -158.59375   -126.41205   -158.59375            0    937.14927    20.396794    19.991114    20.552047            0            0            0    8380.1926   -548.35738    1812.2138    1547.5914   -1555.8396    2011.4258    713.92731    20.396794    19.991114    20.552047           90           90           90 
  378000    270.69859   -159.03607   -125.06026   -159.03607            0     4453.518    20.290118    20.141685    20.374955            0            0            0    8326.7787    3350.5116    6046.7677    3963.2747    2945.4893    1961.4216   -841.55241    20.290118    20.141685    20.374955           90           90           90 
  378500    255.69305   -158.93304   -126.84059   -158.93304            0    1067.2891    20.041141    20.451957    20.318491            0            0            0    8328.1543    3463.6572   -1932.4655    1670.6755    323.53601   -1585.7491      1721.99    20.041141    20.451957    20.318491           90           90           90 
  379000     258.8877   -157.69442   -125.20101   -157.69442            0    4322.3881    20.023047     20.36828    20.387889            0            0            0    8314.8952    7691.1962    498.23202    4777.7361   -75.947109    2081.7083    1112.9743    20.023047     20.36828    20.387889           90           90           90 
  379500     267.7737   -159.67078   -126.06207   -159.67078            0     3059.361    20.272192    20.011467     20.51252            0            0            0    8321.4431    930.00028    4735.1269    3512.9557    2051.6483   -1031.5901    811.67469    20.272192    20.011467     20.51252           90           90           90 
  380000    255.96121   -158.50155   -126.37545   -158.50155            0    1901.2714    20.303559    19.948637    20.586343            0            0            0     8338.052    1740.6935    4196.4342   -233.31341   -520.69893    1547.4046    -316.1397    20.303559    19.948637    20.586343           90           90           90 
  380500    258.94099   -159.44747   -126.94737   -159.44747            0    2941.6718    20.170795    20.132385    20.548239            0            0            0    8344.3561    515.45069    2668.0956    5641.4691   -263.56915    958.45732    108.27002    20.170795    20.132385    20.548239           90           90           90 
  381000    259.79562   -159.08752   -126.48016   -159.08752            0    4583.8389    20.016348    20.276068    20.420204            0            0            0    8287.5974    3746.3882    5141.0713    4864.0571    2159.2219     417.4614    5596.2034    20.016348    20.276068    20.420204           90           90           90 
  381500    272.21388    -156.7271    -122.5611    -156.7271            0   -801.16113    20.187236    20.286984    20.398468            0            0            0    8353.9505   -4023.4872    1617.4119    2.5918377    -2658.094   -2334.8937   -494.91047    20.187236    20.286984    20.398468           90           90           90 
  382000    269.96841   -158.69728   -124.81312   -158.69728            0    1968.6727    20.323714    20.120618    20.500901            0            0            0    8383.3448    4567.5547   -829.19943    2167.6628    51.468872    1466.8999    267.97038    20.323714    20.120618    20.500901           90           90           90 
  382500    275.25477    -157.2406   -122.69293    -157.2406            0    4291.3613    20.130794    19.975512     20.51153            0            0            0    8248.1563    2180.2795    7810.2182    2883.5863    1157.3192     243.0229   -3090.3633    20.130794    19.975512     20.51153           90           90           90 
  383000    266.86014   -157.22567   -123.73163   -157.22567            0    1328.2522      20.1332    20.287193    20.687648            0            0            0    8449.7892    2995.1927    1107.5972   -118.03338   -346.26772   -67.302947    990.17505      20.1332    20.287193    20.687648           90           90           90 
  383500    270.21192   -155.80403    -121.8893   -155.80403            0    2646.8249    20.114969    20.272595    20.560992            0            0            0     8384.415    1692.0351    4472.9067    1775.5328    1159.0293    31.666556   -428.17305    20.114969    20.272595    20.560992           90           90           90 
  384000    261.99944   -158.20044   -125.31647   -158.20044            0     3187.746     20.21942    20.074738    20.457099            0            0            0    8303.5274    2774.9784    3630.1633    3158.0962   -28.766508    3230.4812    200.13295     20.21942    20.074738    20.457099           90           90           90 
  384500    257.29556   -158.23438    -125.9408   -158.23438            0     3896.936    20.242416    20.044163    20.481424            0            0            0    8310.1796    1711.6889    7876.6472    2102.4718    888.52697   -103.24884   -2094.7216    20.242416    20.044163    20.481424           90           90           90 
  385000    253.97807   -158.69353   -126.81634   -158.69353            0    2333.6105    20.220392    20.166515    20.528934            0            0            0    8371.1829    1662.5388    1786.0658     3552.227   -529.35567    968.42807    1659.0005    20.220392    20.166515    20.528934           90           90           90 
  385500     256.0815   -158.91124   -126.77004   -158.91124            0    4742.0363    20.143061    20.172967    20.426892            0            0            0    8300.3716     3484.227    6258.6344    4483.2474    1666.5036   -851.18967    392.53754    20.143061    20.172967    20.426892           90           90           90 
  386000    268.72476   -159.72004   -125.99197   -159.72004            0    1431.8823    20.220836    20.217048    20.461905            0            0            0    8364.9414    1184.4068    1580.9893    1530.2508    528.17378   -3092.1022   -991.57128    20.220836    20.217048    20.461905           90           90           90 
  386500    261.19592   -156.70503   -123.92191   -156.70503            0    1590.3926    20.262999    20.157847    20.586507            0            0            0    8408.7322    2374.6162    1863.3252    533.23649    595.22296     152.3016    3083.4705    20.262999    20.157847    20.586507           90           90           90 
  387000    255.88476   -157.43444   -125.31793   -157.43444            0     4044.507    20.133843    19.960133    20.551096            0            0            0    8258.9547    5080.4402    749.35695    6303.7237     120.4114   -609.91869   -1490.1608    20.133843    19.960133    20.551096           90           90           90 
  387500    269.25797   -158.36381   -124.56881   -158.36381            0    443.34588    20.169235    20.256101    20.705914            0            0            0    8459.4024    2837.4332    569.86975   -2077.2653     2043.034   -2468.3821    1141.4814    20.169235    20.256101    20.705914           90           90           90 
  388000    261.29295   -160.27284   -127.47755   -160.27284            0    1761.7822    20.061615    20.303118    20.495534            0            0            0    8348.1049    1614.5067   -267.01721     3937.857    596.95108   -289.41524    777.07562    20.061615    20.303118    20.495534           90           90           90 
  388500    250.82345   -159.25958   -127.77832   -159.25958            0    4459.8913    20.220095    20.085881    20.331664            0            0            0    8257.4699    1836.9151    5280.0641    6262.6947    -581.9075   -1309.8903    1968.0969    20.220095    20.085881    20.331664           90           90           90 
  389000    255.01098   -159.38908   -127.38224   -159.38908            0    2866.5408    20.409665    20.011434     20.34495            0            0            0      8309.42    2679.2641    1401.5991    4518.7593    804.97229    2187.7196   -141.12005    20.409665    20.011434     20.34495           90           90           90 
  389500    255.30651   -159.33258   -127.28865   -159.33258            0    5672.7087    20.191712    20.157557    20.478973            0            0            0    8335.2614    8595.7878     5443.483    2978.8552   -2537.1551   -1354.5511    792.36026    20.191712    20.157557    20.478973           90           90           90 
  390000    254.35905   -159.30592   -127.38091   -159.30592            0    2160.2081     19.94291    20.333224    20.581795            0            0            0    8345.9933    1096.3133    207.88291     5176.428    2562.4559    1791.1239   -857.25985     19.94291    20.333224    20.581795           90           90           90 
  390500    265.85876   -158.59908   -125.23072   -158.59908            0    2589.0993    19.980205    20.221234    20.598229            0            0            0    8322.1872    926.59716    4704.7544    2135.9463    -1133.656    7.0816509    1283.4773    19.980205    20.221234    20.598229           90           90           90 
  391000     269.5748   -157.52643   -123.69166   -157.52643            0    4042.6336    20.319964    20.059809    20.607506            0            0            0    8399.9202    2204.8142    4511.2215    5411.8652    2151.2239   -1683.6032   -2843.0603    20.319964    20.059809    20.607506           90           90           90 
  391500     279.7196   -156.75061   -121.64256   -156.75061            0    5023.3909    20.375811    20.006997    20.524038            0            0            0    8366.8044     3071.459    7614.1516    4384.5621   -2293.7708   -150.64445     2156.023    20.375811    20.006997    20.524038           90           90           90 
  392000    254.80167   -159.80437    -127.8238   -159.80437            0    2255.6611    20.252119    20.120936    20.479245            0            0            0    8345.1201    1748.2646    2545.9937     2472.725   -500.63224   -1209.4577    -1371.101    20.252119    20.120936    20.479245           90           90           90 
  392500    258.74158   -159.88911   -127.41404   -159.88911            0    1313.5706    20.104417    20.138662    20.402964            0            0            0    8260.6717    1745.5085    3860.7361   -1665.5327    127.50003   -764.13781   -942.89035    20.104417    20.138662    20.402964           90           90           90 
  393000      273.199   -159.10553   -124.81589   -159.10553            0    1761.5258    20.211116     20.18842    20.463926            0            0            0    8349.9061    5150.6612   -2213.5201    2347.4364    -203.2595    2744.5107    -3033.072    20.211116     20.18842    20.463926           90           90           90 
  393500    275.45969   -156.68995   -122.11657   -156.68995            0    546.15534    20.281804    20.179654    20.498446            0            0            0    8389.5998   -45.569001    -532.1788    2216.2138   -25.616306    805.11967   -533.32908    20.281804    20.179654    20.498446           90           90           90 
  394000    271.40902   -159.78879   -125.72381   -159.78879            0      4278.25    20.158034    20.143168    20.444148            0            0            0    8301.2781    3217.3609    6063.4055    3553.9836   -1004.4272    295.30932   -1554.7286    20.158034    20.143168    20.444148           90           90           90 
  394500     266.5512   -160.15214   -126.69687   -160.15214            0    1377.6229    20.159923    20.187213    20.519924            0            0            0    8351.0481    246.86197    656.34634    3229.6603   -753.42966   -727.41997   -1211.7461    20.159923    20.187213    20.519924           90           90           90 
  395000    264.71921   -157.36415   -124.13882   -157.36415            0    2429.6878    20.173313    20.105013    20.552144            0            0            0    8335.6359    1472.7729    1870.4684    3945.8223    322.62273   -193.94294    3041.4285    20.173313    20.105013    20.552144           90           90           90 
  395500    255.51605   -158.94298   -126.87275   -158.94298            0    4065.4852    20.234273    20.141347    20.617213            0            0            0    8402.4526    443.32967    7741.0254    4012.1006   -746.87214    656.79004   -2562.9773    20.234273    20.141347    20.617213           90           90           90 
  396000    260.35375   -159.17203   -126.49461   -159.17203            0    5558.0445    20.050182    20.034252    20.450998            0            0            0    8214.9694    3168.9428     5786.515    7718.6756    -1221.042   -270.87697     774.1501    20.050182    20.034252    20.450998           90           90           90 
  396500    259.53705   -160.73958   -128.16467   -160.73958            0    2188.3344    20.193604    20.148528    20.607112            0            0            0    8384.4442    741.84066    3464.1293    2359.0332    38.506689    210.26762    437.88101    20.193604    20.148528    20.607112           90           90           90 
  397000    267.15873   -158.74434   -125.21282   -158.74434            0     505.2116    20.277307    20.150995    20.719851            0            0            0    8466.2952    811.24222    290.92385    413.46872   -409.71624    2667.4882    1976.0146    20.277307    20.150995    20.719851           90           90           90 
  397500    260.50915   -158.14852    -125.4516   -158.14852            0    4942.9684     20.10714    20.035697     20.56804            0            0            0    8286.0521    717.95231    10121.112    3989.8412    51.461036     166.5609    2363.0831     20.10714    20.035697     20.56804           90           90           90 
  398000    269.36892   -159.03134   -125.22242   -159.03134            0    4934.8335    20.114828    20.267612    20.572954            0            0            0    8387.1722    4978.9887    3195.0162    6630.4955    151.18918   -776.79817    1678.7754    20.114828    20.267612    20.572954           90           90           90 
  398500    269.71792   -158.09869   -124.24596   -158.09869            0    3039.1198    20.221233    20.325417    20.459948            0            0            0    8409.1406    3556.9954    5372.4498    187.91432    69.574137   -1808.9989   -402.49309    20.221233    20.325417    20.459948           90           90           90 
  399000    256.69146   -160.97856   -128.76081   -160.97856            0    4242.5065    20.262903    20.089811    20.244719            0            0            0    8241.1772     2221.918    6178.9074    4326.6942   -542.05479   -1081.1426   -1804.8104    20.262903    20.089811    20.244719           90           90           90 
  399500    253.42191    -157.9214   -126.11401    -157.9214            0    4236.5606    20.349154    20.038613    20.473595            0            0            0    8348.4937    2712.5967    5526.8029    4470.2823   -939.64754   -503.75013    1879.6569    20.349154    20.038613    20.473595           90           90           90 
  400000    258.55191   -159.73044   -127.27918   -159.73044            0    3106.8322     20.19986    20.095888    20.740973            0            0            0    8419.4689    1164.9595    3836.2193    4319.3177   -1383.2522    1130.9889    390.80641     20.19986    20.095888    20.740973           90           90           90 
Loop time of 2414.3 on 1 procs for 400000 steps with 972 atoms

Performance: 7.157 ns/day, 3.353 hours/ns, 165.679 timesteps/s
70.3% CPU use with 1 MPI tasks x 1 OpenMP threads

MPI task timing breakdown:
Section |  min time  |  avg time  |  max time  |%varavg| %total
---------------------------------------------------------------
Pair    | 2145.9     | 2145.9     | 2145.9     |   0.0 | 88.88
Bond    | 0.055045   | 0.055045   | 0.055045   |   0.0 |  0.00
Neigh   | 239.96     | 239.96     | 239.96     |   0.0 |  9.94
Comm    | 9.5735     | 9.5735     | 9.5735     |   0.0 |  0.40
Output  | 1.8901     | 1.8901     | 1.8901     |   0.0 |  0.08
Modify  | 15.517     | 15.517     | 15.517     |   0.0 |  0.64
Other   |            | 1.379      |            |       |  0.06

Nlocal:        972.000 ave         972 max         972 min
Histogram: 1 0 0 0 0 0 0 0 0 0
Nghost:        4538.00 ave        4538 max        4538 min
Histogram: 1 0 0 0 0 0 0 0 0 0
Neighs:         0.00000 ave           0 max           0 min
Histogram: 1 0 0 0 0 0 0 0 0 0
FullNghs:      241196.0 ave      241196 max      241196 min
Histogram: 1 0 0 0 0 0 0 0 0 0

Total # of neighbors = 241196
Ave neighs/atom = 248.14403
Ave special neighs/atom = 0.0000000
Neighbor list builds = 40000
Dangerous builds not checked

unfix		3
unfix		2

write_data	data.final.${pid}
write_data	data.final.0
System init for write_data ...

write_restart   restart.lmp.${pid}
write_restart   restart.lmp.0
System init for write_restart ...
Total wall time: 0:40:41
