LAMMPS data file via write_data, version 29 Sep 2021, timestep = 400000

1008 atoms
2 atom types

0.15026665345798307 18.24928834654137 xlo xhi
-0.06449475045164021 22.634883750450193 ylo yhi
0.09249789558316124 19.41321810441776 zlo zhi
0.01691504064577934 -6.732610735524011 0.2861195514826674 xy xz yz

Masses

1 1.008
2 15.999

Atoms # full

1 0 1 0 6.806338117085131 0.9432953131005734 4.895940611743281 0 0 0
2 0 2 0 7.040156202970794 1.698766128865746 5.463024897374606 0 0 0
3 0 2 0 5.841999216722143 0.8081415834682368 5.019329941813721 0 0 0
4 0 1 0 4.126921944864175 0.8210967393740632 5.077310808655304 0 0 0
5 0 2 0 3.412655982438764 0.16242490639494755 4.907143876915608 0 0 0
6 0 2 0 3.8607825570040646 1.6047306546038447 4.5265112985778035 0 0 0
7 0 1 0 -0.5472268081572471 6.751737195943479 5.181983181428207 0 0 0
8 0 2 0 -0.5991378305999806 6.232849855126718 5.983825500963487 0 0 0
9 0 2 0 -0.6987372549350672 6.155478280429572 4.419506580480814 0 0 0
10 0 1 0 2.184400479844922 6.667272902175366 4.886787724104649 0 0 0
11 0 2 0 2.359679366577443 5.9487005691621375 5.546988284860829 0 0 0
12 0 2 0 1.2678069781388375 6.957950046883602 4.894689543974524 0 0 0
13 0 1 0 4.700597139715439 4.640574853888603 9.685062397025073 0 0 0
14 0 2 0 3.7977636991837835 4.405471142513177 9.8897953669253 0 0 0
15 0 2 0 5.004982798432158 5.473296207619266 10.137296608030287 0 0 0
16 0 1 0 5.78920176156125 5.15262846550424 0.4610436137838044 0 0 0
17 0 2 0 6.703354355262324 4.872034433426515 0.3902334194275801 0 0 0
18 0 2 0 5.230070384721511 4.355717069656699 0.36016073374930213 0 0 0
19 0 1 0 1.214360569213746 2.5291571752985296 0.3451810515304052 0 0 0
20 0 2 0 -5.840331738373938 2.391516345524109 18.86494828880039 0 0 -1
21 0 2 0 1.2345763844658073 2.0359348707805154 1.2112839695730344 0 0 0
22 0 1 0 0.1827470865038312 2.6875464452166393 9.595200853385766 0 0 0
23 0 2 0 0.46057090752631824 1.9016329352630732 10.161631456474325 0 0 0
24 0 2 0 0.8276106073099743 3.446228072035295 9.642749306073666 0 0 0
25 0 1 0 4.221972748579304 6.459947963480424 7.488483411349519 0 0 0
26 0 2 0 4.670152454481247 6.147242955737489 6.649813024572779 0 0 0
27 0 2 0 4.373149289933619 5.760872626956796 8.159295096009854 0 0 0
28 0 1 0 6.174120337877197 6.641646882536725 2.9430242556960207 0 0 0
29 0 2 0 5.591391045281982 7.401185640209077 2.731298618928733 0 0 0
30 0 2 0 5.842067523238599 6.068870399821405 2.2483663514540564 0 0 0
31 0 1 0 1.2983857770163567 0.8622332549458869 2.5225012518622907 0 0 0
32 0 2 0 1.0081559629337808 1.3759407301039157 3.283714346634695 0 0 0
33 0 2 0 0.6248494301210302 0.2246919006765372 2.227714863305101 0 0 0
34 0 1 0 0.09378160233534016 1.0362377984159794 7.243259712915113 0 0 0
35 0 2 0 0.24767839027845273 1.689782753312587 7.965016707900942 0 0 0
36 0 2 0 -0.9260581342250962 1.0620973190070608 7.049931445461905 0 0 0
37 0 1 0 6.452671973306548 2.5052295146357237 2.6105984702572553 0 0 0
38 0 2 0 6.668896232211996 1.9086810359065538 1.8296657099152704 0 0 0
39 0 2 0 6.458318875558408 1.850546144600575 3.3535420488896 0 0 0
40 0 1 0 4.086601880568224 2.5943298404836934 7.2265879806716224 0 0 0
41 0 2 0 3.9485829115159348 1.7096869354976127 6.827501239727537 0 0 0
42 0 2 0 4.1589391275600285 2.2737313182077217 8.141418800573286 0 0 0
43 0 1 0 -0.48734247247091167 5.090462500632657 7.579980828603398 0 0 0
44 0 2 0 -0.6124082756915357 5.519906920413669 8.435673568836467 0 0 0
45 0 2 0 0.4638255223332144 4.959591815432685 7.475391658202537 0 0 0
46 0 1 0 2.132863256319589 5.1736935578891865 2.588703927034349 0 0 0
47 0 2 0 2.359135713318039 5.529428023320863 1.727381367341999 0 0 0
48 0 2 0 2.2455080957463305 5.895750161238565 3.2934762349365703 0 0 0
49 0 1 0 6.760008905915425 3.2836661505650464 6.453610081769241 0 0 0
50 0 2 0 5.948898341273771 3.0023283669417062 6.943880816684188 0 0 0
51 0 2 0 6.399833641384001 4.056537504523356 5.969461545094154 0 0 0
52 0 1 0 3.9057391555208127 3.225745708222837 3.7455097036398657 0 0 0
53 0 2 0 4.613910502928073 3.0062962153866812 3.0979912780416856 0 0 0
54 0 2 0 3.2644926464660413 3.7717698709580403 3.2129254800077947 0 0 0
55 0 1 0 -0.3826160089518277 4.356393347199626 3.4021739059780103 0 0 0
56 0 2 0 16.96629056686234 4.162427927598664 2.8371938584777348 -1 0 0
57 0 2 0 0.33699126630179377 4.6915569655664155 2.8925575830774912 0 0 0
58 0 1 0 2.008004326218509 4.322808112442417 6.38334428099045 0 0 0
59 0 2 0 1.717964730754748 3.818417278437836 5.608253598558454 0 0 0
60 0 2 0 2.667472491432209 3.7347723600493925 6.770609430850434 0 0 0
61 0 1 0 8.406355589949793 7.329634148493006 1.55779392435907 0 0 0
62 0 2 0 7.905802498181193 7.996216740182723 1.1018927322891205 0 0 0
63 0 2 0 7.729675144012672 6.9497286522199415 2.1399602884291333 0 0 0
64 0 1 0 1.7669443098372093 7.027815592382506 8.433590320421525 0 0 0
65 0 2 0 2.1319493847141495 7.701987727875554 9.029496539634767 0 0 0
66 0 2 0 2.5763201733444765 6.717244203223042 8.02089761186601 0 0 0
67 0 1 0 15.398355729869262 0.7184815043201473 8.03308401909425 -1 0 0
68 0 2 0 14.542052155468387 0.32290159225045734 7.756684545986868 -1 0 0
69 0 2 0 15.151498953604765 1.3493640286048134 8.730832052044233 -1 0 0
70 0 1 0 4.024651426142878 0.29522888447294343 1.5813293691069676 0 0 0
71 0 2 0 3.3109962526465786 0.6230191212195599 2.2466037073578273 0 0 0
72 0 2 0 4.730394838947864 22.611513040681032 2.1641381998209446 0 -1 0
73 0 1 0 5.264889929858695 5.243670288256399 5.339791939290979 0 0 0
74 0 2 0 4.586524962813641 4.6945016574517755 4.817978533595286 0 0 0
75 0 2 0 5.6007742200533155 5.846511596695493 4.631145193091879 0 0 0
76 0 1 0 0.9724466653970354 2.3354189766248994 4.653247694983202 0 0 0
77 0 2 0 0.5025970199960661 1.7302442063040382 5.189680401359689 0 0 0
78 0 2 0 0.23444363763540776 2.9113467733226353 4.228616078568195 0 0 0
79 0 1 0 6.791299596263122 1.0399475260719628 0.25588629456459167 0 0 0
80 0 2 0 -0.4829871429252819 0.7876261759764982 18.983550725938827 0 0 -1
81 0 2 0 7.5007195364420145 0.434131914986521 0.5390859134048018 0 0 0
82 0 1 0 2.442074112931191 6.505917593737618 0.34978780183691854 0 0 0
83 0 2 0 -4.785185009412022 7.51842166865819 19.207495064960895 0 0 -1
84 0 2 0 -4.005539534127396 6.188807014190755 18.93668966419962 0 0 -1
85 0 1 0 15.80456735132614 1.3262326635354682 4.916259958927359 0 0 0
86 0 2 0 15.624994798264638 1.7970507123278803 4.052407312191119 0 0 0
87 0 2 0 14.894969632523996 1.1106612822188617 5.2287800698700995 0 0 0
88 0 1 0 12.999841514788963 1.1106252060835626 4.947781254545961 0 0 0
89 0 2 0 12.386787848543433 0.38819696216029853 5.105368389223856 0 0 0
90 0 2 0 12.949737851612838 1.7033097740903005 5.737763639574363 0 0 0
91 0 1 0 8.334860465250454 6.583553646831917 5.120512545402649 0 0 0
92 0 2 0 7.760578413403758 7.374686123504023 5.020386164671317 0 0 0
93 0 2 0 8.057470610498836 5.8948627310472554 4.478176705538624 0 0 0
94 0 1 0 11.227940112734482 6.563404751732459 4.735416805663601 0 0 0
95 0 2 0 10.340199942993321 6.767827594962455 5.107423110361521 0 0 0
96 0 2 0 11.827873506161817 7.293922649450187 4.584329548341529 0 0 0
97 0 1 0 13.933466989478582 5.203174589409129 9.558514479882808 0 0 0
98 0 2 0 13.858973997954255 5.503161527676773 8.6355673462829 0 0 0
99 0 2 0 13.79459584583945 5.908404496975918 10.270745059689789 0 0 0
100 0 1 0 14.466186723459119 4.663439456559662 0.25507610432811934 0 0 0
101 0 2 0 15.354691448797713 4.344689193918297 0.12018006222676628 0 0 0
102 0 2 0 7.6410264590924335 5.644196375573858 18.917006023974817 0 0 -1
103 0 1 0 9.983698945013844 2.8144876941606896 0.47075764266317915 0 0 0
104 0 2 0 9.494311019672908 3.6656275232245097 0.39130245823878335 0 0 0
105 0 2 0 10.932474134990981 2.9466619176608284 0.2809845193217201 0 0 0
106 0 1 0 9.270116900652942 2.876344467686585 9.564622169706535 0 0 0
107 0 2 0 9.387274669598233 2.578437946469 8.649571344615909 0 0 0
108 0 2 0 9.257570090174369 2.098967967891125 10.129919667573208 0 0 0
109 0 1 0 13.74236691626426 6.708774480243601 7.086812320471872 0 0 0
110 0 2 0 13.924993619207699 6.332186054687452 6.186976317417636 0 0 0
111 0 2 0 12.787330807079893 6.890730701949736 7.052922677470262 0 0 0
112 0 1 0 15.16767293170704 6.181400011527119 2.2444557522468256 0 0 0
113 0 2 0 15.025697631478836 5.752899078619543 3.0840713261899517 0 0 0
114 0 2 0 14.811300619968232 5.552453493585964 1.574057374031788 0 0 0
115 0 1 0 10.183409204475446 0.9583508761791092 2.482611507146812 0 0 0
116 0 2 0 11.107243476267186 0.7488600978372071 2.5040103125994384 0 0 0
117 0 2 0 10.119024201118034 1.6976488809538408 1.8592376785050624 0 0 0
118 0 1 0 9.054482690213531 1.2671056483604963 7.220503159116948 0 0 0
119 0 2 0 9.196798483596933 1.2917571473782463 6.271268135655486 0 0 0
120 0 2 0 9.708076869518806 0.6853105471400307 7.578723615018982 0 0 0
121 0 1 0 15.540371491856236 2.526601157247724 2.5090752518128214 0 0 0
122 0 2 0 15.605472726371438 1.9604463244026007 1.6956281878582415 0 0 0
123 0 2 0 14.60800575223438 2.735502311299014 2.5734739873502366 0 0 0
124 0 1 0 13.06206472360048 2.818352988942125 7.21582105881739 0 0 0
125 0 2 0 12.392382554068076 3.5043888418315925 6.928337510389365 0 0 0
126 0 2 0 13.902566351804188 3.1439160745618318 6.957602209368275 0 0 0
127 0 1 0 8.572513783166603 4.997719189917454 7.412145550389129 0 0 0
128 0 2 0 8.379784218350899 5.576753507438631 6.637172537672672 0 0 0
129 0 2 0 7.989414526520213 4.255326447564896 7.223554645838269 0 0 0
130 0 1 0 10.378598527131984 4.781862766715166 2.604593058760649 0 0 0
131 0 2 0 9.550438041115568 4.64895823446945 3.0336598090375335 0 0 0
132 0 2 0 10.877284798205494 5.291661710866955 3.2811245627979764 0 0 0
133 0 1 0 15.659867309748673 3.595257725010258 6.263748409636866 0 0 0
134 0 2 0 16.143908461323413 2.8039942146347427 5.901781309758797 0 0 0
135 0 2 0 -1.7878709710782763 4.085774384459905 6.829705009254118 1 0 0
136 0 1 0 12.70239290071864 3.3298986649171733 3.382188937609579 0 0 0
137 0 2 0 12.17760854000208 3.4753928573244615 2.5756427368457895 0 0 0
138 0 2 0 12.67747241471813 2.387097859128642 3.639702629482509 0 0 0
139 0 1 0 8.054473549912299 4.230802657478861 3.8010007581881737 0 0 0
140 0 2 0 7.302844113455971 4.028124222492257 3.215627830771942 0 0 0
141 0 2 0 8.31174302221763 3.3553097378677794 4.117745180508143 0 0 0
142 0 1 0 10.987597354484649 4.181408982872471 6.1324581805788165 0 0 0
143 0 2 0 11.220286084346759 5.022694839426321 5.673782034987545 0 0 0
144 0 2 0 10.180745131651136 4.414704769317074 6.5843697914772035 0 0 0
145 0 1 0 17.506596388153547 7.364990977036613 1.5376644084657638 0 0 0
146 0 2 0 16.72919373953505 6.966290486207647 1.9412651940810834 0 0 0
147 0 2 0 17.26610260349607 7.798155359018393 0.727130338869462 0 0 0
148 0 1 0 11.024360693903564 7.071742685673867 8.385125878468363 0 0 0
149 0 2 0 10.903991428710599 6.211869926225986 8.837293779784577 0 0 0
150 0 2 0 10.178236880353765 7.502792178844941 8.164268077330794 0 0 0
151 0 1 0 6.590092653340648 0.6686369877251945 8.252026781976467 0 0 0
152 0 2 0 7.383659602306393 1.0473876340884447 7.843461507307954 0 0 0
153 0 2 0 6.269584597429164 1.3360869367346713 8.926550505347166 0 0 0
154 0 1 0 12.795673943371753 0.640833070993116 1.6907979437459526 0 0 0
155 0 2 0 12.81268211833049 1.3795683727344699 1.0732943617294999 0 0 0
156 0 2 0 12.547008953199201 22.588235478783727 1.1404343030671316 0 -1 0
157 0 1 0 14.312606325947659 5.301750635954941 4.615401189969409 0 0 0
158 0 2 0 13.604547176118038 4.672330491837879 4.247326638095215 0 0 0
159 0 2 0 14.836118293261245 4.735071564207002 5.1691119421544185 0 0 0
160 0 1 0 9.612034444378962 2.293820289593626 4.832734491737008 0 0 0
161 0 2 0 10.200588933169811 2.9833537454067156 5.168936758741476 0 0 0
162 0 2 0 10.10166408381537 1.9679912041472438 4.050425996960335 0 0 0
163 0 1 0 15.91136167964811 1.2624619625087357 0.23103306013865624 0 0 0
164 0 2 0 9.623442098798712 1.8630890314408883 18.736387067822612 0 0 -1
165 0 2 0 8.470790153668208 0.9694427352111898 19.174255066377842 0 0 -1
166 0 1 0 11.174353259524317 6.123217285926852 0.5145361118514955 0 0 0
167 0 2 0 10.65347140149894 5.5862232126135565 1.1438706272081895 0 0 0
168 0 2 0 3.853337229523273 6.953424384897225 19.28714866398419 0 0 -1
169 0 1 0 6.883633851161287 9.023766303643553 4.6113755044852525 0 0 0
170 0 2 0 5.927727063942699 8.824800520728381 4.694501083444002 0 0 0
171 0 2 0 7.101402737796368 9.649666110498762 5.329584029758444 0 0 0
172 0 1 0 4.112326396180008 8.953355881751246 5.040065389359363 0 0 0
173 0 2 0 3.444827489207418 8.22424534239512 5.211099797283684 0 0 0
174 0 2 0 3.6585646813549193 9.653391616502423 4.481452694126583 0 0 0
175 0 1 0 -0.5324285867568774 14.20040550845818 4.905692000495679 0 0 0
176 0 2 0 -1.0284862408514155 14.992492946976345 4.757187618296905 0 0 0
177 0 2 0 0.41355496180812934 14.377198528441792 4.744327302600993 0 0 0
178 0 1 0 2.4261102347358565 14.052328740543578 4.630645966888039 0 0 0
179 0 2 0 2.4472895415746745 13.270375497240103 5.192512133732085 0 0 0
180 0 2 0 2.320803723321723 13.841968086561392 3.7109620814199578 0 0 0
181 0 1 0 4.810808716467632 12.58710018751068 9.694994992387683 0 0 0
182 0 2 0 5.1138454315063 13.381252202445694 10.162721607413905 0 0 0
183 0 2 0 5.596245517746107 12.057396809271172 9.630167703346643 0 0 0
184 0 1 0 -0.9515831839571103 12.60252428141229 19.290637662060085 0 0 -1
185 0 2 0 -1.0586081426466443 13.272890364123532 18.543176286983403 0 0 -1
186 0 2 0 0.05449720486226184 12.442751972207063 19.384650895175035 0 0 -1
187 0 1 0 1.0412112463542993 10.237980452800272 0.37466408206293367 0 0 0
188 0 2 0 0.9616954793306244 9.789687459370352 1.2357557555221095 0 0 0
189 0 2 0 1.9452481133119148 10.56637773240164 0.3462957868233411 0 0 0
190 0 1 0 0.06318790878569125 10.26439434785138 9.926182681447973 0 0 0
191 0 2 0 -0.1208459285428174 9.924846167144702 9.054878378853772 0 0 0
192 0 2 0 0.7744290496751729 10.970919822396324 9.827496357858728 0 0 0
193 0 1 0 4.762141191283359 14.449775512211206 7.502035878679633 0 0 0
194 0 2 0 4.927942629203855 14.117767990163443 6.58208571308853 0 0 0
195 0 2 0 4.972373344400722 13.67829570832293 8.103377275311562 0 0 0
196 0 1 0 6.084890765802074 13.891358027116263 2.384448398518642 0 0 0
197 0 2 0 5.977417717234869 13.194169908499356 1.7377206089570911 0 0 0
198 0 2 0 5.959147795743589 13.573185474804273 3.270955739273482 0 0 0
199 0 1 0 1.1747824614206985 8.854711137004221 2.9130624656784434 0 0 0
200 0 2 0 0.47643004229233077 8.348009053281618 2.4801767361505003 0 0 0
201 0 2 0 1.9602307155975893 8.376237264128662 2.7589927142841484 0 0 0
202 0 1 0 -0.03533228775231212 8.928122969813048 7.527794402506302 0 0 0
203 0 2 0 -0.7447457972967728 8.357110223260603 7.902915153913551 0 0 0
204 0 2 0 0.7466045445963676 8.346991634744674 7.803965391039331 0 0 0
205 0 1 0 6.10064588560549 10.54149010209598 2.3385721169989906 0 0 0
206 0 2 0 6.17542845370223 9.764149654679443 2.908558021337919 0 0 0
207 0 2 0 6.8245727152010565 11.080872505524919 2.7475372140081538 0 0 0
208 0 1 0 4.335631611906691 10.326029458429442 7.490711473946778 0 0 0
209 0 2 0 3.7358884715417524 11.143028860430055 7.350294655703235 0 0 0
210 0 2 0 4.220372591490248 9.884888030908746 6.57422914769865 0 0 0
211 0 1 0 -0.2491413619022529 12.56961888854151 7.2834332723267625 0 0 0
212 0 2 0 -0.38909543582461303 13.12663504073329 8.089585704516036 0 0 0
213 0 2 0 -0.43232262547469014 13.126096962207932 6.502112572584048 0 0 0
214 0 1 0 1.8885774880009742 12.66873477688252 2.364711083501869 0 0 0
215 0 2 0 1.6806577309153583 12.942733760320753 1.4349754962913717 0 0 0
216 0 2 0 1.127471422379956 12.154635106664365 2.6236853991425404 0 0 0
217 0 1 0 6.766609521868122 11.209095928208994 6.641582105110325 0 0 0
218 0 2 0 5.978865854652408 10.846155553069257 7.092830253937004 0 0 0
219 0 2 0 7.439234296714061 11.478995604881403 7.273632411113857 0 0 0
220 0 1 0 3.7418719964463794 11.20233851048608 3.5701220622284944 0 0 0
221 0 2 0 4.416310162716594 10.87354209421073 2.9161492207381485 0 0 0
222 0 2 0 3.105128297375861 11.791757030948775 3.020076006969647 0 0 0
223 0 1 0 -0.5816125310326077 11.704176365452959 3.4544927265996765 0 0 0
224 0 2 0 -0.2218854772862402 11.246073506864207 4.221753422664281 0 0 0
225 0 2 0 -0.7551032933306991 12.582219818747829 3.860720567142938 0 0 0
226 0 1 0 2.245476120540582 11.984989093708933 6.507997654445006 0 0 0
227 0 2 0 1.5649533137579947 12.314162567700077 7.120950279420619 0 0 0
228 0 2 0 1.830942897404051 11.247070343928964 6.122442913851311 0 0 0
229 0 1 0 8.289934841346362 14.78746528213175 1.1100976931938926 0 0 0
230 0 2 0 7.787685301221955 14.397398933560636 1.8298320672098087 0 0 0
231 0 2 0 9.053121646291192 15.294874994950854 1.4850989349000319 0 0 0
232 0 1 0 2.238412969389483 14.375470694412812 8.395141154803813 0 0 0
233 0 2 0 3.086999941231698 14.501795801941483 7.876706784708677 0 0 0
234 0 2 0 1.5388362826529733 14.753150526004436 7.837669184899259 0 0 0
235 0 1 0 -2.4712794723565117 8.114913833384966 8.308689298995985 0 0 0
236 0 2 0 14.93879326433808 7.813154641533651 7.703521592523261 -1 0 0
237 0 2 0 -2.786751071157726 8.79666688981301 8.927948086307985 0 0 0
238 0 1 0 4.036843017487043 7.989064335898801 1.7912293986439773 0 0 0
239 0 2 0 4.019507204455028 8.802246909763698 1.265886216579582 0 0 0
240 0 2 0 3.5706853261119056 7.30972868186974 1.207880073742883 0 0 0
241 0 1 0 5.383534015965058 12.892249679526973 4.962066838510848 0 0 0
242 0 2 0 5.908385275902522 12.199866525506916 5.460587370900924 0 0 0
243 0 2 0 4.672937903309258 12.428078928610011 4.506600068719599 0 0 0
244 0 1 0 0.8343341172931462 10.14751172173823 5.256162375580941 0 0 0
245 0 2 0 1.0914730094897236 9.66871680022351 4.464804395475493 0 0 0
246 0 2 0 0.5285225981875237 9.471739114347013 5.865973139390442 0 0 0
247 0 1 0 0.25737545498184655 9.298106269030079 19.368720054931998 0 0 -1
248 0 2 0 6.471187943764889 9.515756490436052 0.6489297715270543 0 0 0
249 0 2 0 -0.34072027996756127 8.593392499627713 18.967778920642377 0 0 -1
250 0 1 0 -4.386375870793407 13.940549155075788 19.157856011920686 0 0 -1
251 0 2 0 -4.87063549302554 14.686458819158963 18.80574633753543 0 0 -1
252 0 2 0 3.012020644487986 14.158922127570357 0.29279818894691156 0 0 0
253 0 1 0 15.494081639342095 8.33602882383619 4.343385336834738 0 0 0
254 0 2 0 16.15124333088154 7.775843961142088 4.867210097618571 0 0 0
255 0 2 0 15.8493835414064 8.39383581368792 3.422459467157322 0 0 0
256 0 1 0 13.000471642162195 8.901779079709367 4.977351846268252 0 0 0
257 0 2 0 13.924567879077184 8.763264111935152 4.846039833034902 0 0 0
258 0 2 0 12.947568089201807 9.350648503755224 5.844472864118371 0 0 0
259 0 1 0 8.655208085681672 14.098684909153778 5.097969382557415 0 0 0
260 0 2 0 9.602773680992291 14.29728414944148 5.093214064899812 0 0 0
261 0 2 0 8.377537875703023 13.434126979829019 4.465833163900853 0 0 0
262 0 1 0 11.419571262697723 14.123708645579292 4.930443282289974 0 0 0
263 0 2 0 11.542913643631127 13.844986062072474 4.029244301256995 0 0 0
264 0 2 0 11.927112863427368 14.936571249171855 5.045912721829171 0 0 0
265 0 1 0 14.394700263268055 12.283796074251844 9.548163211527921 0 0 0
266 0 2 0 14.952921627313549 11.491793859185059 9.410854598163015 0 0 0
267 0 2 0 14.309166560050151 12.718146930436022 8.657741435162407 0 0 0
268 0 1 0 8.0827149488788 12.61936863920145 19.211355754536143 0 0 -1
269 0 2 0 14.714294766455113 12.763121384979588 0.7282821449584296 0 0 0
270 0 2 0 7.6714986891571115 11.735861308658635 19.222665844239746 0 0 -1
271 0 1 0 10.315387770777418 10.541252435820178 0.48472858382128636 0 0 0
272 0 2 0 11.096694216271265 11.039825824384456 0.32442546802797256 0 0 0
273 0 2 0 10.520804363286615 9.912583941548435 1.1883842367391284 0 0 0
274 0 1 0 9.74485534151901 10.238091791454218 9.92809617044154 0 0 0
275 0 2 0 10.455632990097731 10.862745294214813 9.924308121331897 0 0 0
276 0 2 0 9.717346824393292 9.865764876466727 9.076987779993797 0 0 0
277 0 1 0 13.896738955256756 13.934374636716639 7.008888231666861 0 0 0
278 0 2 0 14.531610294609562 14.65039149540744 7.244337452942073 0 0 0
279 0 2 0 13.014664296333748 14.221721528595637 7.319458365663092 0 0 0
280 0 1 0 14.777214999663716 14.024858982599188 2.2864378910896614 0 0 0
281 0 2 0 14.690274029645112 13.561936036032199 3.1257701783334944 0 0 0
282 0 2 0 15.713848930860296 14.243448615034312 2.2047639197042352 0 0 0
283 0 1 0 10.484127484976456 8.71585221571844 2.5022106850352426 0 0 0
284 0 2 0 9.73217932698372 8.293564640606894 2.1685652616394298 0 0 0
285 0 2 0 11.312662068056227 8.203090892381669 2.401008482631173 0 0 0
286 0 1 0 9.040927685433559 9.019229592607122 7.519352722770899 0 0 0
287 0 2 0 8.124423433886218 8.740968698498385 7.5183364313059915 0 0 0
288 0 2 0 9.169726759318593 9.371940140012544 6.599394457698477 0 0 0
289 0 1 0 15.505265382828346 10.332195362662896 2.0314212059204584 0 0 0
290 0 2 0 16.105404739260283 10.817520987933554 2.649081137364949 0 0 0
291 0 2 0 14.583453986079686 10.575287972269601 2.184171720845599 0 0 0
292 0 1 0 13.364479835735109 10.29235027143093 7.2716844623339885 0 0 0
293 0 2 0 14.356027752995487 10.371212663759001 7.166834221325884 0 0 0
294 0 2 0 13.228844507569143 9.827859134418587 8.121235067957915 0 0 0
295 0 1 0 8.86217869686738 12.580583577372508 7.553443097191045 0 0 0
296 0 2 0 8.776860701150936 13.178875138259931 6.769472163591721 0 0 0
297 0 2 0 9.71310931305303 12.095242892522261 7.327557077582779 0 0 0
298 0 1 0 11.000252536112768 12.797448666493352 2.641743034142357 0 0 0
299 0 2 0 10.83903031689097 12.99887848858177 1.7189398275985635 0 0 0
300 0 2 0 11.55122730263799 12.046398047560206 2.8008454227292883 0 0 0
301 0 1 0 15.988470450791342 10.656008975250232 6.313478869543846 0 0 0
302 0 2 0 16.046865785228405 9.859154431257755 5.777995501768303 0 0 0
303 0 2 0 -1.3163091125639437 10.88699763455256 6.784224256711921 1 0 0
304 0 1 0 12.938531629971111 10.877812821832173 3.106959339886737 0 0 0
305 0 2 0 12.973442625440487 9.959660001051938 3.441299153415268 0 0 0
306 0 2 0 13.374888903707877 11.345515411836004 3.8268860598318857 0 0 0
307 0 1 0 8.615906665513892 11.721434232730791 3.26315909579329 0 0 0
308 0 2 0 9.433532153894546 12.165372814313967 2.9104579692961443 0 0 0
309 0 2 0 8.898611827959648 11.026525224755064 3.8060675793324883 0 0 0
310 0 1 0 11.118579419586577 11.839935141049915 6.298485019316955 0 0 0
311 0 2 0 11.887969264547122 11.483579471661997 6.71674558861805 0 0 0
312 0 2 0 11.318728388380935 12.741032362124422 6.034081319065136 0 0 0
313 0 1 0 17.387139679357528 14.611580725570626 1.6240861277766836 0 0 0
314 0 2 0 0.04961913150824426 14.669470523165053 2.240855088150748 1 0 0
315 0 2 0 17.545144441485878 13.762681321588033 1.1188387072263755 0 0 0
316 0 1 0 11.528706298709166 14.825646323152558 8.054141467946467 0 0 0
317 0 2 0 11.266284952661819 13.940537707118187 8.447605265348496 0 0 0
318 0 2 0 11.924310419039466 15.334147207537063 8.822316769063573 0 0 0
319 0 1 0 6.244513558153681 8.198355516687355 8.289258065251845 0 0 0
320 0 2 0 6.691230833048902 7.562399875768529 8.871019752666125 0 0 0
321 0 2 0 5.430342488987595 7.763679841436553 7.939943489924378 0 0 0
322 0 1 0 13.186297880363512 7.924096922806951 1.5314143745374305 0 0 0
323 0 2 0 12.643656345261324 7.2807564663128215 1.0256290498853913 0 0 0
324 0 2 0 13.93092424844504 7.35895264015659 1.863299567932574 0 0 0
325 0 1 0 14.656996109087947 12.561900817790233 4.673670582721073 0 0 0
326 0 2 0 15.241988710643083 11.895646887457335 5.016473876124358 0 0 0
327 0 2 0 14.234329273784567 12.891710902806278 5.495143143197241 0 0 0
328 0 1 0 9.699582383255596 9.985618337038336 4.878509956777296 0 0 0
329 0 2 0 10.137379182097861 9.440668251377472 4.115443871457527 0 0 0
330 0 2 0 10.441436804107527 10.550233772154263 5.223531189957895 0 0 0
331 0 1 0 9.27252426721697 9.159036654764858 19.210186898801275 0 0 -1
332 0 2 0 15.69856912016887 9.498545577438064 0.6066751786221288 0 0 0
333 0 2 0 9.519084217533582 9.731077357344791 18.483134011220308 0 0 -1
334 0 1 0 4.547786635606861 14.043601586201268 19.408918137219306 0 0 -1
335 0 2 0 4.794447899989053 13.455353207265627 18.67625509776961 0 0 -1
336 0 2 0 4.051157474702919 14.721130753565495 18.924100900593082 0 0 -1
337 0 1 0 7.051469549699441 16.150941563958828 4.640543780767785 0 0 0
338 0 2 0 7.7430350373728185 15.498729181869061 4.828265402441301 0 0 0
339 0 2 0 6.893915890668497 16.223994896838285 3.702537476278034 0 0 0
340 0 1 0 4.254947762361037 16.096722918555166 5.090048908143601 0 0 0
341 0 2 0 3.8128043798675693 15.284799904142917 4.912371943374231 0 0 0
342 0 2 0 5.192844720471157 15.89182605376698 4.990112020832581 0 0 0
343 0 1 0 -0.5482297417338937 21.62266204527293 4.891389642626479 0 0 0
344 0 2 0 -0.7059878016972125 21.360519904587544 5.808631874889072 0 0 0
345 0 2 0 -1.2979744328084093 22.235528706000377 4.755025923407015 0 0 0
346 0 1 0 2.0550865532239286 21.672999605336546 4.607384465590998 0 0 0
347 0 2 0 2.160318541170506 20.959358374106227 5.221741931015067 0 0 0
348 0 2 0 1.0465562678900433 21.842552273415578 4.56744481998895 0 0 0
349 0 1 0 5.126957496107563 20.014533728436497 9.598729906705962 0 0 0
350 0 2 0 5.527114180873258 20.724848923833832 10.15471163293472 0 0 0
351 0 2 0 5.247784675990603 20.33461175495063 8.665988812170704 0 0 0
352 0 1 0 5.47019371417502 19.967942335039538 0.23702026731711756 0 0 0
353 0 2 0 4.805474328775618 19.26098523494182 0.21662567298749613 0 0 0
354 0 2 0 5.3864676600446 20.451308346077347 1.0618229652274822 0 0 0
355 0 1 0 1.0265705574750688 17.715519619293033 0.2433469711499192 0 0 0
356 0 2 0 1.0904838316767644 17.180017129689144 1.0390529089710834 0 0 0
357 0 2 0 -5.858439195306893 17.363903457481275 18.806520234978844 0 0 -1
358 0 1 0 0.5890800572540593 18.192241389809706 9.381209264299967 0 0 0
359 0 2 0 0.8330331019187018 17.500267021378754 10.028589925407813 0 0 0
360 0 2 0 1.3128730598445437 18.85101636824118 9.415836391818141 0 0 0
361 0 1 0 4.904846464693154 21.39903035249835 7.247677682715886 0 0 0
362 0 2 0 5.491374990147332 22.171312981537124 7.478605347558062 0 0 0
363 0 2 0 3.994208244188205 21.818372231031606 7.290776280622795 0 0 0
364 0 1 0 5.970630327395737 21.324649397287256 2.5847828843861724 0 0 0
365 0 2 0 6.901745304978965 21.50989467868279 2.464726683502094 0 0 0
366 0 2 0 5.737136724751434 20.864471018266705 3.3989815510739483 0 0 0
367 0 1 0 1.545693537729949 16.275551696257004 2.580461193808251 0 0 0
368 0 2 0 2.4824723608460815 16.01102777383777 2.5543945602711955 0 0 0
369 0 2 0 1.4027037972991632 16.747046117348823 3.399966635816836 0 0 0
370 0 1 0 0.16907215743899728 16.295498491957108 7.471169037112965 0 0 0
371 0 2 0 0.47007993351254296 17.133402994745406 7.880242680608618 0 0 0
372 0 2 0 0.4248761392939988 16.302013708045564 6.523172466759598 0 0 0
373 0 1 0 6.433812177477054 17.886326583050153 2.3497886128027337 0 0 0
374 0 2 0 6.470959499886166 17.705325495732744 1.4029811046897382 0 0 0
375 0 2 0 5.5297017377080415 18.214467157560794 2.45529816050404 0 0 0
376 0 1 0 4.117039505325666 18.02711732022633 7.340797095672415 0 0 0
377 0 2 0 3.885021570817691 17.41058236316279 6.656950551994783 0 0 0
378 0 2 0 5.069759054638581 18.162982542001966 7.2189170608484305 0 0 0
379 0 1 0 -0.5452314817643718 20.27557870028181 7.2426480303288905 0 0 0
380 0 2 0 -1.1943327412455518 19.5464316319722 7.3065941456576695 0 0 0
381 0 2 0 -0.6935704596780052 20.851908124997024 8.041029779669872 0 0 0
382 0 1 0 1.8390099497035446 20.17311145418684 2.1832632972383372 0 0 0
383 0 2 0 2.3727414896117764 19.421281754017077 2.5124335345266564 0 0 0
384 0 2 0 1.997843988115864 20.97463102448013 2.7531234905139113 0 0 0
385 0 1 0 6.620941759174903 18.107583205294425 6.550050921932572 0 0 0
386 0 2 0 7.245352861478614 18.801148810530442 6.762842014249957 0 0 0
387 0 2 0 7.086229738893701 17.46760274444528 5.99639125929069 0 0 0
388 0 1 0 3.715171435542402 18.436039815293658 3.3595084249770277 0 0 0
389 0 2 0 3.921939645651724 17.575456666832952 3.7482383743568977 0 0 0
390 0 2 0 4.006051769999781 19.081330702810245 3.981694296535771 0 0 0
391 0 1 0 -0.7763788666088693 19.386815204423755 3.3238037501388074 0 0 0
392 0 2 0 0.10548148768488497 19.497470861545136 2.92067608463414 0 0 0
393 0 2 0 -0.8914822805596492 20.211027304032243 3.860214481472784 0 0 0
394 0 1 0 1.868615179832465 19.468070430981697 6.00087021666106 0 0 0
395 0 2 0 1.0277068580522832 19.679709882316555 6.427256130316659 0 0 0
396 0 2 0 2.4743745883866763 19.29710117186792 6.7299257068921525 0 0 0
397 0 1 0 8.421847460872543 21.92107039734802 1.3522908305586274 0 0 0
398 0 2 0 8.590300688549753 21.077525797933905 0.9019864375881619 0 0 0
399 0 2 0 9.244697474349575 22.3242861420258 1.7231961135553397 0 0 0
400 0 1 0 2.4508366927767797 22.611107737290126 7.97523123958084 0 0 0
401 0 2 0 2.463527474635712 0.6324308611974536 8.633487820098294 0 1 0
402 0 2 0 1.6216926029384262 0.21152692896430347 7.483041612603276 0 1 0
403 0 1 0 -2.4899503561926704 15.69365677160355 8.131246064092828 0 0 0
404 0 2 0 -1.591708754964977 15.873015880976036 7.755057204097551 0 0 0
405 0 2 0 -2.544890212653693 16.40998253709878 8.775856076460304 0 0 0
406 0 1 0 4.018691261483703 15.399994674199936 1.5687786379194728 0 0 0
407 0 2 0 4.812256295856059 15.068753734077399 1.9925262343297339 0 0 0
408 0 2 0 4.382763348678685 16.073807400256417 0.9613479896696425 0 0 0
409 0 1 0 5.281956871512805 20.066266653418037 4.9810216845353 0 0 0
410 0 2 0 5.8358142706523815 19.410488425260933 5.389371210610241 0 0 0
411 0 2 0 4.904400661439899 20.566537448153582 5.7393823381719695 0 0 0
412 0 1 0 0.7392892626311627 17.418971621873254 4.860034192037692 0 0 0
413 0 2 0 1.1766030862340997 18.253636443068732 5.084666525500632 0 0 0
414 0 2 0 -0.038841488187711715 17.689754439521387 4.364893817887615 0 0 0
415 0 1 0 -0.40430509627086675 16.602263492109447 19.309253807682733 0 0 -1