LAMMPS data file via MDAnalysis

        1008  atoms
           0  bonds
           0  angles
           0  dihedrals
           0  impropers

           2  atom types
           0  bond types
           0  angle types
           0  dihedral types
           0  improper types

0.000000 18.399555 xlo xhi
0.000000 22.570389 ylo yhi
0.000000 19.505716 zlo zhi
0.000000 -6.792611 0.000000 xy xz yz


Masses

1 15.999000
2 1.008000

Atoms

1 0 1 0.000000 6.670000 1.020000 4.700300
2 0 2 0.000000 6.820000 1.790000 5.250300
3 0 2 0.000000 5.720000 0.900000 4.710300
4 0 1 0.000000 3.820000 1.050000 5.070300
5 0 2 0.000000 3.150000 0.410000 4.840300
6 0 2 0.000000 3.700000 1.760000 4.430300
7 0 1 0.000000 -0.830000 6.530000 5.010300
8 0 2 0.000000 -0.710000 6.090000 5.850300
9 0 2 0.000000 -0.840000 5.820000 4.370300
10 0 1 0.000000 2.070000 6.500000 4.700300
11 0 2 0.000000 2.220000 5.730000 5.250300
12 0 2 0.000000 1.120000 6.620000 4.710300
13 0 1 0.000000 4.970000 4.780000 9.580299
14 0 2 0.000000 4.020000 4.660000 9.590300
15 0 2 0.000000 5.120000 5.550000 10.120300
16 0 1 0.000000 5.450000 4.880000 0.160300
17 0 2 0.000000 6.380000 4.680000 0.020300
18 0 2 0.000000 5.010000 4.040000 0.020300
19 0 1 0.000000 0.870000 2.770000 0.130300
20 0 2 0.000000 0.860000 2.060000 -0.510300
21 0 2 0.000000 0.980000 2.330000 0.970300
22 0 1 0.000000 0.280000 2.710000 9.560300
23 0 2 0.000000 0.410000 2.000000 10.200300
24 0 2 0.000000 0.950000 3.360000 9.780300
25 0 1 0.000000 4.570000 6.440000 7.300300
26 0 2 0.000000 4.800000 5.930000 6.520300
27 0 2 0.000000 4.710000 5.830000 8.020300
28 0 1 0.000000 5.850000 6.380000 2.510300
29 0 2 0.000000 5.150000 7.000000 2.310300
30 0 2 0.000000 5.850000 5.760000 1.780300
31 0 1 0.000000 1.270000 1.150000 2.430300
32 0 2 0.000000 1.000000 1.550000 3.260300
33 0 2 0.000000 0.520000 0.630000 2.160300
34 0 1 0.000000 0.030000 1.130000 7.240300
35 0 2 0.000000 0.260000 1.700000 7.980300
36 0 2 0.000000 -0.850000 0.810000 7.450300
37 0 1 0.000000 6.270000 2.680000 2.420300
38 0 2 0.000000 6.500000 2.170000 1.640300
39 0 2 0.000000 6.410000 2.070000 3.150300
40 0 1 0.000000 4.130000 2.680000 7.330300
41 0 2 0.000000 3.990000 2.070000 6.610300
42 0 2 0.000000 3.900000 2.170000 8.110300
43 0 1 0.000000 -0.540000 4.900000 7.300300
44 0 2 0.000000 -0.560000 5.310000 8.160300
45 0 2 0.000000 0.390000 4.720000 7.140300
46 0 1 0.000000 1.670000 4.850000 2.420300
47 0 2 0.000000 1.900000 5.350000 1.640300
48 0 2 0.000000 1.810000 5.450000 3.150300
49 0 1 0.000000 6.700000 3.320000 6.390300
50 0 2 0.000000 5.920000 2.960000 6.820300
51 0 2 0.000000 6.360000 4.000000 5.810300
52 0 1 0.000000 3.750000 3.310000 3.430300
53 0 2 0.000000 4.550000 3.210000 2.910300
54 0 2 0.000000 3.200000 3.880000 2.900300
55 0 1 0.000000 -0.850000 4.210000 3.430300
56 0 2 0.000000 -1.400000 3.640000 2.900300
57 0 2 0.000000 -0.050000 4.320000 2.910300
58 0 1 0.000000 2.020000 4.250000 6.390300
59 0 2 0.000000 1.510000 3.640000 5.870300
60 0 2 0.000000 2.750000 3.730000 6.730300
61 0 1 0.000000 8.400000 7.080000 1.510300
62 0 2 0.000000 8.059999 7.760000 0.930300
63 0 2 0.000000 7.620000 6.720000 1.940300
64 0 1 0.000000 2.010000 7.080000 8.240300
65 0 2 0.000000 2.350000 7.760000 8.820300
66 0 2 0.000000 2.780000 6.720000 7.810300
67 0 1 0.000000 -2.470000 0.410000 8.230300
68 0 2 0.000000 -3.320000 0.010000 8.010300
69 0 2 0.000000 -2.690000 1.150000 8.790300
70 0 1 0.000000 3.750000 0.450000 1.450300
71 0 2 0.000000 2.950000 0.550000 1.970300
72 0 2 0.000000 4.310000 -0.120000 1.970300
73 0 1 0.000000 5.220000 5.160000 4.940300
74 0 2 0.000000 4.680000 4.460000 4.550300
75 0 2 0.000000 5.510000 5.680000 4.190300
76 0 1 0.000000 0.660000 2.360000 4.850300
77 0 2 0.000000 0.270000 2.050000 5.670300
78 0 2 0.000000 0.020000 2.960000 4.490300
79 0 1 0.000000 6.900000 1.450000 -0.000300
80 0 2 0.000000 6.380000 0.870000 -0.550300
81 0 2 0.000000 7.420000 0.870000 0.550300
82 0 1 0.000000 2.310000 6.120000 0.060300
83 0 2 0.000000 1.780000 6.820000 -0.320300
84 0 2 0.000000 2.600000 5.600000 -0.680300
85 0 1 0.000000 15.870000 1.030000 4.770300
86 0 2 0.000000 15.900001 1.560000 3.970300
87 0 2 0.000000 14.940000 0.950000 4.980300
88 0 1 0.000000 13.020000 1.070000 4.970300
89 0 2 0.000000 12.360000 0.370000 5.040300
90 0 2 0.000000 13.000000 1.500000 5.820300
91 0 1 0.000000 8.420000 6.470000 5.070300
92 0 2 0.000000 7.750000 7.120000 4.840300
93 0 2 0.000000 8.300000 5.770000 4.430300
94 0 1 0.000000 11.250000 6.410000 4.720300
95 0 2 0.000000 10.320000 6.600000 4.850300
96 0 2 0.000000 11.690001 7.250000 4.860300
97 0 1 0.000000 14.130000 4.750000 9.620300
98 0 2 0.000000 14.020000 5.190000 8.780300
99 0 2 0.000000 14.150000 5.460000 10.260300
100 0 1 0.000000 14.630001 4.780000 0.170300
101 0 2 0.000000 15.580000 4.660000 0.160300
102 0 2 0.000000 14.480000 5.550000 -0.370300
103 0 1 0.000000 10.050000 2.650000 0.160300
104 0 2 0.000000 9.610001 3.490000 0.020300
105 0 2 0.000000 10.980000 2.840000 0.020300
106 0 1 0.000000 9.530000 2.770000 9.620300
107 0 2 0.000000 9.420000 2.330000 8.780300
108 0 2 0.000000 9.550000 2.060000 10.260300
109 0 1 0.000000 13.839999 6.390000 7.330300
110 0 2 0.000000 13.860001 5.970000 6.470300
111 0 2 0.000000 12.910000 6.560000 7.490300
112 0 1 0.000000 15.030001 6.440000 2.460300
113 0 2 0.000000 14.800000 5.930000 3.240300
114 0 2 0.000000 14.889999 5.830000 1.730300
115 0 1 0.000000 10.380000 1.130000 2.510300
116 0 2 0.000000 11.250000 0.810000 2.300300
117 0 2 0.000000 10.140000 1.700000 1.780300
118 0 1 0.000000 9.130000 1.150000 7.320300
119 0 2 0.000000 9.410000 1.550000 6.490300
120 0 2 0.000000 9.890000 0.630000 7.600300
121 0 1 0.000000 15.540000 2.630000 2.450300
122 0 2 0.000000 15.559999 2.210000 1.590300
123 0 2 0.000000 14.610000 2.800000 2.620300
124 0 1 0.000000 13.300000 2.560000 7.380300
125 0 2 0.000000 12.640000 3.150000 7.010300
126 0 2 0.000000 14.130000 2.870000 7.010300
127 0 1 0.000000 8.750000 4.910000 7.390300
128 0 2 0.000000 8.750000 5.520000 6.650300
129 0 2 0.000000 8.059999 4.290000 7.180300
130 0 1 0.000000 10.920000 4.900000 2.360300
131 0 2 0.000000 10.050000 4.570000 2.580300
132 0 2 0.000000 11.160001 5.460000 3.100300
133 0 1 0.000000 15.780000 3.360000 6.400300
134 0 2 0.000000 16.000000 2.610000 5.840300
135 0 2 0.000000 16.619999 3.750000 6.610300
136 0 1 0.000000 13.030000 3.360000 3.350300
137 0 2 0.000000 12.180000 3.750000 3.140300
138 0 2 0.000000 12.810000 2.610000 3.910300
139 0 1 0.000000 8.380000 4.250000 3.360300
140 0 2 0.000000 7.650000 3.730000 3.020300
141 0 2 0.000000 8.890000 3.640000 3.890300
142 0 1 0.000000 11.280001 4.140000 6.390300
143 0 2 0.000000 11.390000 4.880000 5.790300
144 0 2 0.000000 10.420000 4.280000 6.790300
145 0 1 0.000000 17.600000 7.080000 1.510300
146 0 2 0.000000 16.820000 6.720000 1.940300
147 0 2 0.000000 17.260000 7.760000 0.930300
148 0 1 0.000000 11.330000 7.120000 8.230300
149 0 2 0.000000 11.110000 6.370000 8.790300
150 0 2 0.000000 10.480000 7.510000 8.010300
151 0 1 0.000000 6.630000 0.380000 8.240300
152 0 2 0.000000 7.490000 0.520000 7.840300
153 0 2 0.000000 6.520000 1.110000 8.840300
154 0 1 0.000000 12.960000 0.420000 1.560300
155 0 2 0.000000 12.970000 1.200000 1.020300
156 0 2 0.000000 12.469999 -0.230000 1.060300
157 0 1 0.000000 14.400001 5.220000 4.880300
158 0 2 0.000000 13.880000 4.630000 4.330300
159 0 2 0.000000 14.920000 4.630000 5.420300
160 0 1 0.000000 9.740000 2.360000 4.900300
161 0 2 0.000000 10.390000 2.960000 5.260300
162 0 2 0.000000 10.140000 2.050000 4.080300
163 0 1 0.000000 16.109999 1.400000 0.060300
164 0 2 0.000000 16.400000 1.920000 -0.680300
165 0 2 0.000000 15.580000 0.700000 -0.320300
166 0 1 0.000000 11.560000 6.120000 -0.030300
167 0 2 0.000000 11.160001 5.809999 0.790300
168 0 2 0.000000 10.910000 6.730000 -0.390300
169 0 1 0.000000 6.670000 8.540000 4.700300
170 0 2 0.000000 5.720000 8.420000 4.710300
171 0 2 0.000000 6.820000 9.320000 5.250300
172 0 1 0.000000 3.820000 8.580000 5.070300
173 0 2 0.000000 3.150000 7.930000 4.840300
174 0 2 0.000000 3.700000 9.280000 4.430300
175 0 1 0.000000 -0.850000 13.930000 5.030300
176 0 2 0.000000 -1.290000 14.770000 4.900300
177 0 2 0.000000 0.080000 14.130000 4.900300
178 0 1 0.000000 2.030000 14.049999 4.750300
179 0 2 0.000000 2.050000 13.340000 5.390300
180 0 2 0.000000 1.920000 13.610000 3.900300
181 0 1 0.000000 4.880000 12.340000 9.560300
182 0 2 0.000000 5.010000 13.040000 10.200300
183 0 2 0.000000 5.550000 11.690001 9.780300
184 0 1 0.000000 5.430000 12.309999 0.170300
185 0 2 0.000000 5.280000 13.080000 -0.370300
186 0 2 0.000000 6.380000 12.190000 0.160300
187 0 1 0.000000 0.830000 10.250000 0.110300
188 0 2 0.000000 0.800000 9.730000 0.910300
189 0 2 0.000000 1.760000 10.330000 -0.100300
190 0 1 0.000000 0.290000 10.210000 9.660300
191 0 2 0.000000 0.300000 9.790000 8.800300
192 0 2 0.000000 0.940000 10.910000 9.590300
193 0 1 0.000000 4.570000 13.960000 7.300300
194 0 2 0.000000 4.800000 13.459999 6.520300
195 0 2 0.000000 4.710000 13.360000 8.020300
196 0 1 0.000000 5.830000 13.960000 2.460300
197 0 2 0.000000 5.690000 13.360000 1.730300
198 0 2 0.000000 5.600000 13.459999 3.240300
199 0 1 0.000000 1.200000 8.719999 2.500300
200 0 2 0.000000 0.540000 8.140000 2.130300
201 0 2 0.000000 2.030000 8.410000 2.130300
202 0 1 0.000000 0.000000 8.719999 7.250300
203 0 2 0.000000 -0.830000 8.410000 7.620300
204 0 2 0.000000 0.660000 8.140000 7.620300
205 0 1 0.000000 6.250000 10.140000 2.360300
206 0 2 0.000000 6.250000 9.520000 3.100300
207 0 2 0.000000 6.950000 10.760000 2.570300
208 0 1 0.000000 4.150000 10.140000 7.390300
209 0 2 0.000000 3.460000 10.760000 7.180300
210 0 2 0.000000 4.150000 9.520000 6.650300
211 0 1 0.000000 -0.470000 12.370000 7.330300
212 0 2 0.000000 -0.700000 12.869999 8.110300
213 0 2 0.000000 -0.610000 12.980000 6.610300
214 0 1 0.000000 1.740000 12.420000 2.450300
215 0 2 0.000000 1.760000 12.840000 1.590300
216 0 2 0.000000 0.810000 12.240000 2.620300
217 0 1 0.000000 6.650000 10.830000 6.320300
218 0 2 0.000000 5.850000 10.730000 6.850300
219 0 2 0.000000 7.210000 11.410000 6.850300
220 0 1 0.000000 3.750000 10.830000 3.430300
221 0 2 0.000000 4.550000 10.730000 2.910300
222 0 2 0.000000 3.200000 11.410000 2.900300
223 0 1 0.000000 -0.860000 11.700000 3.310300
224 0 2 0.000000 -0.360000 11.059999 3.820300
225 0 2 0.000000 -0.870000 12.490000 3.860300
226 0 1 0.000000 2.100000 11.730000 6.390300
227 0 2 0.000000 1.320000 12.090000 6.820300
228 0 2 0.000000 1.760000 11.050000 5.810300
229 0 1 0.000000 8.349999 14.600000 1.450300
230 0 2 0.000000 7.550000 14.490000 1.970300
231 0 2 0.000000 8.910000 15.170000 1.970300
232 0 1 0.000000 2.060000 14.600000 8.310300
233 0 2 0.000000 2.850000 14.490000 7.780300
234 0 2 0.000000 1.500000 15.170000 7.780300
235 0 1 0.000000 -2.470000 7.930000 8.230300
236 0 2 0.000000 -3.320000 7.530000 8.010300
237 0 2 0.000000 -2.690000 8.670000 8.790300
238 0 1 0.000000 3.760000 7.940001 1.560300
239 0 2 0.000000 3.770000 8.730000 1.020300
240 0 2 0.000000 3.270000 7.300000 1.060300
241 0 1 0.000000 5.200000 12.740001 4.880300
242 0 2 0.000000 5.720000 12.150001 5.420300
243 0 2 0.000000 4.680000 12.150001 4.330300
244 0 1 0.000000 0.600000 9.960000 4.880300
245 0 2 0.000000 0.790000 9.370000 4.140300
246 0 2 0.000000 0.420000 9.370000 5.610300
247 0 1 0.000000 6.960000 8.930000 -0.030300
248 0 2 0.000000 6.560000 9.240000 0.790300
249 0 2 0.000000 6.310000 8.320000 -0.390300
250 0 1 0.000000 2.300000 13.590000 -0.000300
251 0 2 0.000000 1.780000 14.180000 -0.550300
252 0 2 0.000000 2.820000 14.180000 0.550300
253 0 1 0.000000 15.790000 8.590000 4.790300
254 0 2 0.000000 16.440001 7.900000 4.720300
255 0 2 0.000000 15.800000 9.020000 3.930300
256 0 1 0.000000 12.930000 8.550000 4.990300
257 0 2 0.000000 13.860001 8.480000 4.780300
258 0 2 0.000000 12.900000 9.080000 5.780300
259 0 1 0.000000 8.330000 14.030000 5.050300
260 0 2 0.000000 9.280000 14.150000 5.040300
261 0 2 0.000000 8.180000 13.250000 4.510300
262 0 1 0.000000 11.190000 13.980000 4.790300
263 0 2 0.000000 11.200000 13.550000 3.930300
264 0 2 0.000000 11.840000 14.670000 4.720300
265 0 1 0.000000 14.090000 12.360000 9.660300
266 0 2 0.000000 14.740000 11.660000 9.590300
267 0 2 0.000000 14.099999 12.780000 8.800300
268 0 1 0.000000 14.709999 12.360000 0.090300
269 0 2 0.000000 14.700001 12.780000 0.950300
270 0 2 0.000000 14.060000 11.660000 0.160300
271 0 1 0.000000 10.030001 10.250000 0.110300
272 0 2 0.000000 10.959999 10.330000 -0.100300
273 0 2 0.000000 10.000000 9.730000 0.910300
274 0 1 0.000000 9.490000 10.210000 9.660300
275 0 2 0.000000 10.140000 10.910000 9.590300
276 0 2 0.000000 9.500000 9.790000 8.800300
277 0 1 0.000000 13.800000 13.850000 7.250300
278 0 2 0.000000 14.460000 14.429999 7.620300
279 0 2 0.000000 12.970000 14.160000 7.620300
280 0 1 0.000000 14.960001 13.910000 2.420300
281 0 2 0.000000 14.940000 13.500000 3.280300
282 0 2 0.000000 15.889999 14.090000 2.260300
283 0 1 0.000000 10.400000 8.719999 2.500300
284 0 2 0.000000 9.740000 8.140000 2.130300
285 0 2 0.000000 11.230000 8.410000 2.130300
286 0 1 0.000000 9.240000 8.660000 7.330300
287 0 2 0.000000 8.309999 8.480000 7.490300
288 0 2 0.000000 9.260000 9.070000 6.470300
289 0 1 0.000000 15.500000 10.089999 2.370300
290 0 2 0.000000 16.160000 10.670000 2.750300
291 0 2 0.000000 14.670000 10.400000 2.740300
292 0 1 0.000000 13.260000 10.150000 7.300300
293 0 2 0.000000 14.190001 10.330000 7.140300
294 0 2 0.000000 13.240000 9.740000 8.160300
295 0 1 0.000000 8.679999 12.420000 7.390300
296 0 2 0.000000 8.440000 12.980000 6.650300
297 0 2 0.000000 9.550000 12.100000 7.180300
298 0 1 0.000000 10.830000 12.440000 2.450300
299 0 2 0.000000 11.100000 12.830000 1.620300
300 0 2 0.000000 11.580000 11.920000 2.720300
301 0 1 0.000000 15.780000 10.880001 6.400300
302 0 2 0.000000 16.000000 10.130000 5.840300
303 0 2 0.000000 16.619999 11.280001 6.610300
304 0 1 0.000000 12.940001 10.870000 3.310300
305 0 2 0.000000 12.930000 10.080000 3.860300
306 0 2 0.000000 13.440000 11.510000 3.820300
307 0 1 0.000000 8.309999 11.730000 3.360300
308 0 2 0.000000 9.080000 12.090000 2.940300
309 0 2 0.000000 8.650000 11.050000 3.950300
310 0 1 0.000000 11.180000 11.690001 6.400300
311 0 2 0.000000 12.020000 11.289999 6.610300
312 0 2 0.000000 11.400000 12.440000 5.840300
313 0 1 0.000000 17.469999 14.639999 1.530300
314 0 2 0.000000 18.320000 15.039999 1.740300
315 0 2 0.000000 17.690001 13.900000 0.970300
316 0 1 0.000000 11.240000 14.630001 8.190300
317 0 2 0.000000 11.240000 13.839999 8.740300
318 0 2 0.000000 11.740000 15.270000 8.700300
319 0 1 0.000000 6.680000 8.010000 8.240300
320 0 2 0.000000 7.190000 7.400000 8.760301
321 0 2 0.000000 5.960000 7.490000 7.900300
322 0 1 0.000000 12.920000 8.010000 1.520300
323 0 2 0.000000 12.410001 7.400000 0.990300
324 0 2 0.000000 13.650000 7.490000 1.860300
325 0 1 0.000000 14.390000 12.680000 4.810300
326 0 2 0.000000 14.920000 11.990000 5.200300
327 0 2 0.000000 14.099999 13.210000 5.560300
328 0 1 0.000000 9.740000 9.880000 4.900300
329 0 2 0.000000 10.140000 9.570000 4.080300
330 0 2 0.000000 10.390000 10.490000 5.260300
331 0 1 0.000000 16.100000 8.850000 0.000300
332 0 2 0.000000 15.910000 9.430000 0.730300
333 0 2 0.000000 16.289999 9.430000 -0.730300
334 0 1 0.000000 11.510000 13.650000 0.060300
335 0 2 0.000000 11.799999 13.120001 -0.680300
336 0 2 0.000000 10.980000 14.340000 -0.320300
337 0 1 0.000000 6.590000 16.119999 4.790300
338 0 2 0.000000 7.240000 15.420000 4.720300
339 0 2 0.000000 6.600000 16.540001 3.930300
340 0 1 0.000000 3.750000 16.160000 5.030300
341 0 2 0.000000 3.310000 15.320000 4.900300
342 0 2 0.000000 4.680000 15.970000 4.900300
343 0 1 0.000000 -0.780000 21.500000 4.970300
344 0 2 0.000000 -0.800000 21.070002 5.820300
345 0 2 0.000000 -1.440000 22.200001 5.040300
346 0 1 0.000000 2.070000 21.549999 4.700300
347 0 2 0.000000 2.220000 20.780001 5.250300
348 0 2 0.000000 1.120000 21.670000 4.710300
349 0 1 0.000000 4.930000 19.799999 9.620300
350 0 2 0.000000 4.950000 20.510002 10.260300
351 0 2 0.000000 4.820000 20.240000 8.780300
352 0 1 0.000000 5.510000 19.880001 0.090300
353 0 2 0.000000 4.860000 19.180000 0.160300
354 0 2 0.000000 5.500000 20.309999 0.950300
355 0 1 0.000000 0.870000 17.820000 0.130300
356 0 2 0.000000 0.980000 17.380001 0.970300
357 0 2 0.000000 0.860000 17.110001 -0.510300
358 0 1 0.000000 0.280000 17.760000 9.560300
359 0 2 0.000000 0.410000 17.050001 10.200300
360 0 2 0.000000 0.950000 18.400000 9.780300
361 0 1 0.000000 4.600000 21.370001 7.250300
362 0 2 0.000000 5.260000 21.960001 7.620300
363 0 2 0.000000 3.770000 21.680000 7.620300
364 0 1 0.000000 5.760000 21.440001 2.420300
365 0 2 0.000000 6.690001 21.610001 2.260300
366 0 2 0.000000 5.740000 21.020000 3.280300
367 0 1 0.000000 1.160000 16.180000 2.420300
368 0 2 0.000000 2.090000 16.010000 2.260300
369 0 2 0.000000 1.140000 16.600000 3.280300
370 0 1 0.000000 -0.030000 16.130001 7.300300
371 0 2 0.000000 0.110000 16.740000 8.020300
372 0 2 0.000000 0.200000 16.639999 6.520300
373 0 1 0.000000 6.340000 17.670000 2.450300
374 0 2 0.000000 6.360000 17.260000 1.590300
375 0 2 0.000000 5.410000 17.850000 2.620300
376 0 1 0.000000 4.080000 17.670000 7.390300
377 0 2 0.000000 3.840000 17.110001 6.650300
378 0 2 0.000000 4.950000 18.000000 7.180300
379 0 1 0.000000 -0.430000 19.960001 7.310300
380 0 2 0.000000 -1.180000 19.440001 7.030300
381 0 2 0.000000 -0.700000 20.360001 8.140300
382 0 1 0.000000 1.650000 19.960001 2.360300
383 0 2 0.000000 2.350000 19.330000 2.570300
384 0 2 0.000000 1.650000 20.570000 3.100300
385 0 1 0.000000 6.580000 18.400000 6.400300
386 0 2 0.000000 7.420000 18.799999 6.610300
387 0 2 0.000000 6.800000 17.660000 5.840300
388 0 1 0.000000 3.740000 18.389999 3.310300
389 0 2 0.000000 3.730000 17.610001 3.860300
390 0 2 0.000000 4.240000 19.030001 3.820300
391 0 1 0.000000 -0.870000 19.180000 3.360300
392 0 2 0.000000 -0.020000 19.330000 2.960300
393 0 2 0.000000 -0.990000 19.920000 3.960300
394 0 1 0.000000 2.050000 19.260000 6.320300
395 0 2 0.000000 1.250000 19.360001 6.850300
396 0 2 0.000000 2.610000 18.689999 6.850300
397 0 1 0.000000 8.270000 22.160000 1.530300
398 0 2 0.000000 8.490000 21.420000 0.970300
399 0 2 0.000000 9.120000 22.560001 1.740300
400 0 1 0.000000 2.080000 22.080000 8.240300
401 0 2 0.000000 2.590000 22.690001 8.760301
402 0 2 0.000000 1.360000 22.609999 7.900300
403 0 1 0.000000 -2.570000 15.420000 8.240300
404 0 2 0.000000 -1.710000 15.570001 7.840300
405 0 2 0.000000 -2.680000 16.160000 8.840300
406 0 1 0.000000 3.680000 15.450000 1.530300
407 0 2 0.000000 4.520000 15.060000 1.740300
408 0 2 0.000000 3.890000 16.200001 0.970300
409 0 1 0.000000 5.190000 20.209999 4.810300
410 0 2 0.000000 5.720000 19.510000 5.200300
411 0 2 0.000000 4.900000 20.730000 5.560300
412 0 1 0.000000 0.600000 17.350000 4.880300
413 0 2 0.000000 1.120000 17.940001 5.420300
414 0 2 0.000000 0.080000 17.940001 4.330300
415 0 1 0.000000 6.840000 16.450001 0.030300
416 0 2 0.000000 7.490000 15.840000 0.390300
417 0 2 0.000000 7.240000 16.760000 -0.790300
418 0 1 0.000000 2.290000 21.170002 -0.060300
419 0 2 0.000000 2.000000 20.650002 0.680300
420 0 2 0.000000 2.820000 21.870001 0.320300
421 0 1 0.000000 15.830000 16.039999 4.750300
422 0 2 0.000000 15.850000 16.750000 5.390300
423 0 2 0.000000 15.720000 16.480000 3.900300
424 0 1 0.000000 12.930000 16.070000 5.050300
425 0 2 0.000000 13.880000 15.950001 5.040300
426 0 2 0.000000 12.780000 16.840000 4.510300
427 0 1 0.000000 8.420000 21.520000 5.070300
428 0 2 0.000000 7.750000 22.160000 4.840300
429 0 2 0.000000 8.300000 20.810001 4.430300
430 0 1 0.000000 11.280001 21.540001 4.770300
431 0 2 0.000000 11.300000 21.010000 3.970300
432 0 2 0.000000 10.340000 21.619999 4.980300
433 0 1 0.000000 14.170000 19.830000 9.580299
434 0 2 0.000000 14.320001 20.599998 10.120300
435 0 2 0.000000 13.220000 19.709999 9.590300
436 0 1 0.000000 14.650001 19.920000 0.160300
437 0 2 0.000000 15.580000 19.730000 0.020300
438 0 2 0.000000 14.210000 19.080000 0.020300
439 0 1 0.000000 10.030001 17.780001 0.110300
440 0 2 0.000000 10.959999 17.850000 -0.100300
441 0 2 0.000000 10.000000 17.250000 0.910300
442 0 1 0.000000 9.580000 17.780001 9.640301
443 0 2 0.000000 8.650000 17.850000 9.850300
444 0 2 0.000000 9.599999 17.250000 8.840300
445 0 1 0.000000 13.830000 21.440001 7.240300
446 0 2 0.000000 14.060000 20.869999 7.980300
447 0 2 0.000000 12.950000 21.760002 7.450300
448 0 1 0.000000 15.050000 21.420000 2.510300
449 0 2 0.000000 15.050000 20.810001 1.780300
450 0 2 0.000000 14.349999 22.049999 2.310300
451 0 1 0.000000 10.360001 16.180000 2.420300
452 0 2 0.000000 11.289999 16.010000 2.260300
453 0 2 0.000000 10.340000 16.600000 3.280300
454 0 1 0.000000 9.200000 16.240000 7.250300
455 0 2 0.000000 8.370000 15.940000 7.620300
456 0 2 0.000000 9.860000 15.660000 7.620300
457 0 1 0.000000 15.430000 17.650000 2.450300
458 0 2 0.000000 15.700001 17.260000 1.620300
459 0 2 0.000000 16.180000 18.180000 2.720300
460 0 1 0.000000 13.350000 17.660000 7.390300
461 0 2 0.000000 12.660000 18.279999 7.180300
462 0 2 0.000000 13.350000 17.050001 6.650300
463 0 1 0.000000 8.730000 19.889999 7.330300
464 0 2 0.000000 8.590000 20.500000 6.610300
465 0 2 0.000000 8.500000 20.400000 8.110300
466 0 1 0.000000 10.900001 20.009998 2.370300
467 0 2 0.000000 11.560000 19.420000 2.750300
468 0 2 0.000000 10.070000 19.700001 2.740300
469 0 1 0.000000 15.900001 18.370001 6.390300
470 0 2 0.000000 15.559999 19.040001 5.810300
471 0 2 0.000000 15.120000 18.000000 6.820300
472 0 1 0.000000 12.910000 18.370001 3.360300
473 0 2 0.000000 13.680000 18.000000 2.940300
474 0 2 0.000000 13.250000 19.040001 3.950300
475 0 1 0.000000 8.380000 19.299999 3.360300
476 0 2 0.000000 8.890000 18.680000 3.890300
477 0 2 0.000000 7.650000 18.770000 3.020300
478 0 1 0.000000 11.280001 19.180000 6.390300
479 0 2 0.000000 10.420000 19.330000 6.790300
480 0 2 0.000000 11.390000 19.920000 5.790300
481 0 1 0.000000 17.600000 22.130001 1.510300
482 0 2 0.000000 17.260000 22.809999 0.930300
483 0 2 0.000000 16.820000 21.760002 1.940300
484 0 1 0.000000 11.240000 22.150000 8.190300
485 0 2 0.000000 11.740000 22.799999 8.700300
486 0 2 0.000000 11.240000 21.370001 8.740300
487 0 1 0.000000 6.680000 15.540000 8.240300
488 0 2 0.000000 7.190000 14.920000 8.760301
489 0 2 0.000000 5.960000 15.010000 7.900300
490 0 1 0.000000 12.920000 15.540000 1.520300
491 0 2 0.000000 13.650000 15.010000 1.860300
492 0 2 0.000000 12.410001 14.920000 0.990300
493 0 1 0.000000 14.400001 20.130001 4.880300
494 0 2 0.000000 14.220000 20.720001 5.610300
495 0 2 0.000000 14.590000 20.720001 4.140300
496 0 1 0.000000 9.790000 17.410000 4.810300
497 0 2 0.000000 10.320000 18.110001 5.200300
498 0 2 0.000000 9.500000 16.889999 5.560300
499 0 1 0.000000 16.039999 16.450001 0.030300
500 0 2 0.000000 16.690001 15.840000 0.390300
501 0 2 0.000000 16.440001 16.760000 -0.790300
502 0 1 0.000000 11.560000 21.160000 -0.030300
503 0 2 0.000000 11.160001 20.860001 0.790300
504 0 2 0.000000 10.910000 21.770000 -0.390300
505 0 1 0.000000 3.180000 1.050000 14.440300
506 0 2 0.000000 3.850000 0.410000 14.660300
507 0 2 0.000000 3.310000 1.760000 15.080300
508 0 1 0.000000 0.330000 1.030000 14.740300
509 0 2 0.000000 1.260000 0.950000 14.530300
510 0 2 0.000000 0.310000 1.560000 15.540299
511 0 1 0.000000 -4.170000 6.470000 14.820300
512 0 2 0.000000 -4.840000 7.120000 14.600300
513 0 2 0.000000 -4.300000 5.770000 14.180300
514 0 1 0.000000 -1.340000 6.410000 14.470300
515 0 2 0.000000 -2.270000 6.600000 14.610300
516 0 2 0.000000 -0.900000 7.250000 14.610300
517 0 1 0.000000 1.540000 4.750000 19.370300
518 0 2 0.000000 1.420000 5.190000 18.530300
519 0 2 0.000000 1.550000 5.460000 20.020298
520 0 1 0.000000 2.080000 4.750000 9.880301
521 0 2 0.000000 2.190000 5.190000 10.730300
522 0 2 0.000000 2.060000 5.460000 9.240300
523 0 1 0.000000 -2.550000 2.650000 9.910299
524 0 2 0.000000 -2.990000 3.490000 9.770300
525 0 2 0.000000 -1.620000 2.840000 9.780300
526 0 1 0.000000 -3.030000 2.740000 19.330299
527 0 2 0.000000 -2.880000 1.970000 19.880299
528 0 2 0.000000 -3.970000 2.860000 19.340302
529 0 1 0.000000 1.140000 6.370000 17.080299
530 0 2 0.000000 1.890000 6.890000 17.350300
531 0 2 0.000000 1.410000 5.980000 16.250301
532 0 1 0.000000 2.470000 6.370000 12.180300
533 0 2 0.000000 2.200000 5.980000 13.010301
534 0 2 0.000000 1.720000 6.890000 11.910300
535 0 1 0.000000 -2.160000 1.090000 12.210300
536 0 2 0.000000 -2.400000 1.590000 12.990299
537 0 2 0.000000 -2.310000 1.690000 11.480301
538 0 1 0.000000 -3.370000 1.130000 16.990301
539 0 2 0.000000 -3.130000 1.700000 17.730301
540 0 2 0.000000 -4.250000 0.810000 17.210300
541 0 1 0.000000 2.930000 2.630000 12.120300
542 0 2 0.000000 3.160000 2.070000 12.850300
543 0 2 0.000000 2.050000 2.950000 12.330299
544 0 1 0.000000 0.770000 2.610000 17.060301
545 0 2 0.000000 0.500000 2.210000 17.890299
546 0 2 0.000000 0.020000 3.130000 16.780300
547 0 1 0.000000 -3.840000 4.910000 17.140301
548 0 2 0.000000 -3.850000 5.520000 16.410299
549 0 2 0.000000 -4.540000 4.290000 16.940300
550 0 1 0.000000 -1.670000 4.900000 12.120300
551 0 2 0.000000 -1.440000 5.460000 12.850300
552 0 2 0.000000 -2.550000 4.570000 12.330299
553 0 1 0.000000 3.250000 3.310000 16.080299
554 0 2 0.000000 2.460000 3.210000 16.600300
555 0 2 0.000000 3.810000 3.880000 16.600300
556 0 1 0.000000 0.430000 3.360000 13.100300
557 0 2 0.000000 0.210000 2.610000 13.660299
558 0 2 0.000000 -0.410000 3.750000 12.890300
559 0 1 0.000000 -4.220000 4.250000 13.110300
560 0 2 0.000000 -4.940000 3.730000 12.770300
561 0 2 0.000000 -3.700000 3.640000 13.640300
562 0 1 0.000000 -1.320000 4.140000 16.150301
563 0 2 0.000000 -1.210000 4.880000 15.550300
564 0 2 0.000000 -2.180000 4.280000 16.550301
565 0 1 0.000000 4.950000 7.070000 11.200300
566 0 2 0.000000 4.160000 6.970000 11.720300
567 0 2 0.000000 5.510000 7.650000 11.720300
568 0 1 0.000000 -1.370000 7.150000 17.990299
569 0 2 0.000000 -1.480000 6.410000 18.590300
570 0 2 0.000000 -0.510000 7.000000 17.590300
571 0 1 0.000000 -5.920000 0.490000 17.990299
572 0 2 0.000000 -6.640000 -0.040000 17.650301
573 0 2 0.000000 -5.400000 -0.120000 18.520300
574 0 1 0.000000 0.350000 0.450000 11.200300
575 0 2 0.000000 0.910000 -0.120000 11.720300
576 0 2 0.000000 -0.440000 0.550000 11.720300
577 0 1 0.000000 1.810000 5.220000 14.630300
578 0 2 0.000000 2.330000 4.630000 15.180301
579 0 2 0.000000 1.280000 4.630000 14.080300
580 0 1 0.000000 -2.810000 2.360000 14.570301
581 0 2 0.000000 -3.100000 1.840000 15.310301
582 0 2 0.000000 -2.280000 3.060000 14.950300
583 0 1 0.000000 3.490000 1.400000 9.690300
584 0 2 0.000000 4.020000 0.700000 10.080300
585 0 2 0.000000 3.200000 1.920000 10.440300
586 0 1 0.000000 -1.040000 6.120000 9.730300
587 0 2 0.000000 -1.430000 5.809999 10.540299
588 0 2 0.000000 -1.680000 6.730000 9.370300
589 0 1 0.000000 12.380000 1.050000 14.440300
590 0 2 0.000000 12.510000 1.760000 15.080300
591 0 2 0.000000 13.049999 0.410000 14.660300
592 0 1 0.000000 9.559999 1.110000 14.790300
593 0 2 0.000000 10.480000 0.920000 14.650299
594 0 2 0.000000 9.110001 0.280000 14.650299
595 0 1 0.000000 5.030000 6.470000 14.820300
596 0 2 0.000000 4.900000 5.770000 14.180300
597 0 2 0.000000 4.360000 7.120000 14.600300
598 0 1 0.000000 7.880000 6.490000 14.520300
599 0 2 0.000000 7.900000 5.960000 13.720301
600 0 2 0.000000 6.950000 6.570000 14.730300
601 0 1 0.000000 10.690001 4.810000 19.320299
602 0 2 0.000000 10.809999 5.520000 19.950300
603 0 2 0.000000 11.350000 4.170000 19.540300
604 0 1 0.000000 11.250000 4.880000 9.910299
605 0 2 0.000000 10.809999 4.040000 9.770300
606 0 2 0.000000 12.180000 4.680000 9.780300
607 0 1 0.000000 6.650000 2.650000 9.910299
608 0 2 0.000000 7.580000 2.840000 9.780300
609 0 2 0.000000 6.210000 3.490000 9.770300
610 0 1 0.000000 6.090000 2.690000 19.410301
611 0 2 0.000000 6.100000 2.270000 18.560299
612 0 2 0.000000 6.750000 3.390000 19.350300
613 0 1 0.000000 10.369999 6.440000 17.050301
614 0 2 0.000000 10.520000 5.830000 17.780300
615 0 2 0.000000 10.610000 5.930000 16.270300
616 0 1 0.000000 11.650000 6.380000 12.270300
617 0 2 0.000000 10.959999 7.000000 12.060300
618 0 2 0.000000 11.650000 5.760000 11.530300
619 0 1 0.000000 7.040000 1.090000 12.210300
620 0 2 0.000000 6.800000 1.590000 12.990299
621 0 2 0.000000 6.890000 1.690000 11.480301
622 0 1 0.000000 5.800000 1.200000 17.000299
623 0 2 0.000000 4.980000 0.890000 17.370300
624 0 2 0.000000 6.460000 0.610000 17.380299
625 0 1 0.000000 12.130001 2.630000 12.120300
626 0 2 0.000000 12.360000 2.070000 12.850300
627 0 2 0.000000 11.250000 2.950000 12.330299
628 0 1 0.000000 9.960000 2.610000 17.140301
629 0 2 0.000000 9.260000 3.240000 16.940300
630 0 2 0.000000 9.950000 2.000000 16.410299
631 0 1 0.000000 5.340000 4.850000 17.090300
632 0 2 0.000000 5.100000 5.350000 17.870300
633 0 2 0.000000 5.190000 5.450000 16.360300
634 0 1 0.000000 7.540000 4.900000 12.210300
635 0 2 0.000000 7.560000 5.310000 11.350300
636 0 2 0.000000 6.620000 4.720000 12.370300
637 0 1 0.000000 12.500000 3.320000 16.140301
638 0 2 0.000000 11.720000 2.960000 16.570299
639 0 2 0.000000 12.160000 4.000000 15.560301
640 0 1 0.000000 9.630000 3.360000 13.100300
641 0 2 0.000000 8.790000 3.750000 12.890300
642 0 2 0.000000 9.410000 2.610000 13.660299
643 0 1 0.000000 4.980000 4.250000 13.110300
644 0 2 0.000000 5.500000 3.640000 13.640300
645 0 2 0.000000 4.260000 3.730000 12.770300
646 0 1 0.000000 7.880000 4.140000 16.150301
647 0 2 0.000000 7.990000 4.880000 15.550300
648 0 2 0.000000 7.020000 4.280000 16.550301
649 0 1 0.000000 14.150000 7.070000 11.200300
650 0 2 0.000000 14.709999 7.650000 11.720300
651 0 2 0.000000 13.360000 6.970000 11.720300
652 0 1 0.000000 7.810000 7.080000 17.990299
653 0 2 0.000000 8.590000 6.720000 17.570301
654 0 2 0.000000 8.150000 7.760000 18.580299
655 0 1 0.000000 3.330000 0.410000 17.980301
656 0 2 0.000000 2.490000 0.010000 17.770300
657 0 2 0.000000 3.110000 1.150000 18.540300