LAMMPS (29 Sep 2021 - Update 2)
  using 1 OpenMP thread(s) per MPI task
echo both

include		in.partitions
variable        pid world 0
include		in.temp
variable        temperature equal 235
variable        tempDamp equal 0.100 # this is 0.1 ps
include		in.pressure
variable        pressure equal 5066.25
variable        pressureDamp equal 1.0 #this is 1ps
include		in.seed
variable        seed world 745823

units           metal
atom_style	full
include		in.box
read_data       iceV.data
Reading data file ...
  triclinic box = (0.0000000 0.0000000 0.0000000) to (18.399555 22.570389 19.505716) with tilt (0.0000000 -6.7926110 0.0000000)
  1 by 1 by 1 MPI processor grid
  reading atoms ...
  1008 atoms
Finding 1-2 1-3 1-4 neighbors ...
  special bond factors lj:    0        0        0       
  special bond factors coul:  0        0        0       
     0 = max # of 1-2 neighbors
     0 = max # of 1-3 neighbors
     0 = max # of 1-4 neighbors
     1 = max # of special neighbors
  special bonds CPU = 0.003 seconds
  read_data CPU = 0.039 seconds
include 	in.setup
variable	out_freq equal 500
variable	out_freq2 equal 500

timestep        0.0005

neigh_modify    delay 7 every 1

include         in.deepmd
# This is deepMD model

# create groups ###
#group ox type 2
#group hy type 1

mass 2 15.999
mass 1 1.008

pair_style      deepmd ../graph.pb
pair_coeff      * *

bond_style      none
angle_style     none
dihedral_style  none
improper_style  none
neigh_modify exclude none


neighbor        2.0 bin
neigh_modify    every 10 delay 0 check no

thermo          ${out_freq}
thermo          500
thermo_style 	custom step temp pe etotal epair emol press lx ly lz xy xz yz vol pxx pyy pzz pxy pxz pyz

restart 	${out_freq} restart.lmp.${pid} restart2.lmp.${pid}
restart 	500 restart.lmp.${pid} restart2.lmp.${pid}
restart 	500 restart.lmp.0 restart2.lmp.${pid}
restart 	500 restart.lmp.0 restart2.lmp.0


include         in.dump
dump            myDump all atom ${out_freq2} dump.water.${pid}
dump            myDump all atom 500 dump.water.${pid}
dump            myDump all atom 500 dump.water.0
dump            myDump2 all dcd ${out_freq2} dump.dcd
dump            myDump2 all dcd 500 dump.dcd
dump_modify     myDump append yes
dump_modify     myDump2 append yes


timer           timeout 03:55:00 every 1000
New timer settings: style=normal  mode=nosync  timeout=03:55:00

fix             2 all nph tri ${pressure} ${pressure} ${pressureDamp}
fix             2 all nph tri 5066.25 ${pressure} ${pressureDamp}
fix             2 all nph tri 5066.25 5066.25 ${pressureDamp}
fix             2 all nph tri 5066.25 5066.25 1
fix             3 all temp/csvr ${temperature} ${temperature} ${tempDamp} ${seed}
fix             3 all temp/csvr 235 ${temperature} ${tempDamp} ${seed}
fix             3 all temp/csvr 235 235 ${tempDamp} ${seed}
fix             3 all temp/csvr 235 235 0.1 ${seed}
fix             3 all temp/csvr 235 235 0.1 745823
velocity 	all create ${temperature} ${seed} dist gaussian
velocity 	all create 235 ${seed} dist gaussian
velocity 	all create 235 745823 dist gaussian

run             400000

CITE-CITE-CITE-CITE-CITE-CITE-CITE-CITE-CITE-CITE-CITE-CITE-CITE

Your simulation uses code contributions which should be cited:

- USER-DEEPMD package:

@article{Wang_ComputPhysCommun_2018_v228_p178,
  author = {Wang, Han and Zhang, Linfeng and Han, Jiequn and E, Weinan},
  doi = {10.1016/j.cpc.2018.03.016},
  url = {https://doi.org/10.1016/j.cpc.2018.03.016},
  year = 2018,
  month = {jul},
  publisher = {Elsevier {BV}},
  volume = 228,
  journal = {Comput. Phys. Commun.},
  title = {{DeePMD-kit: A deep learning package for many-body potential energy representation and molecular dynamics}},
  pages = {178--184}
}

CITE-CITE-CITE-CITE-CITE-CITE-CITE-CITE-CITE-CITE-CITE-CITE-CITE

Neighbor list info ...
  update every 10 steps, delay 0 steps, check no
  max neighbors/atom: 2000, page size: 100000
  master list distance cutoff = 8
  ghost atom cutoff = 8
  binsize = 4, bins = 7 6 5
  1 neighbor lists, perpetual/occasional/extra = 1 0 0
  (1) pair deepmd, perpetual
      attributes: full, newton on
      pair build: full/bin
      stencil: full/bin/3d
      bin: standard
Per MPI rank memory allocation (min/avg/max) = 7.699 | 7.699 | 7.699 Mbytes
Step Temp PotEng TotEng E_pair E_mol Press Lx Ly Lz Xy Xz Yz Volume Pxx Pyy Pzz Pxy Pxz Pyz 
       0          235   -178.42725   -147.83849   -178.42725            0    35645.526    18.399555    22.570389    19.505716            0    -6.792611            0    8100.4335     35200.33    36384.595    35351.653   -448.58155     1247.061    373.00604 
     500    232.62137   -167.90261   -137.62346   -167.90261            0    11712.303    18.039858    22.253719    19.283065 -0.028701393    -6.767933 -0.005089843    7741.2623    10396.141    12546.509     12194.26   -2655.4824   -44.466154   -198.57599 
    1000      236.387    -167.9095   -137.14019    -167.9095            0    7761.3669    18.079803    22.645998    19.511325 -0.026434866   -6.9110172  0.024359454    7988.6228      8898.52    8220.3469    6165.2338    1786.9037   -179.56587   -397.84358 
    1500    232.96894   -168.34898   -138.02459   -168.34898            0    16670.287     18.05559    22.663115    19.348398 -0.012867079   -6.9779363  0.012134533    7917.2853    17654.232    15914.855    16441.774   -1364.9115    3444.9544   -660.48148 
    2000    235.02912   -166.79774   -136.20518   -166.79774            0   -335.92631    18.080472     22.65341    19.275464  0.013959517   -7.0354735 -0.036323216    7894.9285    2936.8342   -343.15664   -3601.4565    550.98995    780.27356    403.71768 
    2500    243.18372   -167.17828   -135.52428   -167.17828            0    6347.6104    18.161197    22.822798    19.338932  0.019600075   -7.0893084 -0.043973486    8015.7809    6434.7676     4829.446    7778.6177    2997.6907    -207.3696    2082.6958 
    3000    237.31015   -165.84399   -134.95452   -165.84399            0    11009.079    17.965442     22.62126    19.220615  0.026561647   -7.0457744   0.05747322    7811.2761    8981.4106     9224.415    14821.412    10.500334   -1104.8696   -1915.9114 
    3500    235.02916   -167.44614   -136.85358   -167.44614            0     135.4135    18.109272    22.798856    19.424112 -0.023061977   -7.0962029   0.21795554    8019.6464   -2395.0668    2156.6005    644.70681   -2135.7098    140.34247   -3729.7452 
    4000    232.84385   -167.55441    -137.2463   -167.55441            0    8889.0938    18.089239    22.654557    19.278517  -0.16199492   -7.0287423   0.17079701    7900.4076    8088.8014    6883.1964    11695.284    2178.3794    939.78934    985.17747 
    4500    231.29503   -167.55202   -137.44551   -167.55202            0    7562.4858    18.176331    22.504721    19.277174  -0.21421109   -6.9677138  0.037148473    7885.3909    2906.1202    10588.742    9192.5956    79.821641    2263.1518    410.14064 
    5000    231.45659   -166.94868   -136.82114   -166.94868            0   -874.14126    18.190863    22.549428    19.441654 -0.071768986   -6.9120421 -0.053332701    7974.8414    -1236.895   -537.63547   -847.89332   -356.87975   -1297.2457   -937.93443 
    5500    228.96932   -167.51158    -137.7078   -167.51158            0    9712.6195    17.960476    22.424296    19.477674   0.14191377    -6.847054  0.018074277    7844.6533    8840.1434    11634.148    8663.5667    -523.1274    2323.8994   -1630.0101 
    6000    240.66127   -167.90918   -136.58351   -167.90918            0    1475.0728    18.038189    22.693952    19.536158   0.19055552   -6.9118981   0.10732104    7997.2784    1410.2902    3401.8072   -386.87893    865.14167   -879.28382   -1733.1671 
    6500    235.45819   -168.01722   -137.36881   -168.01722            0    9127.5743    18.013129    22.778884    19.115522 -0.044468335   -6.9996171 0.0025751276    7843.4614    7009.3912    8830.1439    11543.188     835.7214    2267.5975   -374.43705 
    7000    242.54544   -167.28176   -135.71084   -167.28176            0    2980.0583    18.202048    22.951212    19.115233  -0.31918534   -7.1131875 -0.098404097     7985.562    162.66144    2510.4062    6267.1073    1482.4685    -1695.885   -1509.6757 
    7500    228.95485    -165.1928    -135.3909    -165.1928            0     4896.023    18.028482    22.757337    19.298623  -0.26050055   -7.0923048  -0.03333282    7917.8436    5918.8487      3147.59    5621.6303   -1526.2881   -559.97657   -1059.9151 
    8000    233.87466    -167.5373   -137.09501    -167.5373            0    6896.7541    17.995418    22.521859    19.472903  0.027628729   -6.9701751    0.1323532    7892.1781    11148.851    6127.0042    3414.4074   -2978.9456   -986.63562   -1992.0617 
    8500    225.42775   -167.09039    -137.7476   -167.09039            0    3995.6282    18.178758    22.470934    19.508776   0.12732225   -6.9289148   0.14250061    7969.2112   -356.84828    4962.5712    7381.1617    500.01358   -195.41104   -3945.4354 
    9000    232.60307    -165.5025   -135.22573    -165.5025            0    8012.3588    18.125389    22.441066    19.334853  0.087244382   -6.8131648  0.057889036    7864.5103     9250.297     8669.666    6117.1134   -819.18405   -1123.8485    92.764781 
    9500    241.37967   -167.26282   -135.84364   -167.26282            0    5548.1526    18.160038    22.608699    19.347416 -0.014812558   -6.8204527 -0.027960154    7943.5623    6477.2208    7936.8678    2230.3692     1455.221   -904.80687    1156.8594 
   10000    235.77688   -165.56127   -134.87138   -165.56127            0     2892.539    18.136535    22.812599    19.329514  -0.14047679    -6.837519  0.016452071    7997.4221    1886.0318    1741.8273    5049.7578    3173.7455    310.53737    3534.3365 
   10500    245.77731   -166.05481   -134.06322   -166.05481            0    8474.2039    17.928714    22.743258    19.246671  -0.16567139   -6.8073533   0.17459422    7847.9722     8082.808    10265.556    7074.2473    852.28973    157.11717    377.06481 
   11000    233.90679   -166.30315   -135.85668   -166.30315            0    1694.8052    17.993841    22.905842    19.490021  -0.15878227   -6.9242168    0.2942069    8033.0866   -885.26556    2833.5746    3136.1067   -1217.0999    1595.0526   -1888.4534 
   11500    241.17794   -168.22818   -136.83526   -168.22818            0    5997.1291    18.063594    22.540762    19.350048 -0.076074335   -6.9735686   0.17501641    7878.7043    5754.6307    4014.1229    8222.6338   -1274.5014   -1124.4077    -2245.196 
   12000    242.68698   -167.04005   -135.45071   -167.04005            0     7600.694    18.357826    22.312508    19.289644   0.10269364   -7.0753006 -0.070130592    7901.2143     6187.966    7350.3423    9263.7737    197.01897   -1078.2967   -928.01834 
   12500    244.21209   -166.82969   -135.04183   -166.82969            0    4293.5889    18.412402    22.440463    19.443839   0.12095818   -7.0644238  -0.19661806      8033.86    4408.4717    5201.6217    3270.6733    65.221143   -795.12273   -2918.9889 
   13000    240.02277   -165.54001   -134.29745   -165.54001            0    6478.4177    17.992436    22.420146    19.457044  0.082909748   -6.8574052  -0.11888902    7848.8362    4715.0192    6767.9511    7952.2827    30.637486    -981.9084    2221.6262 
   13500    230.99064    -166.8681   -136.80121    -166.8681            0     7757.558    17.942488    22.750504    19.578531  0.028693247   -6.8022583  0.068961609    7991.9693    11141.393    7505.0268    4626.2542    174.21433   -844.14607   -1825.8839 
   14000     231.6518   -167.68979   -137.53684   -167.68979            0    2530.5101    18.006945    22.706586    19.352704  0.042407562   -6.8153377   0.15719854    7912.8609    1796.8111    1789.2683    4005.4509   -883.86523   -2175.0465    3475.5287 
   14500    229.46812   -168.51415   -138.64544   -168.51415            0    7997.7531    18.113006    22.685404    19.177401  -0.02911048   -6.8660292  0.096415693    7880.0108    8207.7221    11375.478    4410.0592   -70.943294    1728.9867   -1698.2507 
   15000    241.17324   -167.48452   -136.09222   -167.48452            0    6461.1744    18.177994    22.695857    19.323132 -0.092696214   -7.0228065 -0.046545593    7972.0507    3915.1855    6218.4377    9249.8998   -245.50798     -976.263   -1598.8434 
   15500    243.99057   -167.92879   -136.16976   -167.92879            0    6504.5722    18.073935    22.513143    19.434949 -0.015497612   -7.1236325  -0.11031656    7908.1021    8775.6754    7382.4742    3355.5672   -503.47228   -444.07408   -2487.0283 
   16000    233.34362   -166.23812   -135.86495   -166.23812            0    7401.9771    18.107705    22.356585    19.510658  0.070593372   -7.2001265  0.018247182    7898.4304    6068.7973    6939.8725    9197.2616    1749.5062   -339.35126    612.60637 
   16500    236.48326   -166.64576   -135.86393   -166.64576            0      789.894    18.346656    22.445648    19.438547  0.069165817   -7.2325106   0.18814675    8004.8436    878.28359    1250.1637    241.23475    358.89106   -1455.9146     -3610.83 
   17000    240.62982    -167.0219   -135.70033    -167.0219            0    8043.7565     18.16225    22.531915    19.153608 -0.0023736675    -6.924975   0.18886763    7838.2363    8111.4858     5908.457    10111.327     625.3646    311.48634   -927.71317 
   17500    243.13295    -168.3496   -136.70221    -168.3496            0    5734.5476     18.04828    22.905428    19.268976  -0.14808739    -6.690595 0.0081489363    7965.8639    8528.4388    4364.6001     4310.604    1492.2584   -883.93012   -1663.2608 
   18000    231.56429   -167.82125   -137.67969   -167.82125            0    1458.0465    17.839387    23.002581    19.219066  -0.20375815   -6.5229291 -0.062402387    7886.5812    3808.2759    -40.88227    606.74596   -2106.5628   -1278.2544    2664.2914 
   18500    229.54464   -167.50568   -137.62701   -167.50568            0    8014.1375    17.941809    22.958774    19.191577  -0.12226861   -6.5728986  0.039056908    7905.4315    5532.9382    9480.0869    9029.3874   -223.22326    514.92847   -3097.9999 
   19000     240.3403   -168.17777   -136.89388   -168.17777            0    5716.9196    18.123176    22.742906    19.293222 -0.0019080577   -6.8099692    0.1854886    7952.1586    6751.6264    5206.9063    5192.2262   -2166.7165    1233.4041   -309.13858 
   19500    243.18422   -167.93764   -136.28357   -167.93764            0    5408.8087    18.168346    22.308785    19.405875 -0.011016408   -7.0356279    0.1991999    7865.4677    3561.4488    7439.3754    5225.6021    3033.7727   -975.99799    1552.2576 
   20000    226.24546   -167.36454   -137.91531   -167.36454            0    7294.1977    18.245773    22.278209    19.588055 -0.073407624   -7.2510088  0.067250313     7962.214    3754.0323    9697.1276    8431.4331   -252.27735   -26.715465   -52.529776 
   20500     228.9307   -167.01831   -137.21955   -167.01831            0    6407.5291    18.112836    22.368622    19.458961 -0.036486099    -7.267321 -0.037903238    7883.9769    5443.9423    8213.6239    5565.0212    2712.3752    1005.9406    2666.8252 
   21000    233.28675   -167.56092   -137.19515   -167.56092            0    7008.2833    18.109893    22.688961     19.22792  0.075773225   -7.1886418 -0.0027932373    7900.6496    6557.5629     9120.831    5346.4561   -1916.9665   -988.68328   -2450.8258 
   21500     224.1696   -167.98385   -138.80482   -167.98385            0    5062.5406    18.062142    23.105183    19.064517  0.098906674   -7.0213158  0.081813943    7956.1776    3721.6532    5053.4014    6412.5672   -276.45388    400.78482   -546.60056 
   22000    230.34031   -166.31793   -136.33569   -166.31793            0    6168.6803    17.875132    23.042188    19.016098   0.04864891   -6.7352366   0.11527627    7832.3916    7164.7647     4243.359    7097.9173   -1820.4185   -2087.1841   -661.89344 
   22500    235.17164   -166.95231    -136.3412   -166.95231            0    2108.5989    17.985807    22.953926     19.41836  -0.17057208   -6.5958733    0.1058511    8016.7706    3459.3436    2255.5389    610.91412   -713.62363    86.605198   -2735.3451 
   23000    218.39509   -166.28228   -137.85489   -166.28228            0    7383.4427    17.989738    22.470084    19.501985  -0.22173002   -6.5372967   0.05626063    7883.3055    8396.5135    7988.7296    5765.0849   -250.14663   -1424.6802    2021.3257 
   23500    236.13997   -167.40395   -136.66679   -167.40395            0    5976.5943    18.182032    22.326903    19.539527 -0.099474386    -6.692622  0.038607987    7932.0409    5727.9402    7377.1585    4824.6843    616.71783    1512.0542   -395.85288 
   24000     245.2422   -166.56325   -134.64131   -166.56325            0    3086.7781    18.228231    22.370259    19.491008  0.018774971   -6.8908058  0.042810672    7947.8529    1187.2229    4887.0106    3186.1009    718.11354   -1072.9758    218.43319 
   24500    245.54261   -167.62954    -135.6685   -167.62954            0    3572.5045    18.166343    22.537314    19.382649  0.056577291     -6.97877 0.0028478041    7935.6551     1164.562    6007.5358    3545.4158    593.34139    197.59643   -1654.5533 
   25000    233.96818   -166.01608   -135.56162   -166.01608            0    5195.1167    18.083467    22.722821    19.191001 -0.027439275   -7.0808125  -0.11023811    7885.7238    7791.9625    4907.1706     2886.217    -1084.819   -332.09357   -431.78376 
   25500    241.66992   -166.67207   -135.21512   -166.67207            0    1353.6268    18.177616    23.026139     19.21233 -0.081837749   -7.1403495 -0.099280495    8041.5186    2095.5567    618.89985     1346.424   -56.529363    174.63502    307.15628 
   26000    239.61853   -166.13692   -134.94698   -166.13692            0    8665.9945    17.915318    22.871719    19.138047  0.014478109   -6.9908383  0.073236104    7841.8934    6881.8777    11787.595    7328.5112   -2901.1326   -1048.2021   -1846.9952 
   26500    227.33107   -166.93934    -137.3488   -166.93934            0    4729.4185    18.066081    22.907699    19.357264    0.1152062   -6.9396131   0.17506553    8011.0489    3757.3831    3259.4417    7171.4308    2432.2207   -501.35694    1568.0825 
   27000    247.49596   -166.53724   -134.32194   -166.53724            0    5446.9384    18.124465    22.528811    19.370753  0.072729905   -6.8636414  0.063522489    7909.5174    2222.7408    6985.6325    7132.4419    -1211.633   -244.38576    2134.4811 
   27500    232.16101   -166.16639   -135.94716   -166.16639            0      5787.57    18.222484    22.336699    19.390362 -0.049581704   -6.8426014 -0.067129802    7892.4618    5809.6372    3277.6069    8275.4657      2054.53   -430.61883    8.9760569 
   28000     230.5197   -167.02348   -137.01789   -167.02348            0    5548.8788    18.259058    22.426151     19.46947 -0.066287113   -6.8861879 -0.040831521    7972.3663     5702.925    5367.0818    5576.6296   -891.22033   -18.697721    856.60624 
   28500     234.3476   -166.58679   -136.08295   -166.58679            0    6894.0958    18.038204    22.411314    19.340978 -0.039599463   -6.9428911   0.11627396     7818.781    6250.3589    7384.2208    7047.7077   -1837.3856    2405.5121   -5387.7903 
   29000    223.83932   -165.76365   -136.62761   -165.76365            0    5197.8488    18.117812    22.964494    19.393667  0.039027177   -7.1245157   0.29547703    8069.0526    3324.0465    4122.6973    8146.8027   -1149.1759   -1265.7116   -1276.2588 
   29500    241.09746   -165.73413   -134.35169   -165.73413            0    9176.2943    17.932322     22.88378    19.092483  -0.05150221   -7.1312954   0.20561421    7834.7784    5817.6463    9274.8334    12436.403    224.57491    1871.9406   -1543.2498 
   30000    245.28796    -165.2823    -133.3544    -165.2823            0    2233.4773    18.079126    22.953634    19.261117  -0.18933185   -7.1221321 -0.012082609    7993.0101     -1332.61    3739.0396    4294.0024    789.28385   -1112.6952   -1656.4619 
   30500    234.37014   -165.62326   -135.11648   -165.62326            0    8700.4221    18.094851     22.72823    19.356545  -0.18626966   -6.9997201 -0.092622544    7960.6491    10316.184    6230.1559    9554.9269    1681.6365    3480.2686     208.8299 
   31000    243.31855   -166.21469   -134.54314   -166.21469            0    5737.1149    18.153058    22.425251    19.383995 -0.062480117   -6.8804638 -0.0031997538      7890.97     9405.036    5062.5846    2743.7241     -2025.11   -3880.2894    15.571635 
   31500    239.19584   -166.86489   -135.72997   -166.86489            0    3566.7748    18.229617    22.464604    19.477688  0.059027761   -6.8376387   0.06138475    7976.5246    5670.5503    3925.9542    1103.8199   -1087.7877    2605.9352   -1270.7309 
   32000    241.72604   -167.99158   -136.52732   -167.99158            0    5085.7041    18.060527    22.402743    19.431288  0.045448012    -6.754475 0.0069747415    7862.0031    4220.4167    4733.1086     6303.587    1141.3867   -944.93355   -325.42543 
   32500    240.43447   -167.18417   -135.88803   -167.18417            0    3031.6907     18.05941    22.692721    19.451232  0.053363984   -6.7993866  0.010490708    7971.4483    1272.6076    3873.1463    3949.3182   -30.491729     1411.891   -112.17694 
   33000    241.51405   -166.85028   -135.41361   -166.85028            0    6781.2016    18.030203    22.910175    19.276569  0.018281249   -6.8641416  0.096620315    7962.6704    4700.1802     7026.835    8616.5897    -1794.991   -1470.3209   -100.62052 
   33500    238.40817   -167.69637   -136.66397   -167.69637            0    3932.9873    17.999225    22.875432    19.023562 -0.091279099   -6.9956115   0.10373535    7832.7623    3752.3832     2705.339    5341.2397    811.30479   -2974.8937   -97.336318 
   34000    234.76224   -168.45319   -137.89537   -168.45319            0    2723.2413    18.190672    22.947526    19.257545  -0.12613632   -7.1619816  0.063061886    8038.6946   -462.21051    3055.7881    5576.1462   -906.48714    1995.4635   -1677.1727 
   34500    231.63511   -168.59473   -138.44396   -168.59473            0    7385.7644    18.036541    22.358871    19.369438  -0.11409497   -7.0981416  0.066286494    7811.2428    6745.3385    10355.899    5056.0553   -175.97483   -1263.9555     1424.085 
   35000    220.32635   -168.09608   -139.41731   -168.09608            0    1458.2332    18.200538    22.299513    19.582421 -0.034084691   -7.0491841  0.067578334    7947.7829    2477.2429    1489.6416    407.81513    1146.7945   -552.85918    3731.0677 
   35500    240.52604   -168.61963   -137.31157   -168.61963            0     5585.605    18.199998    22.339355    19.454776  0.061258844   -6.9761509   0.05044163    7909.8492    4389.0651    4550.7068     7817.043   -2076.1398   -1907.2437   -599.88364 
   36000    226.94036   -166.55673   -137.01704   -166.55673            0    4330.0971    18.087374    22.554311    19.402589  0.065136354   -6.8803315 -0.012521951    7915.2524     2568.596    3782.0588    6639.6365   -1514.2818   -218.17304   -3683.0304 
   36500    236.57315   -167.21505   -136.42151   -167.21505            0    6081.7454    17.974373    22.850321    19.344281  0.010059011   -6.7803751 -0.012541784     7945.087    8348.0682    4038.7447    5858.4233   -971.16127   -482.50326    1660.9992 
   37000    232.11554   -166.69987   -136.48656   -166.69987            0    6286.8814    17.911958    22.976103    19.226182 -0.060100675   -6.7430687    0.0697253    7912.4776    6786.3561    5673.6472    6400.6408   -1976.7692    875.30704   -64.188029 
   37500    240.76709   -168.11658   -136.77714   -168.11658            0    5317.6094    17.957946    22.932758    19.212648  -0.12209032   -6.8831472   0.15337762    7912.2531    4868.6133    6094.5707    4989.6443   -1438.4451    443.11167   -4529.8529 
   38000    231.51215   -165.37585   -135.24108   -165.37585            0    551.98863    18.143707    22.773438    19.305403  -0.27340663   -7.1768235   0.17242668    7976.8879    2052.0744   -1175.3742    779.26569    479.59577   -1364.2402    485.45986 
   38500    237.17043   -166.65622   -135.78494   -166.65622            0    4605.8414    18.166974    22.239552    19.463265  -0.26111448   -7.4632849    0.0880602    7863.6527    1627.6831    4255.4591    7934.3819    4260.1948    504.63749    1573.4852 
   39000    238.23459   -168.43047   -137.42067   -168.43047            0    5322.9066    18.307282     22.10542    19.659703 -0.033401224   -7.5812371  0.029718803    7956.0884    5742.0063    6580.3559    3646.3575   -1127.8681    1972.5946    1926.1923 
   39500    235.05742   -166.39934    -135.8031   -166.39934            0    5472.2193    18.232838    22.314022    19.477502   0.20146325   -7.3579657  0.037449459    7924.3818    2412.2669    6830.9398     7173.451   -1501.1238     504.4985    1484.4398 
   40000    239.35553   -167.88572   -136.73002   -167.88572            0     5310.316     18.14818    22.632609    19.281873   0.27999509   -7.0416829  0.024384037    7919.8491    1622.7024    7844.2297     6464.016   -1311.2523    513.29596    568.81975 
   40500    236.19696   -167.92552   -137.18095   -167.92552            0    290.39251    18.054379    22.905802    19.251844   0.11281586   -6.7612181 -0.056783756    7961.6003    2985.4208    -2361.788    247.54474   -765.97344    454.93503    478.31829 
   41000    234.60921   -167.70286   -137.16496   -167.70286            0    4670.5794    17.948316     22.83171     19.25739 -0.096756973   -6.6255608 -0.081726995    7891.5001    5037.1609    3991.1197    4983.4576   -1081.7529   -1715.7451    370.16117 
   41500     229.5027   -166.42153   -136.54832   -166.42153            0    6815.3604    18.073167    22.669782    19.374001  -0.12306653   -6.7357767  0.016168628    7937.8142    8129.5344    6852.9741    5463.5728   -289.63562   -1687.2389   -3838.4892 
   42000    240.34992   -167.95173   -136.66659   -167.95173            0      3342.87    18.232594     22.46948    19.395801 -0.081898338   -6.9438185     0.163977    7946.0116    3688.4294    4101.8944    2238.2862     2536.659   -327.42599   -2081.5897 
   42500    232.31497   -166.21358   -135.97431   -166.21358            0    4523.3714    18.223514    22.324241    19.451847 -0.00036636613   -7.1788394   0.18774002    7913.5191    6528.3697    4083.9527    2957.7918   -1054.7485      1689.14   -853.52549 
   43000    232.42455   -166.08333   -135.82979   -166.08333            0    4517.6777      18.1704     22.45679    19.562462  0.070427677   -7.3679579 -0.0013093642    7982.4406     5097.347    4309.7873    4145.8989    1817.5649    194.49434    1386.8723 
   43500    239.96725   -167.15057   -135.91524   -167.15057            0    7617.0026    17.986983    22.600134    19.324988  0.048965205   -7.2547835  -0.16334705    7855.7667    10271.026    7872.1764    4707.8056     -440.597   -666.49241    2755.1759 
   44000    239.76704   -168.12591   -136.91664   -168.12591            0    4862.2929    18.056268    23.029407    19.127209  0.075891212   -7.0627843  -0.20039682    7953.5745    5967.9813    4867.5442    3751.3532   -65.651078   -776.04574    1729.4672 
   44500    235.01097   -166.90595   -136.31576   -166.90595            0     6129.607    17.978553    23.114014    19.055688   0.11827991   -6.7673144 -0.031529606    7918.7157    4944.1274    4678.1888     8766.505    -1016.063    124.10164    1079.5582 
   45000    226.59449   -167.35686    -137.8622   -167.35686            0    4778.1187    17.958771    22.828988    19.259201  0.083418755   -6.6086242   0.18023391     7895.898    4134.6313    4887.9558    5311.7689    367.98981   -198.13571   -595.99302 
   45500    234.15354   -168.13233   -137.65374   -168.13233            0    4281.0126    18.023367    22.583915    19.503128  0.037858291   -6.6369653   0.19779933    7938.5181    5571.0841    5383.3711    1888.5826    1027.3075   -2501.2871   -1464.1466 
   46000    234.83013   -167.39379   -136.82713   -167.39379            0    5868.1064    18.077853    22.434861    19.487272  -0.12717411   -6.8035279  0.089086962    7903.5329    4259.2654     6961.831    6383.2228    644.10378   -629.25554   -2991.8637 
   46500    231.93792   -167.03184   -136.84165   -167.03184            0     4179.869    18.191825    22.489595    19.415073  -0.22090609   -6.9846395 -0.065048041     7943.226    2415.3847    6900.1321    3224.0903    3122.2956    272.95608     147.9535 
   47000    241.19371   -168.13657   -136.74159   -168.13657            0    5548.3827    18.159501    22.575313     19.35027 -0.087084774   -7.0840211 -0.080138242    7932.7674    6400.3507     3335.004    6909.7935   -825.92953    1911.6446     1389.652 
   47500    238.73694   -166.68283   -135.60765   -166.68283            0    4739.4046    18.142771    22.704201    19.362509   0.14440531   -7.0997004  0.073612428    7975.7491    7742.5839    2445.4385    4030.1915   -2390.9576   -2209.3975    113.16267 
   48000    241.13809   -167.46752   -136.07979   -167.46752            0    4175.1846    18.024446    22.689178    19.296339   0.22065077   -6.9878204   0.17802093    7891.4283    3695.3775    3716.6796    5113.4967    119.18177    17.953252   -839.57061 
   48500    235.45525    -167.0734   -136.42538    -167.0734            0    6003.2994     17.95772     22.80607    19.420999 -0.023021275   -6.7887406  0.052365736    7953.7733    7577.4884    5394.2384    5038.1713    1515.7634   -955.99402    424.05159 
   49000    240.24722   -165.76831   -134.49654   -165.76831            0    6152.0516     17.99084    22.770749    19.405164  -0.47800021   -6.5164577  -0.17877152    7949.6147    6292.2625    4855.6728    7308.2195    1860.1111   -4300.0857    3855.8134 
   49500    247.31254   -163.71408   -131.52265   -163.71408            0    8488.3688    18.121543    22.574775    19.272152  -0.49883763   -6.4433448 -0.089162118    7884.0402     7298.024    7090.4395    11076.643    2942.4041   -1579.5156     3198.244 
   50000     243.0242   -166.09853   -134.46529   -166.09853            0     1551.382    18.283525    22.671306    19.419415 -0.090292564   -6.5855632   0.22427152    8049.5687   -553.25875    3725.2429    1482.1618    1679.0788    178.01097    -3440.724 
   50500    242.77613    -167.6392   -136.03825    -167.6392            0    5378.5141    18.021305    22.512773    19.315942   0.22170913   -6.6652846   0.29607404    7836.6619    2596.6589    6429.2999    7109.5835   -2998.4137   -604.06643   -4822.7651 
   51000    232.10874   -165.92056   -135.70814   -165.92056            0     6552.685     18.03447    22.714043    19.466709   0.13610584   -6.8575716 0.0011296806    7974.2599    7509.3064    6198.1976    5950.5511   -1856.4928   -1134.0007   -1556.9891 
   51500    236.95905   -167.19298   -136.34921   -167.19298            0    2843.6796     18.03071    22.762533    19.379736 -0.0099557373   -7.0472796  -0.20096773     7953.921    5305.8254    151.90602    3073.3073    1723.3449    387.38036   -2628.5211 
   52000     235.5663   -168.73235   -138.06987   -168.73235            0    5078.2097    18.002467    22.719743    19.230606 -0.099741653   -7.0946632  -0.14963529    7865.5378    5940.0411    5968.2369    3326.3512   -646.34122   -310.43107   -1050.3555 
   52500    242.89351   -166.60172    -134.9855   -166.60172            0    6261.8802    18.191094     22.78744    19.278723 -0.037346936   -7.1420448   0.11660745    7991.5797    1635.3419    8341.3513    8808.9474    550.26828    443.21536   -2971.1653 
   53000    232.00238   -166.77017   -136.57159   -166.77017            0     3828.588    18.124959    22.645333    19.314629 -0.0059357166   -7.0044712   0.26144775     7927.607    3962.8718    4335.8718    3187.0205   -2871.9412   -1127.8136   -84.949605 
   53500    234.30468   -166.83127   -136.33301   -166.83127            0    4999.5569    18.005248    22.463877    19.472511  -0.10795824   -6.8227882   0.11922465    7876.0012    1865.8254    5432.6193    7700.2259   -463.29568   -1105.1416    785.20697 
   54000    238.35379   -166.25806   -135.23275   -166.25806            0    2950.3839    18.105996    22.537739    19.714114  -0.17894922   -6.7066017  -0.17165832    8044.7034    4594.0325    1084.1948    3172.9244   -1254.7864   -1095.8281    1040.0011 
   54500    236.08494   -168.68194   -137.95195   -168.68194            0    5165.9894    18.103292    22.351961    19.398193 -0.042536245   -6.5855201  -0.25733159    7849.3641    2103.5499    7671.9253    5722.4929    2902.7999   -806.03112    892.42548 
   55000    232.99364   -167.03552   -136.70791   -167.03552            0    5362.8776      18.1491    22.553715    19.298908    0.2272363   -6.6761177 -0.047870421     7899.615    6904.1214    4701.9538    4482.5577   -2474.3933   -1511.6029    -518.5004 
   55500    229.10451   -168.21849   -138.39711   -168.21849            0    4889.8918    18.052986    22.791037    19.393058   0.22516654   -6.8042989   0.12096049    7979.2013    902.74977    8624.5496    5142.3761    14.246886   -409.28169    818.30977 
   56000    239.28292   -165.99811   -134.85186   -165.99811            0    10014.804     17.95404    22.719002    19.280622  0.042856623   -6.9015931   0.13555674    7864.5249    11760.013    7737.2347    10547.165    173.52012   -1550.5884    1027.0614 
   56500    239.91646   -167.19216   -135.96345   -167.19216            0    5812.1221    18.113837    22.838444    19.311044 -0.081775383   -7.0416398  0.074671676    7988.8218    6334.0074    5393.6478    5708.7111    485.37108    -3323.571   -2836.5415 
   57000    233.77902   -166.73206   -136.30222   -166.73206            0    4021.2209    18.153568    22.645952    19.231161   -0.1492537   -7.1366764 0.0021379197    7906.0233    6138.7806    2886.3939    3038.4883   -795.49379    343.20228    1598.5928 
   57500    231.26339    -166.7939   -136.69151    -166.7939            0    2507.9862    18.189309    22.556735    19.357344  -0.22276769   -7.1517605 -0.033200501    7942.1524    2861.7402    2961.9708    1700.2476   -1308.9453   -1695.6806    2419.8987 
   58000    235.50515   -167.00542    -136.3509   -167.00542            0    1831.8771    18.147818    22.424082    19.560922  -0.21051149   -7.0137704  0.050385017     7960.281    -249.5046    4409.1284    1336.0074   -227.37746    901.94691    3659.5221 
   58500    238.98357   -167.18553   -136.07825   -167.18553            0    7449.9701    17.987918    22.344445    19.570868  -0.06840139   -6.7308172   0.19070467    7866.1197    11251.494    7564.4667    3533.9502    173.22376   -1914.9896   -3301.5632 
   59000    238.24776   -166.65354   -135.64203   -166.65354            0    3794.3299    18.143962    22.703602    19.502894  0.066635644   -6.5846775   0.12664876    8033.8915    3343.9439    2810.0489     5228.997   -1135.0422   -752.81804   -204.03053 
   59500    247.57472   -167.37556   -135.15001   -167.37556            0    5039.0396    18.036704    22.776777     19.09468  0.041985094   -6.5055886 -0.058374213    7844.4382     1021.671    6082.0713    8013.3765    41.411726   -3283.3145     874.5415 
   60000    233.65806   -167.35375   -136.93966   -167.35375            0    5465.5194    18.007543    23.069685    19.174228 -0.022003895   -6.6378917  -0.16387335    7965.5176     3181.228      5897.78    7317.5502    92.859353    570.54093   -1093.5779 
   60500    226.90931   -166.59611   -137.06047   -166.59611            0    3747.0683    17.908974    22.998011    19.273557 -0.033187246   -6.7898767  -0.10197635    7938.2146    5632.1626    1450.3024    4158.7398   -910.66359    1264.4092    1188.0614 
   61000    229.85658   -166.79969   -136.88041   -166.79969            0    6082.6176    17.917738    22.690346    19.332238  0.033582818   -6.9859517   0.10466714    7859.7082    5009.0305    6600.2237    6638.5984     130.2166   -322.70007   -1633.8499 
   61500    237.30902    -167.2873   -136.39798    -167.2873            0    3067.6411    18.203055    22.574377    19.436065  0.031705358   -7.2059512   0.20761518     7986.719    924.06395    4892.5463    3386.3132   -1329.7779    1758.7281   -733.02547 
   62000    241.00877    -167.0099     -135.639    -167.0099            0    4867.5577    18.302767     22.32605    19.321643 -0.015984007   -7.2225457  0.070942341    7895.3737    1883.5964    5890.0901    6828.9866    2121.0742    1834.1738   -775.39893 
   62500    228.98108   -166.75174   -136.94642   -166.75174            0    5726.5698    18.250802    22.460003    19.396883 -0.094064206   -7.0736986 -0.098936198     7951.036    6277.4512    5412.6483    5489.6097   -3714.9688   -338.26542    2557.3538 
   63000    245.30779   -165.58537   -133.65489   -165.58537            0    5630.0237    18.000229    22.710952    19.446399  -0.09062727   -6.8457468 -0.054928036    7949.7331    5410.6336    3963.6457    7515.7917    2896.4777    2124.1433     409.8973 
   63500    233.98919   -166.81764   -136.36044   -166.81764            0    4923.2869    17.860205    22.833287    19.382094  0.017510079   -6.6733547   0.10188466    7904.1573    6486.7673    4517.0438    3766.0494    -996.9008   -1535.6432    2869.8858 
   64000    238.43056   -166.77788   -135.74258   -166.77788            0    5572.5164    18.019884    22.948931    19.279573  0.083547939   -6.7329123   0.24869273    7972.8179    5801.6982    4402.7747    6513.0762   -1056.8664    1031.3094   -4194.4127 
   64500    235.60801   -167.16855   -136.50064   -167.16855            0    5641.3961    18.162658     22.63826    19.222378  0.012216086   -6.9095948   0.21341724    7903.6839    6240.3234    2430.8738    8252.9912   -1643.2021   -629.13035   -5696.6276 
   65000    225.23733   -167.74722   -138.42921   -167.74722            0    5246.2892    18.253691    22.335489    19.407843  -0.18907922   -7.2059524 -0.012044507    7912.6768    5654.8392    5880.7866    4203.2418   -664.70021    2090.5462    2688.2572 
   65500    222.82235   -166.18469   -137.18103   -166.18469            0    3329.1565    18.180409    22.328781    19.629898  -0.21718379   -7.2950939  -0.12666519     7968.686    1288.5016    3827.1703    4871.7975    2581.3833     428.0587    468.54557 
   66000    244.08022   -166.10953   -134.33883   -166.10953            0     4210.403    18.113875    22.423645    19.455037 -0.042017737   -7.2049381 -0.016850065    7902.2295     6118.176    3585.0161    2928.0168   -1382.0609    860.02987   -2258.4501 
   66500    231.53315   -164.99293   -134.85543   -164.99293            0    7348.0376    18.203598    22.739009    19.320383  0.071516614   -7.0537885  0.086438041    7997.3205    7321.6293    7151.8657    7570.6177    -2119.355   -1937.8255    -1268.072 
   67000    234.17461   -167.53879   -137.05746   -167.53879            0     5949.996    18.097036     22.74072    19.183209  0.092903892   -6.8895332  0.067847954    7894.6509    6193.1678    4915.1828    6741.6374    461.12751    -73.29014    953.90525 
   67500    233.47016   -167.01074    -136.6211   -167.01074            0     4751.611    18.091374    22.774407    19.345461   0.14668776   -6.7942918  0.023650505    7970.7228    5783.6717    4881.0425    3590.1189   -631.85118   -323.67566    1335.1021 
   68000    229.13786   -166.90318   -137.07746   -166.90318            0    8755.1636    17.957278    22.630847    19.414843  0.051668078   -6.7167392 -0.0068873459    7889.9673    9109.0411    8794.8621    8361.5877     401.9026   -792.39711   -197.17768 
   68500     245.2242   -167.52299   -135.60339   -167.52299            0    2414.4384    18.110237    22.636213    19.502619  0.016107956   -6.8253854  0.020689238    7995.0434    2527.9505    1399.9555    3315.4092    2448.1048   -3039.2857    1102.5317 
   69000    231.05316   -167.72036   -137.64533   -167.72036            0    5257.4749     18.21956    22.501934    19.325979   -0.1038951    -7.015859  0.043703414    7923.1746    5639.9864     3210.386    6922.0522    241.30767   -2850.8811   -2109.7858 
   69500    232.08122   -167.77961   -137.57077   -167.77961            0    3611.4704    18.287131    22.405356    19.185649  -0.31487583   -7.2707003  0.043074553    7860.9295   -1535.7909     4470.527    7899.6751   -61.810144    388.62596   -906.70136 
   70000    226.89666   -166.59312   -137.05913   -166.59312            0     7191.423    18.238686    22.665389     19.38334  -0.31122804   -7.4261466   0.12815175    8012.8189    4836.1653     6619.114     10118.99    454.64086    2641.6089   -723.92725 
   70500    235.97348   -167.86771   -137.15223   -167.86771            0    7747.8476    17.875196    22.631537    19.358648  -0.15579315    -7.226395    0.1368875    7831.4086    9021.3475    5991.2624    8230.9328    910.77853    576.83302   -165.90249 
   71000    227.07335   -166.77722   -137.22022   -166.77722            0    5606.0774    17.961347    22.911558    19.356489  0.015322989   -7.0191416  0.050807556    7965.6296    2814.9366    6038.9246     7964.371   -1318.8347   -277.64546   -1789.2904 
   71500    228.78216   -166.49788   -136.71846   -166.49788            0    4817.4471    18.087732    22.847976    19.213744  0.072187762     -6.82823 -0.097636561    7940.4267     7949.895    1742.0589    4760.3874    1122.6503    485.03736    1633.7609 
   72000    241.07225   -164.88101   -133.50185   -164.88101            0    2791.4422    18.159038    22.710209    19.186346   0.07987517   -6.6324819  -0.14356396    7912.3638    1012.8979    3572.2442    3789.1845    142.34469   -2227.3974   -1798.0992 
   72500    231.70575   -166.56594   -136.40597   -166.56594            0    3890.3118    18.116512    22.636633    19.449144   0.13570772   -6.5640922 -0.025378141    7976.0323    5131.8669    3959.0586    2580.0099   -821.24952    761.81833    507.31145 
   73000    225.58869   -166.77454    -137.4108   -166.77454            0    5017.8495    17.963911    22.486454    19.587583  0.077881588   -6.6320002   0.13178554    7912.2993    5605.8572    3559.7572     5887.934   -2347.1889   -1226.6427   -808.38074 
   73500    243.26445   -167.64499   -135.98048   -167.64499            0    7036.1815     18.10395    22.508895    19.384769   -0.1113989   -6.9125992   0.23054411    7899.2917    7520.4457    4744.8918     8843.207    385.16612   -84.860484    463.36578 
   74000    234.25778   -167.35853   -136.86637   -167.35853            0     7242.194    18.378126    22.690083    19.183035   -0.2458598   -7.2173892   0.11880586    7999.3486    8456.8082    4962.9005    8306.8734   -694.39729   -15.851785   -20.816574 
   74500    228.77027   -166.35729   -136.57941   -166.35729            0    6441.3196    18.203201    22.622287    19.093725  -0.23859998   -7.2654112 -0.002943462    7862.7584    5308.4297    7165.5875    6849.9415    804.75836    2020.0344   -2167.5925 
   75000    236.50787   -166.54502   -135.75998   -166.54502            0     6155.446    18.037741    22.791023     19.42201 -0.099177439   -7.1343318 -0.030946047    7984.3605    6078.4601    4963.5865    7424.2912   -154.73176   -1323.6103   -289.52774 
   75500    235.95911   -168.06442   -137.35081   -168.06442            0     4232.935    17.944303    22.687475    19.472554 0.0021079814   -6.9218217 -0.014081975    7927.4897    7822.3666    4196.5426    679.89588    1960.2959   -192.05617   -678.08847 
   76000    236.28163   -167.37145   -136.61586   -167.37145            0    5685.1831    18.086106    22.626467    19.355863  0.081351323   -6.8408104  0.033187838    7920.8971    6875.9672    5498.6211    4680.9611   -1019.6235    1852.5542    1291.6542 
   76500    214.08126   -167.65669   -139.79081   -167.65669            0    9762.0986    18.218736    22.621376    19.308704  0.046464587   -6.8409489  0.046598989    7957.7517    11336.629    11143.153    6806.5137    1785.2345   -274.44934    3320.8917 
   77000    227.69477   -168.94829   -139.31041   -168.94829            0     6120.945    18.117492    22.591797     19.22486 -0.035010502    -6.812444 -0.028890981    7868.8638    6789.6389    5802.9792     5770.217    449.39557    2237.8847    2709.9498 
   77500    231.87851   -166.97433   -136.79187   -166.97433            0     3974.764    18.122283    22.754611    19.311617  -0.16258378   -6.8551987 -0.095336538    7963.4445    6709.2425    3570.4284    1644.6211     -330.537    341.52762    1116.2328 
   78000    242.54193   -165.43165   -133.86118   -165.43165            0    4142.3618    17.989367    22.778993     19.37986  -0.18745014   -6.9406807  -0.05443381    7941.4726    5229.8678    2459.5261    4737.6915    2165.9006   -61.148234    1739.8919 
   78500    226.36129   -167.45579   -137.99149   -167.45579            0    3864.0652    18.019992    22.741717    19.375561  0.052789856   -7.0278967   0.18749261    7940.2128    4681.8333    4487.5295    2422.8328   -46.401209    1030.4493   -620.04098 
   79000    228.52386   -167.06315   -137.31735   -167.06315            0    6827.4544    18.199967    22.526265    19.229631   0.23409963   -7.1742705   0.29488193    7883.7117    5535.6812    6461.3744    8485.3074   -299.91552    818.52227   -3257.5978 
   79500    234.60147   -166.94239    -136.4055   -166.94239            0    808.65056     18.36228    22.506635      19.3787   0.13389938   -7.2180694 -0.011247589    8008.6958   -205.91101    356.58908    2275.2736    2894.4581   -250.10896   -1324.5366 
   80000    238.01932   -165.94804   -134.96626   -165.94804            0    5434.7675    18.071159    22.392705     19.41761 -0.074711178   -7.0607494  -0.31175393    7857.5717    6684.7136    6893.6028     2725.986   -253.18104    2499.1116    785.31003 
   80500    232.17781    -166.9466   -136.72518    -166.9466            0    4179.3818    18.083791    22.695702    19.511751 -0.089498507   -6.9068081  -0.15919873    8008.0978    3713.5798    4893.3263    3931.2394    2032.8033    430.76717   -412.35562 
   81000    225.46303   -165.49538   -136.14799   -165.49538            0    7726.3459    17.995503    22.717833    19.287912 -0.032815832   -6.7278262   0.14693609    7885.2617    8399.4444    6557.8164     8221.777    627.37127   -961.71561   -1109.2694 
   81500    231.12503   -167.16003   -137.07565   -167.16003            0    4291.3088      18.0964    22.839686    19.238901 -0.028330045   -6.6833824   0.26599369    7951.7473    2181.9847    6071.5558    4620.3858    554.13751   -94.038883    868.55201 
   82000    229.58534   -167.43338   -137.54941   -167.43338            0    8685.1911    18.022478    22.764921    19.270591 -0.078537797   -6.7942321   0.14704081    7906.3433    9211.9274    8610.6329    8233.0129    1222.6244   -565.73221   -27.281296 
   82500    246.36679   -166.55215   -134.48382   -166.55215            0    4141.6455    18.046622    22.641774    19.422627  -0.12117415   -7.0374122 -0.091604597    7936.2318    4104.5816    5190.9769    3129.3781   -112.07164    1744.8596    2473.6508 
   83000    228.75429   -165.74719   -135.97139   -165.74719            0    4090.1635    18.102397     22.68997    19.482522 -0.015993677   -7.1724011  -0.17273605    8002.3066    7404.5045    2996.0003    1869.9857    975.33662   -325.63221   -92.294805 
   83500    236.81379   -166.67697   -135.85211   -166.67697            0    7828.1388    18.154677    22.482828    19.259578  0.080582286   -7.1924243 -0.033870236    7861.1529    6407.6619    8399.1439    8677.6105    448.58595    553.60499   -1691.6623 
   84000    240.83546   -166.04462   -134.69628   -166.04462            0    4632.6984    18.314203    22.563047    19.347014  0.026464029   -7.0850814   0.16525353    7994.6547    2864.6819    6097.0703     4936.343    1626.9832    1543.9381   -258.51882 
   84500    237.98639   -166.76888   -135.79139   -166.76888            0    5175.8986    18.096574    22.490607    19.441802   -0.1897091   -6.7409442   0.12169525    7912.8702    4514.7295     6902.438    4110.5281   -812.32357    143.92845   -410.07664 
   85000    228.80123   -166.96476   -137.18286   -166.96476            0    5223.0002    17.924609    22.569078    19.524615  -0.34352559   -6.4606326 -0.051114081    7898.5248    2743.8382    5315.4365    7609.7259    406.15884    692.85325    1795.9995 
   85500    244.40063   -166.97534   -135.16294   -166.97534            0    2631.3117    18.026347    22.743272    19.472046  -0.16976588   -6.4384786 -0.087963968    7983.1127    3434.6045   -549.13471    5008.4653    23.729821   -3075.8042   -1146.3341 
   86000    239.14174   -166.90958    -135.7817   -166.90958            0    4971.9691    18.082194    22.698705    19.277501  0.078546894   -6.6251845 -0.005228992    7912.3034    5409.3514    5600.4897    3906.0662   -1020.9757    367.21919   -1781.6491 
   86500      233.559   -167.67435   -137.27315   -167.67435            0    3386.3979    18.135662    22.785654    19.226643   0.13645895   -6.8831195 -0.040211294    7945.0819    3958.8012     1415.937    4784.4556    163.58464   -3104.5371     1530.228 
   87000    224.39252   -166.92031   -137.71226   -166.92031            0     3110.761    18.036952    22.746135    19.256509  0.051799005   -7.0831648 -0.033306079    7900.3862    2568.0369    2732.8151    4031.4311   -65.721874   -645.64256   -2982.7178 
   87500    227.86834   -166.75599   -137.09551   -166.75599            0    3358.1086     18.07173    22.718677    19.413882 -0.0030098287   -7.2340513  0.018046907    7970.6759    567.08914    5611.7734    3895.4632    442.66179    1753.4696    -477.6324 
   88000    234.07024   -166.27349   -135.80575   -166.27349            0    4789.3112    18.111352    22.523876    19.391683  -0.11070346   -7.2513445   0.10480268    7910.6011    5423.6585    5907.8308    3036.4443    1801.9012   -1056.6956   -176.29736 
   88500    235.15999   -167.87095   -137.26136   -167.87095            0    3328.8288    18.220227    22.538303    19.417056  -0.15528076   -7.1132026   0.20571557     7973.672    1503.7555    4039.5186    4443.2125   -1477.2434    847.50858   -865.22081 
   89000    223.18033   -167.93446    -138.8842   -167.93446            0    4461.4744    18.111414    22.588977    19.370608 -0.061931381    -6.677262   0.26373057    7924.8705    1899.6644    4489.6849    6995.0738   -2717.7209   -1495.9327   -3379.9256 
   89500    230.19535   -168.56765   -138.60428   -168.56765            0    7827.9137    17.947809     22.59144    19.323814   0.05591374   -6.2762197  0.069135716     7835.166    7545.1155    7610.9496     8327.676   -2103.7184   -1908.9497   -2068.5788 
   90000    225.47442   -167.73069   -138.38182   -167.73069            0    5369.8613     18.05096    22.868122    19.373373   0.10001679   -6.2365601  -0.14948087     7997.165    4991.6564    4830.4565    6287.4712   -267.68845    563.30022    294.76516 
   90500     236.9747   -166.69916   -135.85336   -166.69916            0    5433.9976    18.013569    22.622015    19.238386  0.036186257   -6.4171857  -0.21354906    7839.7046    3248.5955    5431.1028    7622.2946   -1044.1843   -3204.2859     939.9466 
   91000    228.87934   -166.45985   -136.66777   -166.45985            0    3528.3584    18.153828    22.691752    19.372299 -0.045498523    -6.776054 -0.041439094    7980.2668    5282.7281    2001.7606    3300.5865   -770.38693    497.89555   -768.95441 
   91500    224.29951   -168.52052   -139.32458   -168.52052            0    6338.4555    18.112611    22.549021    19.390663  -0.10993944   -7.0452395   0.14792009    7919.5664    6727.2131    6224.9596    6063.1939   -950.73752   -1486.0864    2528.7693 
   92000     230.2205   -167.09661   -137.12996   -167.09661            0    9796.9029    18.082782    22.425497    19.402044  -0.14586357    -7.222192   0.14171714    7867.8273     7552.763    10744.975     11092.97    1245.1361    1849.4788    1771.2693 
   92500    222.14976   -166.90091    -137.9848   -166.90091            0    1710.8313    18.202694    22.653645    19.471595  -0.16620497   -7.2864159  0.051168206    8029.2552    3122.1784    510.50697    1499.8085    1063.0412    1839.9598     2934.799 
   93000    237.24204   -167.14923   -136.26863   -167.14923            0    7651.7657    18.072473    22.552362    19.271818 -0.052427272   -7.0671933  0.031822003    7854.7487    8478.5688    6940.0334     7536.695   -30.495657    737.57923   -2208.3751 
   93500    231.58523   -167.93305   -137.78877   -167.93305            0    3881.6017    18.127776    22.706302    19.322725   0.11896398   -6.8436335  0.013554514    7953.5185    2598.5573    3740.6424    5305.6056   -111.70402   -919.31741   -33.421847 
   94000    227.45722   -167.72946    -138.1225   -167.72946            0      4383.42    18.100664     22.66781       19.317   0.10641148   -6.6781738 -0.037561853    7925.8115    2904.9056     5301.375    4943.9794   -1888.7684   -49.554961   -814.27602 
   94500    239.25113   -168.20108   -137.05896   -168.20108            0    8489.2891    18.042804    22.550756    19.292932  -0.06371707   -6.5729743 -0.071076648    7849.8862    9843.8959    8518.4426    7105.5288   -850.48622    1926.5572    735.90229 
   95000    225.03929   -168.04737   -138.75514   -168.04737            0    3684.0203     18.17165    22.578271    19.539634  -0.32548882   -6.6911407 0.0046189229     8016.808    2552.8047    4700.0633    3799.1929    2647.7863    516.03267    5335.7659 
   95500    229.12512   -165.89142   -136.06735   -165.89142            0    5567.2276    18.036466    22.359234    19.464328  -0.38101961   -6.8477137   0.24776464    7849.6049    5388.4232    6357.8377    4955.4217    702.60088    1705.8212   -401.10179 
   96000    236.11168   -166.30615   -135.57268   -166.30615            0    4994.2429    18.145524    22.520122    19.479869   -0.2369297   -7.0812657   0.42387946    7960.2423    6856.9175    4804.0033    3321.8079    11.397469     321.5608    553.87367 
   96500    242.40822   -167.11933   -135.56628   -167.11933            0     3199.137    18.177333    22.712938    19.271745 -0.068621984   -7.2512494   0.25508951    7956.5446    1679.2175    4342.3519    3575.8414   -764.28006    886.03296   -2769.8654 
   97000    234.50304   -167.16071   -136.63663   -167.16071            0    3706.3038    18.111935    22.714079    19.183372  0.018296066   -7.2537069  -0.15096094    7891.9609    3898.9994    4379.9827    2839.9292    1029.5642   -851.81375   -311.51817 
   97500    237.40727   -167.37831    -136.4762   -167.37831            0    6443.2396    18.035879    22.799352    19.348192  0.037597712   -7.1593141  -0.30704248    7956.0994    8021.7404    7160.6347    4147.3437   -343.10167    4405.1248   -2079.8481 
   98000    223.21317   -167.36882   -138.31429   -167.36882            0    2970.6562      18.0196     22.71819    19.413415  0.081911034   -6.9537764 -0.097240091    7947.3223   -80.885648    5261.3616    3731.4926   -1571.1905   -1188.9771    493.03338 
   98500    233.70977   -167.55458   -137.13375   -167.55458            0    8642.6341    18.069342    22.481475    19.307457   0.10945748   -6.7947037    0.1677973    7843.1804    6788.1319    9646.4293    9493.3411   -4480.1224    138.06327   -294.37914 
   99000    232.90536   -167.19509   -136.87897   -167.19509            0    6180.4576    18.297825    22.579455    19.344181 -0.021770495   -6.7952107   0.18312407     7992.143    4797.1918    4892.5243    8851.6568    1433.0948    1814.6601     319.1458 
   99500    238.12895   -165.68679   -134.69074   -165.68679            0     6984.333    18.177598    22.441539    19.370121   -0.1430702   -6.7903587  0.040384874    7901.7168    5741.6648    8087.9224    7123.4117   -2023.2652   -1860.9718   -3056.4013 
  100000    226.55699   -165.99674   -136.50696   -165.99674            0    6866.7566    18.028202     22.46538    19.572473   -0.2339528   -6.8924288 -0.075463698     7927.055    9111.9963    6589.0107    4899.2628    1719.6986     123.2334    2291.4528 
  100500    235.25921   -167.07409   -136.45158   -167.07409            0    811.23826    18.032705     22.64577    19.551164  -0.10517505    -7.007795 -0.051398516    7984.0008   -256.67304    917.54445    1772.8434   -1169.1394    1305.5657    432.24206 
  101000    236.32862   -168.06661    -137.3049   -168.06661            0    4113.4956    18.104007    22.583288    19.201876   0.18906831   -7.1439816  0.044691506    7850.6487    1518.2016    3960.7389    6861.5463   -1890.5922   -620.21094   -2636.8126 
  101500    233.94419   -167.36603    -136.9147   -167.36603            0    2184.1545    18.244677    22.837887    19.207043   0.25999596   -7.1848666   0.10950845     8002.996    513.72247    2298.8163    3739.9247   -628.22806    1106.9257   -2222.1993 
  102000    231.03146   -166.81744   -136.74523   -166.81744            0    4297.9395    18.057177    22.690674    19.276838  0.087640148   -7.0046424  0.015821578    7898.2897    5703.8012    3267.1805    3922.8369   -3428.4899   -729.00202   -2962.2463 
  102500    230.77227   -167.26732   -137.22886   -167.26732            0    6209.9147    17.936665    22.715175    19.445405 -0.099502374   -6.7848576 -0.059798875    7922.7283    5267.3344    6643.6839    6718.7258    2827.5999    313.66029    4240.0069 
  103000    238.14035   -167.39692   -136.39939   -167.39692            0    2404.2402    18.084624    22.697025    19.471451  -0.18387589   -6.7077738  0.012237887    7992.3911    1245.8042    3304.9626     2661.954   -1545.4363    351.36315   -1300.8005 
  103500     235.1602    -168.0919   -137.48228    -168.0919            0    5064.8321    18.125348    22.495136    19.243928  -0.17362061   -6.7365068   0.13551688    7846.3688     145.2827    8223.7537    6825.4599    500.14784   -123.57662   -1069.3495 
  104000     234.0399   -166.93149    -136.4677   -166.93149            0    5867.0756    18.300565    22.659832    19.314894 -0.066344114   -6.9238173   0.16744785    8009.6495    4068.5544    4938.2782    8594.3942   -374.28851   -388.45889    554.31913 
  104500     230.6035   -167.37585   -137.35935   -167.37585            0    3937.4737    18.056173     22.51803    19.378718  0.041776202   -6.9763785  0.076816413    7879.1823   -2558.9984    7536.4672    6834.9524    -882.5056   -577.74835   -5402.6308 
  105000    237.40328   -166.74218   -135.84059   -166.74218            0    3095.1492    17.941044    22.666827    19.531525   0.08065034   -7.0006921 -0.044895998    7942.8176    5394.9753    1014.6585     2875.814    1342.3969    729.77096   -2646.5121 
  105500    240.00714     -166.631   -135.39048     -166.631            0    2138.3588    18.093395    22.719651    19.414686   0.10147754   -7.1281705  -0.10086132    7980.9042    2834.0596    1907.4605    1673.5564   -4009.4521    1679.1163   -2131.9318 
  106000    235.81403   -167.24131   -136.54659   -167.24131            0    2898.7677    18.151027    22.668371    19.164964 0.0064815661   -7.0436626 -0.0068950213    7885.5048    1439.2202    2802.9156    4454.1673   -245.15973    1139.2948    1425.4093 
  106500    231.80374   -166.95266   -136.77993   -166.95266            0    6366.5018    18.165214    22.780061    19.232019  -0.14457279   -6.9107705   0.17517031    7958.2994    5253.8384    3024.8338    10820.833    -1890.392   -1402.4311    474.55033 
  107000    228.51546    -166.9006   -137.15589    -166.9006            0    9102.2731     18.08165    22.654857    19.426956  -0.18552549    -6.754345   0.20339718    7958.0035     7950.602    8390.7794    10965.438   -439.04263    1604.7317   -612.57456 
  107500    233.24489   -166.51934   -136.15903   -166.51934            0    5195.1581    17.893873    22.544155    19.563899  -0.14003307   -6.5751082   0.04051894     7892.121      5649.95    4480.8254     5454.699   -569.09203   -2266.3041    131.34275 
  108000    233.09684   -166.39877   -136.05772   -166.39877            0    4351.9327    18.064952    22.616912    19.574515 -0.065651651   -6.6400238 -0.057333057    7997.6269    3775.3072     4904.496     4375.995   -2257.3036    1529.9375   -219.02202 
  108500    240.86139     -166.455   -135.10329     -166.455            0    3513.3816    18.260976    22.497026    19.282855   0.16506459   -6.8175103 -0.041242843    7921.7372   -797.86651    4745.8047    6592.2065   -1801.3301    1339.5711   -889.21925 
  109000    230.61099   -166.23703   -136.21956   -166.23703            0    5151.9365    18.308049    22.498171    19.163229   0.22778744   -7.0142515  0.016614391    7893.2884    3729.3815    7891.2812    3835.1467   -1073.3556    424.92969    -1511.729 
  109500    222.59276    -165.5694   -136.59562    -165.5694            0    5982.1554    18.078249    22.829522    19.363523  0.043096321   -7.0837048  0.013660434    7991.6704    7642.8191    3895.0448    6408.6022    195.74882    2060.7875    1148.0318 
  110000    229.86067   -166.62295   -136.70315   -166.62295            0    8128.4605    17.807138    22.809336    19.375916 -0.071739712   -6.9899685  0.049438326    7869.8967     11728.29     5622.222    7034.8693   -1951.9658   -763.73123   -172.77579 
  110500    232.42173    -168.1617   -137.90854    -168.1617            0    5534.6002    17.995772    22.864907    19.370191 -0.089028752   -6.9909604   0.14295648    7970.2841    1964.3267    6594.1292    8045.3447    3129.6857    853.03312    1177.4432 
  111000     235.6971    -166.8962    -136.2167    -166.8962            0    6265.3452    18.139277    22.614016    19.214764 -0.099588816   -6.9406749   0.17077714    7881.9331    5535.1527    5010.4297    8250.4532    307.87443   -1016.5143   -1765.9801 
  111500    232.05373   -167.11139   -136.90613   -167.11139            0    6788.5306    18.249923    22.479246    19.377644  -0.12678471   -6.9074946  0.068184147    7949.5724    5869.5204    8501.7507    5994.3207    827.72946    276.57307   -1640.0438 
  112000    236.37947   -167.30118   -136.53285   -167.30118            0    8999.4191    18.090769    22.399834    19.542855   -0.1319891   -6.8698172 -0.079706913    7919.3556    5609.6518    10783.921    10604.685    1236.4834    3930.9667   -659.15152 
  112500    234.63957   -168.58215    -138.0403   -168.58215            0    4417.3885    17.970956    22.539135    19.557263 -0.034069797   -6.8230667    -0.121751    7921.6654    3794.1768    5558.3066     3899.682   -2057.3505   -472.46939    485.24676 
  113000     234.6816   -167.74754   -137.20022   -167.74754            0    7735.4539    18.055437    22.878474    19.130562   0.14727484   -6.9138288 -0.027772317    7902.4689    11220.122    4616.9693    7369.2704    1575.6673    311.84526    487.65814 
  113500    235.24066   -166.97075   -136.35066   -166.97075            0    6257.5066      18.2578    23.048759    18.944556   0.23438601   -7.0674398   0.14562077     7972.241    6688.2231    4538.8948    7545.4019   -2209.3715    419.65759   -144.36354 
  114000    235.73612   -167.44445   -136.75987   -167.44445            0    5632.9116    18.065824    22.823376    19.155146  0.067466945   -7.0244828   0.09119029    7898.1091    6404.6534    3971.6363    6522.4452   -1963.9356    152.17756   -1550.8564 
  114500     237.2188   -166.43025   -135.55268   -166.43025            0    6135.7291    18.085412    22.577012    19.500056   -0.2052088   -7.0092974 -0.072450526    7962.1568    6220.0095    8501.1194    3686.0584   -1136.9152    1530.3679    1439.5936 
  115000    234.08188   -166.28379   -135.81453   -166.28379            0    3859.0245    18.088457    22.502092    19.526221  -0.28897731   -6.8966102 -0.045810723     7947.721    5328.5261    6812.9242   -564.37693    1917.0135    4522.1961    2108.2153 
  115500    234.82157   -165.92434    -135.3588   -165.92434            0    3520.4204    18.222252    22.497096     19.38772  -0.18873518   -6.8187703   0.10209868    7947.9523    1422.3901    3670.8348    5468.0363    1302.6629    2776.4831    47.132667 
  116000    228.76198   -167.21073   -137.43393   -167.21073            0    4650.8766    18.244363    22.481627    19.326283 -0.020217813   -6.8182605   0.17905141    7926.9251    4711.1561    5572.9464    3668.5273    4420.9207   -120.52876    868.47934 
  116500    244.35636    -167.5195   -135.71286    -167.5195            0    3585.5408    18.065545    22.650149    19.383167  0.096156407   -6.7892614   0.13732404    7931.3456    1369.6945    5491.9701    3894.9578    116.31988   -340.41577    191.58332 
  117000    225.33074    -167.4894   -138.15923    -167.4894            0    5554.6782    18.017843    22.860784    19.354602  0.069807607   -6.8331636    0.0389759    7972.1994    6686.7414    4684.0743     5293.219   -1855.1625    1266.2995   -1279.0902 
  117500    231.03355   -167.67057   -137.59809   -167.67057            0     9382.545    17.990151    22.768398    19.166267  -0.12053792   -6.9358182 -0.034529747    7850.6358    7344.4891    9098.0727    11705.073   -879.44917   -1398.2101   -244.93075 
  118000    226.95602   -167.93723   -138.39551   -167.93723            0    2074.3071    18.161173    22.844801     19.31844  -0.29903602   -7.1017504  0.058784981    8014.9964    -984.0356    2707.8504    4499.1064    606.30628    317.33773     -1794.51 
  118500    242.52479   -167.51027   -135.94204   -167.51027            0    6671.8674    18.095978    22.470563    19.298395  -0.21729631   -7.0831064   0.26974457    7847.2448    6199.4426    6620.1331    7196.0265    879.46195     1092.329    1911.9748 
  119000    234.19358   -167.87095   -137.38715   -167.87095            0    4658.3576    18.166437    22.524383     19.44278   0.01693532    -7.016694    0.3239483     7955.748    4814.6053    4171.4027    4989.0646   -744.17917   -1154.4301   -4936.8399 
  119500    236.04609   -166.81634   -136.09141   -166.81634            0    7142.3303    18.187385    22.540808    19.429689   0.20519343   -6.8534659  0.054975634     7965.363    5095.9846    8059.7734    8271.2329   -1259.1029    -490.9863    2131.5978 
  120000    232.39506   -166.85982   -136.61013   -166.85982            0    8593.4384     18.09137    22.588224    19.287906   0.18703359   -6.6625717  -0.28060272    7882.0397    9423.3716     7543.247    8813.6964    842.22157    199.89881    3178.4248 
  120500    230.05216   -166.34135   -136.39662   -166.34135            0    6733.1768    18.088569    22.779152    19.387946   0.11168971   -6.6680807  -0.28840324    7988.6532    7420.7079    4995.9929    7782.8298    663.04284   -708.90448    2945.6002 
  121000    233.03087   -166.97949   -136.64703   -166.97949            0    5289.0908    18.025463    22.700863    19.309446 -0.055610321   -6.8085181  0.051146177    7901.3006     7317.992    5006.9507    3542.3296   -842.23149   -830.73304    859.91926 
  121500     237.2954   -167.60986   -136.72231   -167.60986            0    7711.3793    18.101292    22.747322    19.261375  -0.24038254    -7.056829   0.37451558    7930.9852    8438.5025    6035.0498    8660.5856   -3166.5879   -2055.6967   -2464.7239 
  122000    238.83615   -166.40966   -135.32156   -166.40966            0    4830.3985    18.133091     22.68182    19.298624   -0.3477522   -7.2867588   0.40695707    7937.3605    8129.6901    2198.6086    4162.8969   -457.66394    -974.2512    1398.9412 
  122500    246.15177   -166.12105   -134.08072   -166.12105            0    6614.4389    18.099348    22.656542    19.354283  -0.31614235   -7.2825964  0.097568779    7936.5843    3782.1953    7188.3693     8872.752    313.14926   -175.36718    693.65091 
  123000    232.30747   -166.82918   -136.59089   -166.82918            0     2249.794    18.118224    22.582942    19.447729 -0.080543266   -7.1439952  -0.14091265    7957.2877    2727.3275    979.27827    3042.7762   -2893.8491   -1005.7738    206.82663 
  123500    234.39603   -166.84695    -136.3368   -166.84695            0    3952.6426     18.10577    22.504239    19.402877   0.13673232    -6.971378  -0.11719215    7905.8299       2138.4     4970.575    4748.9529   -342.81448   -58.391478   -1124.7201 
  124000    233.10239   -166.78288   -136.44112   -166.78288            0    8094.0818    18.161365    22.586478    19.378868   0.15651749   -6.8346006  0.018478303    7949.2363    9080.2161    7588.2821    7613.7472   -2242.4078    1858.4977   -923.02434 
  124500     235.5405   -166.16534   -135.50622   -166.16534            0    3879.4966    18.106326    22.626689    19.317106  0.024824031   -6.7169317   0.13016956    7913.9521    4351.3914    3429.9969    3857.1016    1063.1007    26.015861   -2377.8333 
  125000     242.1517   -166.54775   -135.02808   -166.54775            0    5721.5533    18.038737     22.78001    19.288087  -0.20250026   -6.7096362  0.024511242    7925.9111    7474.9873    3486.3155    6203.3573    1492.4306    397.81333    -2144.984 
  125500    237.00696   -166.17025   -135.32025   -166.17025            0    1243.0205     18.06575    22.876371    19.350771  -0.45200427   -6.8499145  -0.10169823    7997.2632    1111.3856    706.86851    1910.8074   -1030.1512    880.06683    334.91543 
  126000    237.17214   -167.07419   -136.20269   -167.07419            0    6079.6516    17.978254    22.666183     19.25785  -0.28084898   -7.0282782  0.063047688    7847.5426    7232.4795    6797.1655    4209.3099    992.04215    769.87564   -687.41803 
  126500    229.28983   -168.51502   -138.66951   -168.51502            0    5253.3987    18.181478      22.6839    19.387071   0.17279854   -7.2640751   0.28722517    7995.7481     1119.828    7624.5987    7015.7694   -745.48444    343.89866   -353.58015 
  127000    229.14516   -166.15021   -136.32354   -166.15021            0    5245.8099    18.143617    22.521219    19.357995   0.30217853   -7.1843946   0.11118071    7909.9938    8583.0755    4529.4295    2624.9247    1329.5577    498.24362   -1953.4931 
  127500    232.37962   -166.61007   -136.36238   -166.61007            0    4229.0408    18.173797     22.44621    19.428624   0.16789475    -7.084027  -0.19152503    7925.5743    3140.6564    5760.7678    3785.6982   -218.25934   -88.406275    1958.0262 
  128000    231.73699   -167.06268   -136.89864   -167.06268            0    4098.4405      18.1161    22.582445    19.425327 -0.068254751   -6.9580538  -0.22353647    7947.0146    8417.7927    2757.9288       1119.6   -1000.3199   -539.71464    2826.5903 
  128500    233.41569    -166.7272   -136.34465    -166.7272            0    7396.3721    18.029565    22.722558    19.302233  -0.10798405   -6.8557562  0.034103568    7907.6971    10068.858    7841.0382    4279.2199   -1756.2852    1079.8431   -1089.0521 
  129000    230.38127    -165.2933   -135.30573    -165.2933            0    5574.8853    18.081771    22.802127    19.307318 -0.073423496   -6.8648346   0.27030178    7960.4615     5908.699     5554.538    5261.4189   -587.94692   -577.67617   -1344.1635 
  129500    230.08721   -165.41671   -135.46742   -165.41671            0    6220.7713    18.030027    22.715164    19.329328  -0.02206192   -6.8264835   0.26764615    7916.4234     5164.304     5181.002     8317.008     255.4151   -258.11107    969.83268 
  130000    227.52023   -167.20937   -137.59421   -167.20937            0    2648.6005    18.209306    22.520106    19.456762 -0.010633143   -6.9212869  0.031820968    7978.7411   -766.34027    6075.8396    2636.3022   -670.26204   -7.3960853   -1542.3714 
  130500    234.36181   -166.33317   -135.82747   -166.33317            0    8188.7097    18.189053    22.313767    19.465512 -0.028485865   -6.9201976  -0.28603615    7900.3952    9305.0201    8589.3129     6671.796    2128.8129    777.10364    3339.7448 
  131000    224.72282   -167.11472   -137.86368   -167.11472            0     4635.996    18.281149    22.442343    19.488245 -0.080785092   -6.9479239  -0.27333126    7995.4774    5012.6632    2838.5792    6056.7458    1148.9476   -546.25249    3952.3804 
  131500     231.4986   -168.16501     -138.032   -168.16501            0    4302.5353    18.075247    22.619449    19.330187 -0.059374278   -6.9085951   0.12658118    7903.1881    5401.1755    3451.7052    4054.7251   -1563.1947    705.29702    2602.0115 
  132000     235.7791   -167.65177   -136.96159   -167.65177            0    6595.3707    17.902941    22.861488    19.302669 -0.051941133   -6.8643432   0.43989211    7900.3484    5556.8807    6444.0554    7785.1761   -2929.7478   -152.69132   -2413.1498 
  132500    239.86634   -166.40307   -135.18087   -166.40307            0    3263.4673    17.933599    23.020656    19.308209  -0.18788559   -6.8661574   0.27940793    7971.2628    3664.6535    2196.6284    3929.1199    1460.2018   -298.51239    242.50002 
  133000    236.57625   -165.28579   -134.49185   -165.28579            0    6596.9451    17.978428    22.800803    19.265686  -0.25666586   -6.8389359  -0.12142563    7897.4396    11096.715    4308.2924     4385.828   -1822.7917   -1563.4589   -76.154289 
  133500    243.29672   -166.93366   -135.26495   -166.93366            0    3065.7474    18.215209     22.67213    19.381041  -0.03063109    -6.888222  -0.29486004    8003.9355     3977.339    3989.4219    1230.4814    454.35004   -2374.0858    402.28274 
  134000    225.12453    -167.6823   -138.37898    -167.6823            0    7752.8207    18.200262    22.381899    19.375518   0.28080327   -6.8507048  -0.12450058    7892.7417    7474.2773    9012.9637    6771.2211   -1027.0445    -1055.097    5403.2723 
  134500    229.92962   -166.78921   -136.86042   -166.78921            0    3432.1656    18.178098     22.40873    19.422151   0.29260219   -6.8341351  0.080971756    7911.5761    4313.9599    3501.5687    2480.9683    -1731.418    24.650148   -1645.1853 
  135000    229.21959   -168.04068   -138.20432   -168.04068            0    2766.6776    18.142745    22.588392    19.454686  0.027847872   -6.8641367   0.13900091    7972.8302    2592.7981    1264.0906    4443.1442   -4137.5544   -731.88972   -1419.2504 
  135500    231.13549   -166.76464   -136.67889   -166.76464            0    6739.5223    17.987868    22.667813    19.261974  -0.34120113   -6.8270011  0.075676055    7853.9858    7161.6868    7764.8423    5292.0379   -1271.9406    2401.7877    942.65391 
  136000    229.90408    -166.0587   -136.13324    -166.0587            0    5906.9973    18.051783    22.910357    19.262264  -0.45498053   -6.8634333   0.13753469    7966.3482    5236.7165    4719.4503    7764.8251   -509.57671   -1690.7932    2022.7925 
  136500    237.25922   -166.84655   -135.96372   -166.84655            0    6487.4048    18.077524    22.816834    19.243173  -0.20716221   -6.8620095    0.2373359    7937.2675    4489.1899    6447.7838    8525.2407   -1612.9633    1118.2147   -4103.8287 
  137000    242.56512   -167.93871   -136.36523   -167.93871            0    7577.4882     18.11326    22.454172    19.317333   0.14852798    -6.855592   0.15201908    7856.7118     6164.438    8281.5095    8286.5173     1911.357   -126.47929    1389.3414 
  137500     239.8364   -166.01626   -134.79796   -166.01626            0    6968.6405     18.17176    22.420635    19.596095   0.30836544   -6.8954307  -0.12796048    7983.8881    7059.9012    6278.3481    7567.6722   -468.89515     3281.103    110.69598 
  138000    231.78919    -166.0286   -135.85776    -166.0286            0    6040.6949    18.148837    22.364793     19.51583    0.2363769    -6.884985  -0.26630241    7921.3774    4376.1416    8825.6027    4920.3405   -260.81865   -710.54772     782.4699 
  138500    237.47435   -167.88178   -136.97094   -167.88178            0    4927.3346    18.155654    22.520509    19.299268 0.0011518972   -6.9215865  -0.12133258      7890.98    3911.4699    3977.8625    6892.6715   -526.79809   -1004.0569   -260.39448 
  139000    233.54848   -169.09523    -138.6954   -169.09523            0    4223.0993    18.113931    22.805174    19.245121  -0.16896951   -6.9481152   0.15463299    7949.9929    1728.9367    4775.5977    6164.7634   -1014.4945    1228.9946    1751.6569 
  139500    235.78099   -168.26364   -137.57322   -168.26364            0    5666.7059    17.939161    22.773437    19.252249  -0.20555947   -6.9400828   0.29576039    7865.2436    8638.9361    3676.0527     4685.129   -1817.9653   -437.49789   -759.85318 
  140000    234.74696   -166.47554    -135.9197   -166.47554            0    5721.3024    17.993105     22.83746    19.349885  -0.22797755   -6.9626723   0.18766751    7951.1932    4726.3585    4159.1936     8278.355    2102.9655    370.10793    615.67388 
  140500     249.1186   -167.55991   -135.13339   -167.55991            0    4229.6755    18.088837    22.638973    19.333918  -0.09869098   -7.0195893 -0.025157507     7917.485     4897.307    6018.4906    1773.2288   -104.89566     6.755435   -562.08405 
  141000    234.85148   -167.46045   -136.89101   -167.46045            0    5369.8136     18.17769    22.473912    19.428408  0.027083677   -7.0573366  -0.14691987    7936.9672    6374.5874    5164.7559    4570.0976   -761.51705     1310.254     838.1958 
  141500    226.16552   -166.66091   -137.22208   -166.66091            0    6662.6769    18.110723    22.434153    19.473488  0.072778987   -6.9717907 -0.061665627    7912.0535     6631.934    5701.0988    7654.9978    824.31335   -2089.9703   -141.30769 
  142000    229.84749   -167.28153   -137.36344   -167.28153            0    5158.7251    17.986524    22.577542    19.528452  0.098482641   -6.8229181    0.1408518    7930.3386    8667.4926    4528.5898    2280.0928    3742.3734   -986.16403    520.67711 
  142500    237.20188    -166.7533   -135.87792    -166.7533            0    4617.7529    17.917158    22.904461    19.362021 -0.043149206   -6.5891015   0.31176161    7945.8413     3182.456    4704.9986    5965.8042   -871.49369   -2513.9217   -652.64423 
  143000    231.84347   -165.56603   -135.38813   -165.56603            0     6240.338    18.001372     23.08845    19.012815  -0.32063478   -6.4823013   0.32267427    7902.1781     7510.941    7018.5494    4191.5236     843.1311   -2705.8324    1661.2283 
  143500    232.94883   -166.38338   -136.06161   -166.38338            0    5491.9377     18.02399    23.128321    19.006204   -0.4275411   -6.5322124    0.1322928    7923.0144    8031.2192     3078.632    5365.9618    5311.1957    366.65535    3990.4423 
  144000    241.61748   -167.99479   -136.54466   -167.99479            0    7748.5393    17.999816    22.756649    19.368279   -0.2095386   -6.7237569 -0.086994008    7933.5471    9288.5886    8200.7836    5756.2458   -2941.8179    132.01174    313.08103 
  144500    234.52597   -166.73821   -136.21114   -166.73821            0     2734.365    18.063906    22.474903    19.539982  0.057819443   -6.9010516   -0.1282021    7932.9303    4752.8014    3477.5041   -27.210623    883.37675   -549.97218    2513.6674 
  145000    231.99323   -165.38519    -135.1878   -165.38519            0    2332.9316    18.224508    22.387476    19.482455   0.22422683   -7.0357462 -0.013771976    7948.8558    1685.6383    2438.6015    2874.5551   -239.82232   -3031.6756    267.37507 
  145500    238.69905   -166.58161   -135.51136   -166.58161            0    5040.0277    18.196823    22.406628    19.350193   0.23170438   -7.1194332   0.10511376    7889.6437    4705.2397    6288.3204     4126.523    816.50743     -164.716    2618.4048 
  146000    232.07115   -167.67393    -137.4664   -167.67393            0    1772.6952    18.101276    22.762899    19.404486  0.017291117   -7.0690753  0.066989796    7995.3761    4998.2078    218.93972    100.93823    -673.7538   -2975.7827   -191.87505 
  146500    221.56773   -166.17083   -137.33048   -166.17083            0    4517.6617    17.900506    22.835357    19.179128  -0.28188955   -6.9241472 -0.036641229    7839.7458    5290.6163    5675.6101    2586.7587   -2196.3073    1104.3967    3535.9986 
[...]
  365000    242.55881   -167.83857   -136.26591   -167.83857            0    4087.2123    18.062103    22.829587    19.179739  -0.14685802   -6.9933095   0.11854584     7908.772    3584.4182    3492.0464    5185.1722    979.65939   -2354.0425   -800.45235 
  365500    235.78033   -167.30101   -136.61067   -167.30101            0    4915.9957    17.877048    23.110996    19.198836  -0.04739739    -7.018951 -0.0032711198    7932.1216    6855.3279    4250.7991    3641.8601   -50.312734    1691.8595   -869.67657 
  366000    242.25554   -166.48808    -134.9549   -166.48808            0    2271.0238    17.878273    23.066773    19.287074    0.0978465   -7.0481552  -0.19366222    7953.8751    2393.7133    1894.5171     2524.841   -692.86009    2412.2708    2373.3709 
  366500    232.28258   -166.54328   -136.30823   -166.54328            0    4499.3008    18.092481    22.634783    19.393486   0.18284192   -7.0518435  -0.20451471     7942.008    4347.1973    2898.4721    6252.2329    1218.2752    8.1500187    2558.6207 
  367000    235.03589   -167.19158   -136.59814   -167.19158            0    7411.1063    18.387594    22.237946    19.473224    0.1806553   -6.9636029 -0.026950836    7962.6464    7010.4724    6524.0232    8698.8233   -485.80018   -671.31549   -1526.9114 
  367500    243.16748   -167.66527   -136.01338   -167.66527            0    4144.1368    18.345725    22.127527     19.52401  0.026234143   -6.7770281   0.12106912    7925.6842    1129.5615    6835.8951    4466.9537   -1040.8898   -58.074565   -1917.5839 
  368000    233.26589   -166.07263   -135.70958   -166.07263            0    4314.2577    18.090762    22.441809    19.600936  -0.15421058   -6.6397377  0.089040329     7957.773     4848.822    2607.4849    5486.4662   -324.98746   -909.97253     2189.507 
  368500    234.54885   -167.04006   -136.51001   -167.04006            0    4276.3386    17.985641    22.745178    19.411853  -0.20296195   -6.6894415 -0.025077966    7941.1287    6430.7276    3224.0607    3174.2275   -1557.9383    211.92163   -2533.4331 
  369000    233.98271   -167.01054   -136.55418   -167.01054            0    4429.3446    18.041904    23.020545    19.140353  -0.14352207   -6.8580406 -0.034022381    7949.6481    6441.8371    3203.4978    3642.6988   -1372.4354    1016.5502   -185.75553 
  369500     232.3574   -166.22349   -135.97869   -166.22349            0     4801.646    18.132039    22.980506    19.101613   0.07858678   -7.0881915  0.031933469    7959.3258     3437.254    4725.6672    6242.0169   -1194.9752   -788.68229   -495.27002 
  370000    244.29895   -166.22286    -134.4237   -166.22286            0    7934.3287    18.069427    22.725588    19.304889   0.19499753   -7.1666073  0.090325658    7927.3279    7953.8923    7113.3067    8735.7871   -269.12199   -606.24582   -3691.5227 
  370500    235.59311   -167.49836   -136.83239   -167.49836            0    8147.9215    18.071766    22.415059    19.569085  0.059595918   -7.1570673 -0.024446468    7927.0391     8702.088    8322.3793    7419.2973   -1807.0576    1260.2051   -4091.4255 
  371000    227.14976    -166.3338   -136.76686    -166.3338            0    2355.5126    18.224268    22.320209    19.586235  -0.09422507   -7.0853754  -0.11162871    7967.0825    625.15906    2085.3209    4356.0579   -268.20273   -241.18253    436.43294 
  371500    236.24037   -168.12161   -137.37139   -168.12161            0    6103.4718    18.266742    22.367914    19.302331  -0.13730406    -6.964092 -0.027897016    7886.7183    5546.8044    8043.2547    4720.3563   -854.94829    2040.1628    1767.7971 
  372000    232.23593   -167.30528    -137.0763   -167.30528            0    3493.5076    18.264211    22.742825    19.281819 -0.098509231   -6.8318262   0.15044339    8009.2775    1388.6543    1436.7607    7655.1077    1659.4759   -2377.4825   -381.17233 
  372500    237.20806   -168.17682   -137.30064   -168.17682            0    5042.7726    17.906989    22.805085    19.248317  0.033147287   -6.7276015   0.24019086    7860.4429    5988.5509    5675.2266    3464.5402   -1983.0567    2218.7887   -2140.3805 
  373000    223.32448   -169.07024   -140.00122   -169.07024            0    5205.7661    17.933634    22.866267     19.40774    0.1041083    -6.782975   0.21353819    7958.6343    5707.1627    5182.8521    4727.2836    2060.7358   -757.52635   -1267.2349 
  373500    231.37897   -168.12696   -138.00952   -168.12696            0    7966.2793    18.019395    22.728205    19.204013 -0.039339103   -6.9090486  0.013482495    7864.9748    7007.6651     7970.832    8920.3407   -1078.1316    105.26322   -262.55919 
  374000    239.51549   -166.98748   -135.81096   -166.98748            0    1326.7533    18.255355    22.709697    19.298294  -0.11200054   -7.0721363  -0.05164165    8000.5625    870.38272    3005.7616    104.11557   -2361.9799   -1242.4718    348.06284 
  374500    239.00815    -165.3931   -134.28262    -165.3931            0    10261.377    18.139152    22.540468    19.342449 -0.072509169   -7.1209696  0.051728705    7908.4501    7743.8283    12323.301    10717.001    678.31244    1066.9396    2185.3723 
  375000    248.33233   -166.82492   -134.50075   -166.82492            0    1711.3128    18.062479    22.570104    19.590622  -0.13117261   -7.0263627   0.12477864    7986.5484    1445.1097    4114.1464   -425.31779   -1996.0398   -309.19899   -1860.5039 
  375500    239.94045   -167.32776   -136.09592   -167.32776            0    6351.5631    18.042284      22.5156    19.476643  -0.23640077   -6.7877529  0.072744423    7912.0521    4230.4949     5977.351    8846.8434    2380.6091   -835.45142    1446.5525 
  376000    243.21452   -167.38724   -135.72923   -167.38724            0    8961.1557    18.175536    22.639663    19.288576  -0.21453427   -6.5353269 -0.013942954    7937.0182    11015.123    9993.9109    5874.4337    284.73211    1335.8891   -993.51535 
  376500     239.2521   -165.23442   -134.09218   -165.23442            0    5646.2273    18.123645    22.934585     19.18199 -0.072099905     -6.38452 -0.0009617129    7973.1526    7034.8659    2963.9775    6939.8386    216.86355     1078.995    391.30612 
  377000    233.01474   -167.67073   -137.34037   -167.67073            0    5525.5434    17.932838    22.903126    19.266305  0.014583946   -6.4000516   0.03334733    7913.0193    7544.3623    5102.6326    3929.6355   -3353.5595   -3019.5081   -228.83454 
  377500    237.26892   -168.06738   -137.18328   -168.06738            0    7115.3285    17.816688    22.732283    19.478915  0.025848486   -6.7554568  0.087778137    7889.2328     7555.594    6522.0402    7268.3514    -2034.272    22.445419    765.20097 
  378000    235.19251   -167.24428   -136.63045   -167.24428            0     1917.827    18.069921    22.660202    19.503673  -0.03242917   -7.2903446     0.033414    7986.1313    2838.8002    2542.0816    372.59916    2290.2521   -83.112452    534.86163 
  378500    228.16432   -167.71655   -138.01755   -167.71655            0     3181.693    18.266392    22.468841    19.278231 -0.086265578   -7.5355502  0.026313892    7912.2613   -1208.2131    5534.3925    5218.8995     533.9173    1891.7018    3392.0404 
  379000    238.92238   -167.93063    -136.8313   -167.93063            0    3453.9868    18.248773    22.536966    19.326524 -0.039823152   -7.4725565   0.05698155    7948.4576    3331.7411    2537.8383    4492.3809    753.27251   -1788.1898    1597.4567 
  379500    231.96622   -167.20292   -137.00905   -167.20292            0    3036.3179    18.045839     22.65076    19.414131 -0.072052379   -7.2137553   0.10293389    7935.5644    2327.7801    3920.2123    2860.9614      694.166   -959.96841    -2045.385 
  380000     228.8853   -167.30236   -137.50951   -167.30236            0    4997.6334    17.935888    22.771705    19.391152  -0.10491564   -6.8857542  0.085643706    7919.9425    6996.9229    3769.8852    4226.0921    2434.0729   -1000.4235    265.66107 
  380500    224.29074   -167.41057   -138.21577   -167.41057            0    5290.8737     17.98129    22.781013    19.290816 -0.042405002    -6.687203  0.010260544    7902.1356    7462.7481    4029.1563    4380.7167   -848.70011   -776.71913    439.32027 
  381000    232.80584   -167.34481   -137.04164   -167.34481            0    6252.9763    18.166856    22.719553    19.261743   0.01645379   -6.6472925 -0.050249726    7950.1466    4097.9792    7513.2794    7147.6704    68.217073   -504.26356    1820.4625 
  381500    244.33569   -165.48058   -133.67664   -165.48058            0    1115.0874    18.251588    22.623542    19.303404  0.068299015   -6.7478793 -0.032877183     7970.676    842.43975    379.01876    2123.8036    1365.5159    2464.7462     2771.987 
  382000    237.51041   -166.81202   -135.89649   -166.81202            0    4822.8015     18.05073    22.445129    19.505592  0.097599882   -6.8979824  0.038456181    7902.7092    10048.452    741.41797    3678.5351   -1539.9303   -2916.8611     1361.585 
  382500    247.11681   -166.31412   -134.14817   -166.31412            0     5416.045    18.019907    22.403813    19.693646   0.11924315   -7.1237392  0.052389839    7950.6128    5002.7851    6012.1813    5233.1687   -4495.0188    161.82763    546.96443 
  383000     247.5103   -167.15011   -134.93294   -167.15011            0    5156.2789    18.069454    22.577819    19.486014  -0.07612961   -7.2235983 -0.0073641638    7949.6868     5934.492    3174.7512    6359.5936    1238.6542   -696.40485   -1833.5031 
  383500    247.40972   -166.19673   -133.99265   -166.19673            0    8000.6784    18.160248    22.736818    19.139133  -0.33409153   -7.2178086  -0.06279002    7902.6675    6684.1726    9717.5528    7600.3098    1542.6909    999.45157    787.56274 
  384000    234.35105   -166.95948   -136.45519   -166.95948            0    4385.2668    18.112706    23.004856    19.112951  -0.27054596   -7.0606356  0.037810672    7963.9882    2996.2061    4269.6191    5889.9754    147.79143    1155.1663    1908.7698 
  384500     238.3094   -167.86892   -136.84938   -167.86892            0    4806.7249    17.884875    22.928786    19.213527  0.028554091   -6.7772341   0.16845285    7879.0538    7267.5301    2707.8756    4444.7689    -1369.936   -2477.8909    103.94147 
  385000    231.53007   -167.66766   -137.53056   -167.66766            0    5081.6916    17.875723     22.74081    19.439979   0.13181785   -6.6406439   0.14072039    7902.5153    8260.1014    3767.9383    3217.0352    1617.0795    336.32706   -339.84876 
  385500    211.94334   -165.76031   -138.17272   -165.76031            0    4081.9466    18.106005    22.516906    19.511518   0.10666504   -6.6635493 -0.024943692    7954.6742    7437.8799    2582.3464    2225.6135   -652.41383   -1214.8935    2116.2193 
  386000    229.78943   -166.56906   -136.65853   -166.56906            0    6592.9282    18.273139    22.281591    19.339991   0.01748262   -6.8014885  -0.12411767    7874.3665    9569.6766    5856.9412    4352.1668   -10.599177   -39.485386    3343.5905 
  386500    240.75963   -166.52421   -135.18574   -166.52421            0    3718.8405    18.316738     22.52028    19.427417 -0.00099619056   -6.9573034 -0.050600795    8013.7723    3175.9424    4062.3871     3918.192   -794.59354   -263.22831    1541.7652 
  387000    238.42055   -167.81078   -136.77678   -167.81078            0    5438.3181    17.981501    22.600319    19.389824 -0.0036352742    -6.949719  0.044604737    7879.7852    6215.0479    5044.8487    5055.0576   -700.20912   -1133.1533   -1124.5786 
  387500    232.29214    -167.2262    -136.9899    -167.2262            0    5457.5879    17.958832    22.792899    19.442566 -0.034655728   -7.0291008  0.091019779    7958.5008    9683.4902    3195.5298    3493.7439   -1919.9927   -156.31958   -1316.9775 
  388000    228.16643   -168.40194   -138.70266   -168.40194            0    4097.9636    18.011033    22.746927    19.267067  -0.11831877   -7.0214887  0.083143506    7893.6338    3130.4164    3149.2331    6014.2414   -1880.3251    -322.2582   -1068.7858 
  388500    225.18399   -168.03348   -138.72242   -168.03348            0    7173.8835    18.189935     22.67527    19.134858 -0.098215044   -7.0528536  0.027122315    7892.3961    7244.4487    4985.7016    9291.5003    1441.5096    2717.0626   -1893.5183 
  389000    231.80603    -168.1609   -137.98788    -168.1609            0    3723.6701    18.200917    22.666973    19.250901 -0.023740427   -7.0089909 -0.027447689    7942.1462    2590.1502     3045.686    5535.1743    187.19065   -928.91976    391.12758 
  389500    234.07141   -168.47999   -138.01209   -168.47999            0    6410.9001    17.967029    22.563722    19.445245  0.071421475   -6.9348298 0.0066619343    7883.1617    4174.6251    7383.3402    7674.7351    469.80369    2030.6191     481.6176 
  390000    225.71685   -167.85109   -138.47067   -167.85109            0    7106.4382     17.93791    22.645832    19.563396   0.10306982   -6.9074065  0.020526337    7947.0209    8558.6617    7680.8665    5079.7865   -2265.9265    986.84106    2853.1558 
  390500    235.30122   -167.20373   -136.57575   -167.20373            0    5382.9742      18.0923    22.527865    19.390902 -0.011042499   -6.9010604 0.0040231443    7903.3611     4884.153    6933.0968    4331.6727   -1041.0014   -564.79978    1828.3491 
  391000     239.1322   -166.24763     -135.121   -166.24763            0    4643.8715    18.243028    22.615825    19.301175  -0.14993046   -6.9220097 0.0017727408    7963.3006    1011.7352    7148.8536    5771.0257     2090.649    2520.8444     877.9062 
  391500    241.86959   -165.10459   -133.62164   -165.10459            0    6045.2107     18.08739    22.676048    19.280893  -0.13720766   -6.8775513  0.033672386    7908.0682    9098.5156    4404.4145    4632.7021    -1309.334   -2239.7526    1266.5935 
  392000    223.95574    -168.0916   -138.94041    -168.0916            0    3593.8273    17.893749    22.826431    19.435584 -0.011589191   -6.9289047  0.061990213    7938.4723     4054.079    2174.0182    4553.3847   -952.46128    1746.6963     1036.603 
  392500    226.95901   -167.65509   -138.11298   -167.65509            0    6104.8204    17.805525    22.865283    19.417726   0.15710806   -7.0021669  0.051709212    7905.5073    4617.2142    8377.7472    5319.4998   -1907.7773    143.44506    1437.9648 
  393000    230.40888    -165.9567   -135.96553    -165.9567            0     3123.758    18.167997    22.793496    19.147725    0.2402391   -7.0993519 -0.020945329    7929.3062    4669.4393    2116.4786    2585.3561   -2917.9287    1575.2905    3149.9729 
  393500    248.98507   -165.92053    -133.5114   -165.92053            0    3905.8062    18.418836      22.6415    19.109496  0.075043028   -7.1039083 -0.065227814    7969.2349   -1331.1587     5029.485    8019.0922    804.08383   -2667.1043   -1218.8292 
  394000     238.6849   -168.17035   -137.10194   -168.17035            0    4342.3691    18.193573     22.43396    19.412832 -0.093148491   -6.9115484 -0.028166694    7923.4228    4718.7853    5065.9327    3242.3892   -1629.3868    1019.7946     442.9193 
  394500    223.60192   -166.81075   -137.70561   -166.81075            0     2409.352    17.953741    22.445293    19.694368  -0.12472878   -6.7500293   0.10208532    7936.3766    2324.4987    3088.7065    1814.8509    -1741.358   -110.20457      -3126.1 
  395000    235.30007   -166.82122    -136.1934   -166.82122            0    6235.2439     18.01642    22.484385    19.632031 -0.094056772   -6.7304961   0.19748796    7952.7028    9458.2064    4952.8468    4294.6784    1299.3876    305.85472    1428.8652 
  395500    233.62665   -168.32195   -137.91195   -168.32195            0    4345.0924    18.142401    22.556941     19.28555 -0.091457281   -6.7803935   0.12651531    7892.3621    4607.2512    3745.6356    4682.3904    182.00382   -1710.3291   -655.04553 
  396000    224.14763   -167.81249   -138.63632   -167.81249            0    4187.1349    18.181418    22.775592    19.158411 -0.077883303   -6.9212204  0.023725894    7933.3556    5607.2673    2752.0468    4202.0907    566.06279    361.96218    2334.7929 
  396500    236.02394   -169.06811   -138.34606   -169.06811            0    4798.2331    18.054562    22.747676    19.266395 -0.021050855   -7.0877292  0.029679761    7912.6954    6563.4592    5037.9577    2793.2824   -1519.2252    679.46734    2096.4784 
  397000    227.25092   -166.57149   -136.99138   -166.57149            0    4603.3503    17.927067    22.746552    19.379047  0.086079429   -7.2165759  0.066249596     7902.368    4507.6889    6384.0532    2918.3089   -3584.6959    1483.9433   -1638.5664 
  397500    236.32679   -167.52627    -136.7648   -167.52627            0    5960.8315    18.066115    22.710784    19.386331   0.16636193   -7.2893857  0.047057313     7954.127    6668.8681    7957.0052    3256.6211   -3124.7212     70.03025   -1615.1476 
  398000    234.80948   -167.82031   -137.25634   -167.82031            0    7938.3012    18.268467     22.46848    19.256847  0.009290395   -7.1686609 -0.074629715     7904.256    7047.7298    7931.8968     8835.277    1668.4401   -1350.4995    1305.9625 
  398500    233.08797   -165.74584   -135.40595   -165.74584            0    4187.3758    18.327025    22.421867    19.383699   -0.2388155   -6.8414619  -0.16096747    7965.2683    3158.9545    3544.7191    5858.4538    192.28088    -1887.722   -308.64237 
  399000    221.97043   -168.39683   -139.50406   -168.39683            0    6495.8687    18.064498    22.413381    19.495945   -0.3052914   -6.5445044 -0.014523489    7893.6446    9677.2634    6678.9218    3131.4209     3911.902   -466.10942   -784.33663 
  399500    226.29539    -166.6158   -137.16007    -166.6158            0    872.74937    18.021477    22.561725    19.462192   -0.1638357    -6.510276   0.19084941    7913.2418    2009.7139   -831.32058    1439.8547    -2422.519   -1547.6846   -2335.0675 
  400000    217.63878   -167.03877   -138.70982   -167.03877            0    3980.9474    18.099022    22.699379     19.32072  0.016915041   -6.7326107   0.28611955    7937.6579    3330.7639    4215.0813    4396.9971    662.03933   -1526.4664    -1246.554 
Loop time of 2564.77 on 1 procs for 400000 steps with 1008 atoms

Performance: 6.737 ns/day, 3.562 hours/ns, 155.960 timesteps/s
70.8% CPU use with 1 MPI tasks x 1 OpenMP threads

MPI task timing breakdown:
Section |  min time  |  avg time  |  max time  |%varavg| %total
---------------------------------------------------------------
Pair    | 2201.1     | 2201.1     | 2201.1     |   0.0 | 85.82
Bond    | 0.078864   | 0.078864   | 0.078864   |   0.0 |  0.00
Neigh   | 331.22     | 331.22     | 331.22     |   0.0 | 12.91
Comm    | 11.387     | 11.387     | 11.387     |   0.0 |  0.44
Output  | 1.9579     | 1.9579     | 1.9579     |   0.0 |  0.08
Modify  | 17.419     | 17.419     | 17.419     |   0.0 |  0.68
Other   |            | 1.615      |            |       |  0.06

Nlocal:        1008.00 ave        1008 max        1008 min
Histogram: 1 0 0 0 0 0 0 0 0 0
Nghost:        5070.00 ave        5070 max        5070 min
Histogram: 1 0 0 0 0 0 0 0 0 0
Neighs:         0.00000 ave           0 max           0 min
Histogram: 1 0 0 0 0 0 0 0 0 0
FullNghs:      270830.0 ave      270830 max      270830 min
Histogram: 1 0 0 0 0 0 0 0 0 0

Total # of neighbors = 270830
Ave neighs/atom = 268.68056
Ave special neighs/atom = 0.0000000
Neighbor list builds = 40000
Dangerous builds not checked

unfix		3
unfix		2

write_data	data.final.${pid}
write_data	data.final.0
System init for write_data ...

write_restart   restart.lmp.${pid}
write_restart   restart.lmp.0
System init for write_restart ...
Total wall time: 0:42:48
