LAMMPS data file via write_data, version 29 Sep 2021, timestep = 400000

1920 atoms
2 atom types

-0.02966353834277058 24.75406853834388 xlo xhi
0.04558332832828782 24.67882167167158 ylo yhi
-0.16751440204634527 22.959886402046013 zlo zhi

Masses

1 1.008
2 15.999

Atoms # full

4 0 1 0 2.859242952076034 1.5430581634814942 1.8065404411805297 0 0 0
5 0 2 0 3.321718092266244 1.7007690371167903 2.6574790830908097 0 0 0
6 0 2 0 3.2299798937176347 2.239858915677424 1.2146502266265484 0 0 0
17 0 2 0 0.9382252159150689 1.7304028871688506 1.9498074521580993 0 0 0
99 0 2 0 0.22497909517042197 4.116887833332308 4.013784821331937 1 0 0
11 0 2 0 2.9120131749398834 4.057682680728993 3.944452290217364 0 0 0
387 0 2 0 3.7750711749839856 0.20180980888017552 1.1663135654454546 0 1 0
16 0 1 0 0.007493911707098608 1.5507896354042858 1.9522066300460392 0 0 0
19 0 1 0 4.718658770736137 3.329276487100179 0.5575813505441307 0 0 0
2 0 2 0 5.057958175493222 1.7243594286560657 3.614467772271691 0 0 0
46 0 1 0 6.212385498840559 1.3402713415614518 2.036329130066013 0 0 0
47 0 2 0 7.139575601848332 1.2940343759203476 2.3984968075392645 0 0 0
48 0 2 0 6.1171890641857924 2.2207414078545935 1.717719402322724 0 0 0
1 0 1 0 4.1860642368038565 1.9537381915506775 4.074187629912272 0 0 0
386 0 2 0 5.252464259450569 0.2754794633886005 0.9684456680200391 0 1 0
54 0 2 0 7.456506501254578 4.021511491628756 0.7235657183394875 0 0 0
45 0 2 0 7.028203254962184 3.2950871112016897 4.2461201414478 0 0 0
32 0 2 0 11.6669527361677 1.6402691444794442 4.000248883032988 0 0 0
34 0 1 0 9.02416364825837 1.5725678938706995 2.20477990513234 0 0 0
35 0 2 0 9.534120316184488 1.5118576293998967 3.0404866784154327 0 0 0
36 0 2 0 9.365660074829924 2.3187379886091355 1.7261339326517242 0 0 0
49 0 1 0 10.544882328476152 3.186417122158191 0.6088255367247741 0 0 0
51 0 2 0 11.315275577455068 2.809659860365442 1.0805640288850182 0 0 0
31 0 1 0 10.829853011775239 1.8471066411398216 4.327548131276823 0 0 0
78 0 2 0 12.035836538099124 0.682909181545593 1.5478887026343706 0 0 0
42 0 2 0 9.14077237705789 4.05227237038822 3.798488372837455 0 0 0
416 0 2 0 9.961218188969038 0.20204037319989074 1.0037594558819858 0 1 0
76 0 1 0 12.43032729412746 1.569448394643481 1.7279284325966762 0 0 0
64 0 1 0 15.153609021585178 1.581921292015255 1.654808363045354 0 0 0
65 0 2 0 15.488612849460406 1.5461400700965648 2.514407240283851 0 0 0
66 0 2 0 15.624115492968967 0.9390479450057418 1.1187321039749183 0 0 0
77 0 2 0 13.38732508879905 1.3552251925770478 1.7879316667918759 0 0 0
38 0 2 0 12.54619189147252 3.927620125536613 3.821130193288279 0 0 0
75 0 2 0 14.414209904722167 3.221686596934491 4.183671720012504 0 0 0
80 0 2 0 16.28361617430801 3.0797212056269867 0.9279460564826587 0 0 0
61 0 1 0 16.63092015454159 1.3997843619456416 4.199906300842478 0 0 0
62 0 2 0 17.489196019772 1.389932717987335 3.7232298902887146 0 0 0
79 0 1 0 17.090219970834497 3.495875720192078 0.6320444085419862 0 0 0
106 0 1 0 18.7411467970494 1.3959349929972056 2.2441898064639245 0 0 0
107 0 2 0 19.707561794887557 1.4330003003231013 1.9880661077665742 0 0 0
108 0 2 0 18.296354182434165 2.191626364303044 1.95552131443841 0 0 0
68 0 2 0 18.89509477478995 3.691584437944952 3.9542724998723706 0 0 0
446 0 2 0 17.674727645223317 0.21498277423684617 1.1501228963634067 0 1 0
118 0 1 0 20.313705752652883 0.35464278594139803 4.4397765413535035 0 0 0
18 0 2 0 24.553923809192106 0.8825112054398574 1.2948799791161814 -1 0 0
92 0 2 0 23.70656162164624 1.6986631992477599 3.2138460708698218 0 0 0
94 0 1 0 21.25056021152571 1.4846017187985763 1.5606108097610603 0 0 0
95 0 2 0 21.752424652589273 1.4622065030731308 2.3889906201950524 0 0 0
96 0 2 0 21.60972072190996 2.28163985470241 1.0808283650345414 0 0 0
109 0 1 0 23.12350381500193 3.207595918639005 0.2882558844555312 0 0 0
110 0 2 0 23.836297402602902 2.7912356051760696 0.8271034903885942 0 0 0
91 0 1 0 22.988183391322767 1.81352996272976 3.843976366293049 0 0 0
476 0 2 0 22.4576264204464 0.28540895441350395 0.8371660230830646 0 1 0
93 0 2 0 23.01413088310494 0.9371352207469514 4.253964579314917 0 0 0
24 0 2 0 2.2869909745237273 4.823252714478114 1.9658200331151563 0 0 0
10 0 1 0 3.1370928950699786 4.806202471339834 3.3681427875291097 0 0 0
22 0 1 0 1.6338374523437416 4.6790583084376705 1.262583760588493 0 0 0
23 0 2 0 1.487024500703152 5.464542490164642 0.7404110375265563 0 0 0
126 0 2 0 1.7681176412414688 8.112926134017137 2.6650247736203676 0 0 0
27 0 2 0 3.6827912937599296 6.426757400465261 1.0303970145389452 0 0 0
136 0 1 0 0.15596428636190296 7.899348309761584 2.4310003088557632 0 0 0
124 0 1 0 2.7105069049017367 8.071726806779736 2.473902887376458 0 0 0
98 0 2 0 0.21525626483214902 4.761782932433896 2.6388335150285833 1 0 0
122 0 2 0 3.932539285482014 7.794158897109859 3.4788721551520547 0 0 0
138 0 2 0 0.12606565194245326 7.083845667673197 1.9799701017143287 0 0 0
150 0 2 0 0.8196866251966022 5.942849933286185 4.388554968711069 0 0 0
21 0 2 0 4.675280370809727 4.214471087377295 0.20478705154545862 0 0 0
12 0 2 0 4.1425371292339515 4.731584164504331 3.3389952926056328 0 0 0
25 0 1 0 4.538619408069921 6.177631115970619 0.6307492784282033 0 0 0
8 0 2 0 6.380794514845206 4.53085340991929 2.553939164818284 0 0 0
7 0 1 0 5.8171276600805175 4.4307846587273065 3.4004624197586346 0 0 0
52 0 1 0 7.506399606156838 4.73939988650732 1.3645249171467617 0 0 0
168 0 2 0 5.73251620472396 7.394522797562026 1.281195276134856 0 0 0
166 0 1 0 6.220914055757445 8.039451662744423 1.8093730514177138 0 0 0
167 0 2 0 6.007430024910656 7.844042255430787 2.7404145399568973 0 0 0
9 0 2 0 5.972512256550332 5.218375895495107 3.951490528850834 0 0 0
156 0 2 0 7.922320360331187 7.9524569996201295 2.01697565734588 0 0 0
121 0 1 0 4.614927972637697 7.688657757706699 4.134463524654766 0 0 0
1619 0 2 0 7.3218978929337535 5.92814695230125 -0.06512379465619648 0 0 1
180 0 2 0 8.380811486945538 6.109368502715334 4.1858430540025475 0 0 0
50 0 2 0 10.690416538891347 4.172593903497655 0.6124196313486179 0 0 0
53 0 2 0 8.33640591541844 4.606791755800051 1.8531478914350479 0 0 0
41 0 2 0 10.518566854435669 4.707829609551337 3.259055333657542 0 0 0
40 0 1 0 9.586552253853721 4.816277096911105 3.3594038207014547 0 0 0
55 0 1 0 10.706598466725737 5.91949316546782 0.6393828305226901 0 0 0
56 0 2 0 9.797598604658628 6.252217192386781 0.8567450555632157 0 0 0
57 0 2 0 11.20651782080554 6.470673299751294 1.2892088236002954 0 0 0
152 0 2 0 9.83254722697416 7.604145822983423 3.6279265345212486 0 0 0
154 0 1 0 8.906217641500602 7.785368163565628 2.051866511870124 0 0 0
153 0 2 0 11.382627505688491 7.428637075858125 3.7030348154549957 0 0 0
37 0 1 0 12.277876895529785 4.633413103048088 3.2235382896889466 0 0 0
151 0 1 0 10.59595606469955 7.502495709547494 4.283430574486374 0 0 0
196 0 1 0 12.311382926863782 7.721778843204137 2.090213288593148 0 0 0
39 0 2 0 12.556007320543825 5.424956694458242 3.753684643889849 0 0 0
83 0 2 0 13.507249792825883 4.500131851938972 1.8135171627358009 0 0 0
82 0 1 0 14.246017226584625 4.423421926374783 1.1260606715760022 0 0 0
70 0 1 0 15.786860906527703 4.2553205937467915 3.4854881896941494 0 0 0
72 0 2 0 15.453071802697554 4.409282846116185 2.5704179273039096 0 0 0
84 0 2 0 14.163826763298475 5.195942399920407 0.5260861606462308 0 0 0
198 0 2 0 13.236608527885872 7.70037770948857 2.056183430467955 0 0 0
186 0 2 0 15.723582661257398 7.965262438112927 2.8392160614034694 0 0 0
184 0 1 0 15.31767810960993 7.957467730975175 1.9562682644839327 0 0 0
71 0 2 0 15.524475257728419 5.065022412630231 3.8851901610562365 0 0 0
86 0 2 0 16.22400608820036 6.70943950468892 0.9222781613106859 0 0 0
113 0 2 0 19.1886340245452 4.477556147591217 1.638305440246475 0 0 0
112 0 1 0 20.025246763698885 4.500506374245434 1.0433458054671496 0 0 0
69 0 2 0 17.528235964345797 4.318436120425376 3.4004867521444964 0 0 0
67 0 1 0 18.491849656439744 4.384440904949372 3.3420869788174423 0 0 0
85 0 1 0 17.045533171284973 6.361791749038003 0.5370484097140522 0 0 0
87 0 2 0 16.904405839215716 5.372839081018643 0.5047930000799702 0 0 0
226 0 1 0 18.827619215002372 7.5411001598820295 2.0439350618845733 0 0 0
228 0 2 0 18.382100511437933 7.020589053669994 1.4062007713205467 0 0 0
183 0 2 0 17.632335590834742 7.239062868801697 3.2965731297849517 0 0 0
181 0 1 0 16.99794206096067 7.367453471631558 4.083648424779039 0 0 0
182 0 2 0 17.307034851948142 8.177311327522576 4.4504016193517435 0 0 0
216 0 2 0 20.72760978533304 7.628413767720622 2.0850199960874902 0 0 0
111 0 2 0 23.28532459973906 4.160342983923044 0.42965759790193003 0 0 0
114 0 2 0 20.7154513105494 4.580194976757345 1.7252625478205326 0 0 0
137 0 2 0 24.439435656143445 7.802799020611802 3.2667647177354575 -1 0 0
97 0 1 0 24.544387062854824 4.763680524759703 3.4754501444108152 0 0 0
102 0 2 0 22.765038835498398 4.71408800334065 3.378010422560713 0 0 0
100 0 1 0 21.845700664265774 4.663603250179262 3.1922436894899042 0 0 0
115 0 1 0 23.484404800729486 5.836333579140556 0.7144324929061413 0 0 0
116 0 2 0 22.654749608021092 6.08331371683424 1.1670873461737215 0 0 0
214 0 1 0 21.689692904810304 7.66655515803759 2.1844321019896915 0 0 0
213 0 2 0 22.58210185923492 7.848686730894364 3.5765775765075807 0 0 0
101 0 2 0 21.441173623031332 5.4708775789444966 3.454781459346882 0 0 0
211 0 1 0 23.083487997681875 7.6996145405934096 4.3977386477487705 0 0 0
117 0 2 0 23.380186245704053 6.328950837723732 -0.08677974211858022 0 0 0
125 0 2 0 3.039886256261316 8.81053820295963 1.9594200882862323 0 0 0
130 0 1 0 3.260204147328548 10.72719350117649 3.6052927171317775 0 0 0
142 0 1 0 1.4097750040105708 11.023802024044448 1.570207459321685 0 0 0
143 0 2 0 2.3517916733268485 10.94937883525836 1.852782658665038 0 0 0
144 0 2 0 1.3200695103723934 10.294198926202041 0.9512646190086529 0 0 0
132 0 2 0 2.91952244002555 11.567060282865214 3.9360049428451207 0 0 0
218 0 2 0 0.19090509787822801 10.281421525851476 4.252823883038336 1 0 0
219 0 2 0 0.23707414723471965 11.046777856503203 2.966948100962311 1 0 0
1709 0 2 0 1.5900149961321004 12.136150498741802 -0.11460259308440623 0 0 1
131 0 2 0 4.211428996963265 10.70750468859485 3.7076772482052496 0 0 0
141 0 2 0 4.489356855585711 10.693607768561193 0.6974561700923649 0 0 0
139 0 1 0 4.304678250773149 9.738975972822157 0.5991520177184865 0 0 0
127 0 1 0 5.859722392450097 10.790811919237797 3.520068491686151 0 0 0
129 0 2 0 6.230747784465625 10.636996931309557 2.6275762543204606 0 0 0
140 0 2 0 4.988717472497275 9.26800063923867 1.1519051516357566 0 0 0
172 0 1 0 7.65643937521081 10.69464540945005 1.2022636294179974 0 0 0
173 0 2 0 7.660964377154165 9.988623982401899 0.47312194513615613 0 0 0
128 0 2 0 6.208498655863781 10.027810245573537 4.019696424342461 0 0 0
145 0 1 0 4.547852830393725 12.335464774499062 0.5799818687930928 0 0 0
1740 0 2 0 7.824707446129384 12.235804280452045 0.048483325681320855 0 0 1
197 0 2 0 12.035167277199113 8.427236681631625 1.4869755907953945 0 0 0
155 0 2 0 9.410906271143821 8.556195006903247 1.734320792148819 0 0 0
174 0 2 0 8.431918094095261 10.532771372261525 1.79880117220361 0 0 0
160 0 1 0 9.586446065538622 10.77485177015686 3.3187565122981177 0 0 0
161 0 2 0 10.548567951821116 10.822924894982496 3.326017869100985 0 0 0
169 0 1 0 10.787795312682325 9.505953666395925 0.7079673402467441 0 0 0
171 0 2 0 11.065178404775137 10.377950136627131 0.8078489629443223 0 0 0
162 0 2 0 9.196423010432516 11.580934190267467 3.7153052985689343 0 0 0
175 0 1 0 11.204565023735594 12.268067284336821 0.8946074702227416 0 0 0
157 0 1 0 12.252611333089236 10.969531895596187 3.345449212181259 0 0 0
165 0 2 0 8.234391128596075 9.325526935724922 4.028320019836229 0 0 0
185 0 2 0 15.760059507962056 8.73942370668221 1.538359882113502 0 0 0
159 0 2 0 12.679600044518988 10.815483552285448 2.473717885296129 0 0 0
158 0 2 0 12.50611751529416 10.136317512177106 3.8233476018294437 0 0 0
190 0 1 0 15.670836330023512 10.750983299696044 3.777653780986069 0 0 0
192 0 2 0 15.261491599793086 11.183072369825343 2.9820808286045986 0 0 0
202 0 1 0 14.069237640212243 11.072341312101363 1.301192310579398 0 0 0
203 0 2 0 13.944636513775274 11.706046410244797 0.5650158097193697 0 0 0
204 0 2 0 14.233336384472876 10.229397032649674 0.9166282369774035 0 0 0
330 0 2 0 13.552447440344835 12.323283572218227 4.450695488255467 0 0 0
191 0 2 0 16.64373139611868 10.89989543630607 3.734179292961621 0 0 0
227 0 2 0 18.707650699822846 8.47490516120074 1.7516372361914465 0 0 0
187 0 1 0 18.218053038331515 10.96946031900909 3.5092329805983473 0 0 0
189 0 2 0 18.711559371052797 11.168766811510629 2.714586842478991 0 0 0
199 0 1 0 17.296550430274298 9.540386274591107 0.9015769428982425 0 0 0
200 0 2 0 17.104180168406753 10.482247653804018 0.7914188903773509 0 0 0
188 0 2 0 18.617882074450748 10.13840609556546 3.862597620204043 0 0 0
232 0 1 0 20.239377588915815 10.902310216511326 1.2419741421305655 0 0 0
234 0 2 0 20.416509411566068 9.983396563248219 0.8274842023263455 0 0 0
205 0 1 0 17.075649588153496 12.345021705382107 0.5118677412120898 0 0 0
359 0 2 0 19.431660285700413 12.164159080462618 4.456316546335072 0 0 0
225 0 2 0 20.475406741618674 9.36267721497375 4.389603158287303 0 0 0
201 0 2 0 17.27716328041034 9.091955664001302 0.051741217942967516 0 0 0
233 0 2 0 20.83760103156095 10.927096739428803 2.002712757946996 0 0 0
215 0 2 0 21.962033697433174 8.301897018787846 1.478863855242561 0 0 0
217 0 1 0 24.64969539342402 11.079203826694656 3.837019372625904 0 0 0
220 0 1 0 21.850458375965978 10.566962082709187 3.741620287772112 0 0 0
221 0 2 0 22.79800376119627 10.785566841984888 3.7395369582739666 0 0 0
222 0 2 0 21.455379047996672 11.375266226288632 4.219722316308799 0 0 0
229 0 1 0 23.44876584400248 9.144513953731355 0.6577355175706229 0 0 0
230 0 2 0 24.143781965054107 8.87874679107598 1.2952685721596289 0 0 0
231 0 2 0 23.33995624649424 10.063156343103103 0.7459904172611479 0 0 0
235 0 1 0 23.253349088496858 11.85794616743272 0.7717259332212681 0 0 0
237 0 2 0 22.562987641496996 12.341464787286831 1.2862429232423116 0 0 0
236 0 2 0 23.304575909876963 12.254315472188685 -0.11027754222472272 0 0 0
244 0 1 0 2.7652931453427185 13.822380313699254 2.382972499316739 0 0 0
245 0 2 0 1.8037489352326423 13.607204664560696 2.127582639475668 0 0 0
246 0 2 0 3.2362575859393563 13.111133585752992 1.8818146594596459 0 0 0
256 0 1 0 0.060630857768734586 14.252487155643685 1.982711165830099 0 0 0
260 0 2 0 3.6017057539575204 15.247546014435777 1.2765978346616824 0 0 0
242 0 2 0 3.7550640379338063 14.020476050634846 3.888891580651009 0 0 0
251 0 2 0 2.8312155690277976 16.22449311191424 3.8951643414551507 0 0 0
255 0 2 0 0.8813070060661408 15.782418829430544 4.322915274808956 0 0 0
147 0 2 0 5.298527967793729 12.70220866483459 1.0350842943076146 0 0 0
259 0 1 0 4.346763996003187 15.511694349306618 0.6579933483402824 0 0 0
286 0 1 0 6.304579554213552 13.878696007329017 1.988388802777859 0 0 0
287 0 2 0 5.995367913142456 13.78249293271966 2.896931933278034 0 0 0
288 0 2 0 5.770064540878459 14.608014611765553 1.7033459612018234 0 0 0
241 0 1 0 4.624097693635538 14.042469914721506 4.38457727066164 0 0 0
248 0 2 0 6.217590127764449 16.416572830467267 4.236362900257211 0 0 0
1725 0 2 0 7.513928052070883 15.764203365228827 0.19578023145279977 0 0 1
261 0 2 0 4.283669523055218 14.923289701245528 -0.1086190247881603 0 0 0
276 0 2 0 8.076270224270674 14.106629431741947 2.1733837280578316 0 0 0
176 0 2 0 10.396718604839672 12.687766515216294 1.2076206015754505 0 0 0
272 0 2 0 11.542399648732387 14.00369757373847 3.6539791140080604 0 0 0
274 0 1 0 9.028556928291588 13.884232019669371 2.141022834945154 0 0 0
275 0 2 0 9.406280658577577 13.935884022723068 3.082117939665409 0 0 0
289 0 1 0 11.105412293128943 15.47900081622076 0.8452690173577762 0 0 0
291 0 2 0 10.32389576762857 15.024086384706429 1.283706622261839 0 0 0
271 0 1 0 10.838452240217139 13.976737600054456 4.343652844349134 0 0 0
318 0 2 0 12.237920827547484 13.10519111879352 2.0448620299056692 0 0 0
317 0 2 0 12.30897615002799 14.630239642987659 1.9939038271236593 0 0 0
281 0 2 0 9.340376219388721 15.94465081102558 4.011289026033711 0 0 0
290 0 2 0 10.918795603872015 16.412372983070867 0.8109646208774385 0 0 0
177 0 2 0 11.359908058312595 12.68507166951808 0.056228640574991495 0 0 0
316 0 1 0 12.753097092034935 13.848968601434938 2.4147763505231405 0 0 0
304 0 1 0 15.478143976092648 13.943854163345677 2.09480845839356 0 0 0
305 0 2 0 14.521419540737137 13.727393608266865 2.184044119581043 0 0 0
306 0 2 0 15.844105713583128 13.185767935552263 1.6124814221635368 0 0 0
311 0 2 0 15.204477306446153 16.32704499805114 3.9775720733716655 0 0 0
302 0 2 0 16.35929870121356 14.281302280019153 3.309079111712092 0 0 0
320 0 2 0 16.279072048045713 15.424841128082198 1.1219064236923837 0 0 0
1754 0 2 0 13.828966345934974 15.685895390748586 -0.16295457122743925 0 0 1
207 0 2 0 17.84308876700411 12.72104702791211 0.974196120318849 0 0 0
319 0 1 0 16.870826863232015 15.594142233377841 0.33818872138616096 0 0 0
346 0 1 0 18.809366403605903 14.04712073097726 2.018026215978796 0 0 0
347 0 2 0 18.56910739178864 14.617551202307807 1.3264070842674813 0 0 0
348 0 2 0 18.329239500623657 14.328131277096189 2.790509142117893 0 0 0
301 0 1 0 17.0189537457343 14.408282817914698 4.031486746697414 0 0 0
1784 0 2 0 20.07996428390833 15.786685262924932 0.14906417384214932 0 0 1
335 0 2 0 20.616222798346335 13.846685880169757 2.1712213125038384 0 0 0
258 0 2 0 24.348615630484186 13.418172273006418 1.638890669159133 -1 0 0
257 0 2 0 24.54322139690609 14.391726464995052 2.909673421924988 -1 0 0
332 0 2 0 22.50457894822299 13.961353447678047 3.542222278398953 0 0 0
334 0 1 0 21.558330256904917 13.850273925219149 2.2671255487758817 0 0 0
336 0 2 0 21.873881835431007 14.516384019859021 1.6918475417784997 0 0 0
349 0 1 0 23.077632339126446 15.39900226872678 0.3279253316231454 0 0 0
350 0 2 0 23.70435787798057 15.129855805926578 1.0319455351137274 0 0 0
331 0 1 0 23.256527357274024 13.941068222699267 4.14860386000867 0 0 0
351 0 2 0 23.201628925658834 16.391208388649186 0.2870991876880644 0 0 0
264 0 2 0 0.606503148920629 16.8512814324401 1.6822420582003923 0 0 0
250 0 1 0 3.1439860364110257 16.852278395532707 3.233378846995511 0 0 0
263 0 2 0 2.0590315752854553 16.937743673398042 1.8235208082888743 0 0 0
262 0 1 0 1.3723247956947675 17.008201606450797 1.1195227028820718 0 0 0
366 0 2 0 1.9910969067517712 20.028681707995936 2.1510944358282096 0 0 0
364 0 1 0 2.931466202576765 19.872519386549655 2.0176970217285537 0 0 0
376 0 1 0 -0.019088595969380468 19.957258697988095 1.9763425918556927 0 0 0
267 0 2 0 3.8186758290543064 18.529644492067625 1.1925500606506125 0 0 0
390 0 2 0 2.2573660111816114 18.599056545135753 4.201439703052085 0 0 0
363 0 2 0 3.955394578170746 20.257688225595512 3.735617263981927 0 0 0
338 0 2 0 0.393499620941809 17.750280893254168 3.5956380119692444 1 0 0
252 0 2 0 4.097081859702245 16.88817476045891 3.436369391511015 0 0 0
292 0 1 0 7.6238019633910445 16.964651920574436 1.5593762980788823 0 0 0
247 0 1 0 5.768814963984806 17.10808645249528 3.686624005816456 0 0 0
249 0 2 0 6.276946886198617 16.967971427352538 2.8450063474714793 0 0 0
265 0 1 0 4.5521089566483175 18.298998104477107 0.6019873486882549 0 0 0
266 0 2 0 4.565637719790186 17.307409695672053 0.609183061958456 0 0 0
408 0 2 0 5.85797885073435 19.102409560052145 1.4824946627800217 0 0 0
294 0 2 0 8.005455015189135 17.690722055809648 1.023700367904534 0 0 0
407 0 2 0 5.712035945996219 19.986325057576025 2.7441081497238797 0 0 0
406 0 1 0 6.284173534896156 19.851099538470358 1.9931264052343294 0 0 0
361 0 1 0 4.796871652764989 20.148767378242788 4.253153486008091 0 0 0
419 0 2 0 7.205098955068967 18.351062215064214 4.412544549466933 0 0 0
404 0 2 0 7.91435328264385 20.51127377024092 4.452455970360553 0 0 0
395 0 2 0 8.25646531064226 19.518565122936486 2.209199176557098 0 0 0
293 0 2 0 8.2405575473231 16.92844974911602 2.2714631847687556 0 0 0
280 0 1 0 9.553909645939397 16.766134072005823 3.559839314212855 0 0 0
278 0 2 0 11.28302013482863 16.909390665234632 3.6351431483910845 0 0 0
295 0 1 0 11.090090582774959 18.18283069532869 0.6724658739044782 0 0 0
296 0 2 0 10.335632731880997 18.711642740102103 1.0349303992496703 0 0 0
394 0 1 0 9.203689982927836 19.69338646160118 2.118364824029048 0 0 0
396 0 2 0 9.571092242864784 19.653501831827004 3.0711519457244 0 0 0
282 0 2 0 9.178352282135865 17.39344746466054 4.185317137950759 0 0 0
391 0 1 0 10.942027329545938 19.838258986033082 4.32345965208089 0 0 0
277 0 1 0 12.222593898506151 16.815196609385428 3.5265226621457093 0 0 0
393 0 2 0 11.543608243646927 19.93694569881705 3.5648285227849836 0 0 0
437 0 2 0 12.366254935981246 19.341988806593044 1.412032063416178 0 0 0
436 0 1 0 12.667541350501828 20.140816757898367 1.8994699196800435 0 0 0
323 0 2 0 13.026513092710662 16.979514379618998 1.7670741872632059 0 0 0
324 0 2 0 14.572008663577853 17.30678404165521 1.564618286780932 0 0 0
322 0 1 0 13.716015698671754 17.192111354603455 1.1186338973562362 0 0 0
310 0 1 0 15.574632308545867 17.03542475914166 3.4378824985621192 0 0 0
312 0 2 0 15.133008274341147 17.817265584347933 3.820733259546603 0 0 0
425 0 2 0 14.36831242501339 20.25621251577021 1.741905835718774 0 0 0
279 0 2 0 12.637140440202018 17.60702389507251 3.8971961723333726 0 0 0
326 0 2 0 16.345719265539927 18.86469889951042 1.0388825866817695 0 0 0
423 0 2 0 16.207556066058483 20.243690215686243 3.723760140428321 0 0 0
321 0 2 0 16.92639111828479 16.570051419887438 0.21762560298686406 0 0 0
308 0 2 0 17.544394221129426 17.193836170922896 3.8794815484689087 0 0 0
352 0 1 0 19.996572584794567 16.94810329534803 1.6625343850351524 0 0 0
353 0 2 0 19.263741779650317 16.870145207556025 2.283131166164939 0 0 0
307 0 1 0 18.5067694697032 17.217388931339368 3.8698588002052707 0 0 0
325 0 1 0 16.991120623458084 18.453860021390913 0.46802246545921755 0 0 0
467 0 2 0 18.102783097871946 20.267552286986795 2.7360888524196896 0 0 0
468 0 2 0 18.280018372348646 19.42879967396033 1.4378589418407983 0 0 0
354 0 2 0 19.844008759939868 17.709514021583974 1.0533901771822658 0 0 0
421 0 1 0 17.071403830410187 20.3769987233558 4.116243992801697 0 0 0
466 0 1 0 18.59616614156886 20.22238731646671 1.8528188789744746 0 0 0
455 0 2 0 20.42782092947952 20.012360261991297 2.0072629226457024 0 0 0
337 0 1 0 24.716025833398014 16.9308599686586 3.374559011564377 0 0 0
378 0 2 0 24.39366283836657 19.86362381605051 2.903582733757932 -1 0 0
339 0 2 0 23.780059028486768 17.070974869532733 3.6560879893208598 0 0 0
342 0 2 0 21.53281682864686 17.120616916195523 2.783393027488964 0 0 0
340 0 1 0 21.90172144550346 17.050171618935188 3.6957997828761586 0 0 0
355 0 1 0 23.157553230740312 18.096316312875196 0.5545334792711357 0 0 0
356 0 2 0 23.766813152959674 18.622284645002548 1.1395313462004513 0 0 0
456 0 2 0 21.900185778923728 19.38982465008809 1.7968012289758288 0 0 0
454 0 1 0 21.41863673615704 20.156401231540894 2.0618385128245795 0 0 0
451 0 1 0 23.367359236456792 20.08252330274795 4.067041051916809 0 0 0
453 0 2 0 22.614755390056214 20.17439886472021 3.517379328758045 0 0 0
341 0 2 0 21.513619283105594 17.889136806228873 4.124922497689509 0 0 0
365 0 2 0 3.2513431204641585 20.59563271769128 1.3572584613305891 0 0 0
370 0 1 0 3.1790395653223746 23.102496422863837 3.480722481783937 0 0 0
371 0 2 0 2.7137246948452285 22.953274647552593 2.6393095492155667 0 0 0
382 0 1 0 1.4903512646446477 23.04334898094606 1.1106308955961288 0 0 0
383 0 2 0 1.5125754306147752 22.275178739803735 0.54290674607125 0 0 0
384 0 2 0 1.5539365859504028 23.808280902100115 0.4577273204939215 0 0 0
458 0 2 0 0.2230074848063815 22.529421397004377 3.6847579530611103 1 0 0
372 0 2 0 2.7857279052411608 23.9287853644333 3.855554945922977 0 0 0
374 0 2 0 2.3366369882426112 22.01947715459142 4.296408025837016 0 0 0
385 0 1 0 4.499925434464287 24.365457151563458 0.6553843665212649 0 0 0
379 0 1 0 4.694684572925437 21.72636680585212 0.8801166308717596 0 0 0
381 0 2 0 4.857609496635882 22.73139740999458 0.833131265387896 0 0 0
367 0 1 0 6.250909861056912 23.2617905125694 3.2486858238942835 0 0 0
368 0 2 0 5.324550785525481 23.02934999863252 3.2178115893390014 0 0 0
380 0 2 0 5.505208949935998 21.29645887362125 1.2727026036172364 0 0 0
412 0 1 0 8.028730209501619 23.214256887932727 1.1014063119342081 0 0 0
413 0 2 0 7.90764652595975 23.975162298300244 0.49813797094273493 0 0 0
414 0 2 0 7.308914791170131 23.156950840780933 1.7347872835318736 0 0 0
369 0 2 0 6.740267146241139 22.601084631863298 3.7732655852398995 0 0 0
60 0 2 0 7.135209256816629 24.450440046121713 4.123180921482699 0 -1 0
415 0 1 0 10.77993228467302 24.48965797756034 0.6112776593690596 0 0 0
400 0 1 0 9.476913556418776 23.119757675553043 3.355868969705466 0 0 0
401 0 2 0 10.463073844032559 23.131749058825125 3.261798142056766 0 0 0
402 0 2 0 9.18328082223974 23.163837514339164 2.3956816852296674 0 0 0
409 0 1 0 10.90545986802707 21.673220405307312 0.6591574466146995 0 0 0
410 0 2 0 10.068965371848089 21.208860401432734 0.949336229148305 0 0 0
411 0 2 0 10.720546126694773 22.607931325901838 0.7410370811274167 0 0 0
397 0 1 0 12.169429697554563 22.902924631249242 3.3401644084392657 0 0 0
405 0 2 0 8.672481687341618 21.841880164903326 4.037591141961583 0 0 0
438 0 2 0 12.243404769873305 20.883329355332794 1.484496074634215 0 0 0
424 0 1 0 15.245084748907667 20.616652954669302 2.050956559222681 0 0 0
426 0 2 0 15.592088473802093 21.05559180523741 1.2869320828273993 0 0 0
399 0 2 0 12.555329316425139 22.960270624275378 2.4778037627159293 0 0 0
398 0 2 0 12.573976087938956 23.58241902231949 3.904231037511381 0 0 0
430 0 1 0 15.569163258482984 23.128528990614722 3.405187636826676 0 0 0
431 0 2 0 15.444810297356032 22.219592898704917 3.7487679849912667 0 0 0
442 0 1 0 13.757446271587439 23.041874841033266 1.0165899649945123 0 0 0
443 0 2 0 14.32577633507717 23.252520831596282 1.7634860700654733 0 0 0
444 0 2 0 13.786913844342594 23.899810025888705 0.5821221262037759 0 0 0
90 0 2 0 14.518478346715808 24.43828095357872 4.327662154125182 0 -1 0
435 0 2 0 13.450538980932215 21.85661070111483 4.415900156331657 0 0 0
432 0 2 0 16.5144332688417 23.226433819894233 3.2581106017193404 0 0 0
445 0 1 0 17.071530230397205 24.638577984117447 0.40456908514342294 0 0 0
447 0 2 0 17.096539452597053 23.670841781792927 0.2987195990668141 0 0 0
427 0 1 0 18.32260888277782 23.081861409914676 3.037887421209305 0 0 0
428 0 2 0 18.710243082014497 22.272875576613675 3.4000707469488525 0 0 0
439 0 1 0 16.982899626735712 22.00595428570662 0.34831913809402815 0 0 0
440 0 2 0 17.654235630072954 21.564070698534472 0.8710772768927977 0 0 0
474 0 2 0 19.37605182935685 23.191882951297323 1.738712950329074 0 0 0
429 0 2 0 18.627831182963213 23.908526409211635 3.4679202699272547 0 0 0
472 0 1 0 20.07609797609284 22.96530502142409 1.1141295377751748 0 0 0
473 0 2 0 20.149914716784057 23.710824123386217 0.5049920050025022 0 0 0
459 0 2 0 24.72907949483886 23.456057932145157 2.419612250344472 0 0 0
377 0 2 0 24.254790677976708 20.713392843832718 1.6499943623966835 -1 0 0
457 0 1 0 24.45506208523327 23.30035517560388 3.3849437418075268 0 0 0
475 0 1 0 23.171565111494367 24.4519884253922 0.33318086762759935 0 0 0
460 0 1 0 21.88734207476928 23.0490184468248 3.2429213926506266 0 0 0
461 0 2 0 21.528221462164964 22.604883999200982 2.471530843460564 0 0 0
462 0 2 0 22.835898178214563 22.879751910351246 3.1679783284234073 0 0 0
469 0 1 0 23.248501665876034 21.712840772457785 0.5454499991296525 0 0 0
471 0 2 0 22.358382648494043 21.34316681108922 0.7503668869504919 0 0 0
477 0 2 0 23.116282031624333 23.50618288573268 0.46908058683613285 0 0 0
120 0 2 0 20.838300063616195 24.273549663543267 4.031361203394421 0 -1 0
465 0 2 0 20.726452114319567 22.128794141656563 4.28634449772543 0 0 0
14 0 2 0 1.7256995982615388 2.261242703110506 5.1137993709778184 0 0 0
13 0 1 0 1.5291705413221892 3.218454826555478 5.019966852535417 0 0 0
15 0 2 0 1.6311058990891272 3.574390349459389 5.943108870644474 0 0 0
484 0 1 0 3.004487491175495 1.4266363817797023 8.036765488476913 0 0 0
485 0 2 0 1.9909321108797782 1.3983166889941439 8.025451478489641 0 0 0
486 0 2 0 3.2605281564776867 2.394226909801076 7.96377445303604 0 0 0
28 0 1 0 1.657109208864079 0.3334062937300264 4.895403882688278 0 0 0
496 0 1 0 0.21906400633046322 1.5224621306570973 7.618065368143516 0 0 0
866 0 2 0 3.999987606973632 0.245997638076676 6.836431120161196 0 1 0
3 0 2 0 3.9769243401405507 1.170903958875391 4.642597850865163 0 0 0
43 0 1 0 7.734573226508787 2.973106121984646 4.896992835172519 0 0 0
44 0 2 0 7.73021461284132 2.0255521916181958 4.704729403854616 0 0 0
500 0 2 0 4.329245773980131 2.899046589622065 5.602247172843184 0 0 0
499 0 1 0 4.582223225049095 3.3030978790531695 6.435343184409796 0 0 0
501 0 2 0 5.322197043186557 2.8306854685989356 6.880882338383487 0 0 0
526 0 1 0 6.312771701684458 1.8009883740948598 7.755788962516054 0 0 0
527 0 2 0 7.266553425350907 1.6571155357418001 7.847612397892879 0 0 0
528 0 2 0 5.913529340084436 1.743925797926285 8.613748337794277 0 0 0
58 0 1 0 7.711512815961259 0.1313027014568071 4.869853639902995 0 0 0
867 0 2 0 5.414138885113353 0.5113528039711666 6.592029883635013 0 1 0
534 0 2 0 7.585872750431051 4.032580396784619 6.205686287896132 0 0 0
865 0 1 0 4.681620591337814 0.059587082033545 6.138033385234516 0 1 0
33 0 2 0 10.841968116745486 2.4784716224412686 5.0907757488784595 0 0 0
514 0 1 0 9.041301322292849 1.634532445452447 7.715233609921434 0 0 0
516 0 2 0 9.486264348638477 0.8219345390391138 7.517323752966142 0 0 0
529 0 1 0 10.885602128803452 3.2455790733016476 6.4726234100070945 0 0 0
531 0 2 0 10.015201733633031 3.107098183871656 6.883274295279355 0 0 0
515 0 2 0 9.308330495844904 1.7024089565387022 8.633043058097638 0 0 0
558 0 2 0 11.98288172484856 2.018726049712453 7.290869392033906 0 0 0
896 0 2 0 10.726387003381959 0.5645676249684173 5.513683602261994 0 1 0
73 0 1 0 13.650368323444335 2.7504000808465734 4.586019336975499 0 0 0