LAMMPS (29 Sep 2021 - Update 2)
  using 1 OpenMP thread(s) per MPI task
echo both

include		in.partitions
variable        pid world 0
include		in.temp
variable        temperature equal 250
variable        tempDamp equal 0.100 # this is 0.1 ps
include		in.pressure
variable        pressure equal 7092.75
variable        pressureDamp equal 1.0 #this is 1ps
include		in.seed
variable        seed world 745823

units           metal
atom_style	full
include		in.box
read_data       iceVI.data
Reading data file ...
  orthogonal box = (0.0000000 0.0000000 0.0000000) to (24.724405 24.724405 22.792372)
  1 by 1 by 1 MPI processor grid
  reading atoms ...
  1920 atoms
Finding 1-2 1-3 1-4 neighbors ...
  special bond factors lj:    0        0        0       
  special bond factors coul:  0        0        0       
     0 = max # of 1-2 neighbors
     0 = max # of 1-3 neighbors
     0 = max # of 1-4 neighbors
     1 = max # of special neighbors
  special bonds CPU = 0.003 seconds
  read_data CPU = 0.026 seconds
include 	in.setup
variable	out_freq equal 500
variable	out_freq2 equal 500

timestep        0.0005

neigh_modify    delay 7 every 1

include         in.deepmd
# This is deepMD model

# create groups ###
#group ox type 2
#group hy type 1

mass 2 15.999
mass 1 1.008

pair_style      deepmd ../graph.pb
pair_coeff      * *

bond_style      none
angle_style     none
dihedral_style  none
improper_style  none
neigh_modify exclude none


neighbor        2.0 bin
neigh_modify    every 10 delay 0 check no

thermo          ${out_freq}
thermo          500
thermo_style 	custom step temp pe etotal epair emol press lx ly lz xy xz yz vol pxx pyy pzz pxy pxz pyz

restart 	${out_freq} restart.lmp.${pid} restart2.lmp.${pid}
restart 	500 restart.lmp.${pid} restart2.lmp.${pid}
restart 	500 restart.lmp.0 restart2.lmp.${pid}
restart 	500 restart.lmp.0 restart2.lmp.0


include         in.dump
dump            myDump all atom ${out_freq2} dump.water.${pid}
dump            myDump all atom 500 dump.water.${pid}
dump            myDump all atom 500 dump.water.0
dump            myDump2 all dcd ${out_freq2} dump.dcd
dump            myDump2 all dcd 500 dump.dcd
dump_modify     myDump append yes
dump_modify     myDump2 append yes


timer           timeout 03:55:00 every 1000
New timer settings: style=normal  mode=nosync  timeout=03:55:00

fix             2 all nph aniso ${pressure} ${pressure} ${pressureDamp}
fix             2 all nph aniso 7092.75 ${pressure} ${pressureDamp}
fix             2 all nph aniso 7092.75 7092.75 ${pressureDamp}
fix             2 all nph aniso 7092.75 7092.75 1
fix             3 all temp/csvr ${temperature} ${temperature} ${tempDamp} ${seed}
fix             3 all temp/csvr 250 ${temperature} ${tempDamp} ${seed}
fix             3 all temp/csvr 250 250 ${tempDamp} ${seed}
fix             3 all temp/csvr 250 250 0.1 ${seed}
fix             3 all temp/csvr 250 250 0.1 745823
velocity 	all create ${temperature} ${seed} dist gaussian
velocity 	all create 250 ${seed} dist gaussian
velocity 	all create 250 745823 dist gaussian

run             400000

CITE-CITE-CITE-CITE-CITE-CITE-CITE-CITE-CITE-CITE-CITE-CITE-CITE

Your simulation uses code contributions which should be cited:

- USER-DEEPMD package:

@article{Wang_ComputPhysCommun_2018_v228_p178,
  author = {Wang, Han and Zhang, Linfeng and Han, Jiequn and E, Weinan},
  doi = {10.1016/j.cpc.2018.03.016},
  url = {https://doi.org/10.1016/j.cpc.2018.03.016},
  year = 2018,
  month = {jul},
  publisher = {Elsevier {BV}},
  volume = 228,
  journal = {Comput. Phys. Commun.},
  title = {{DeePMD-kit: A deep learning package for many-body potential energy representation and molecular dynamics}},
  pages = {178--184}
}

CITE-CITE-CITE-CITE-CITE-CITE-CITE-CITE-CITE-CITE-CITE-CITE-CITE

Neighbor list info ...
  update every 10 steps, delay 0 steps, check no
  max neighbors/atom: 2000, page size: 100000
  master list distance cutoff = 8
  ghost atom cutoff = 8
  binsize = 4, bins = 7 7 6
  1 neighbor lists, perpetual/occasional/extra = 1 0 0
  (1) pair deepmd, perpetual
      attributes: full, newton on
      pair build: full/bin
      stencil: full/bin/3d
      bin: standard
Per MPI rank memory allocation (min/avg/max) = 9.089 | 9.089 | 9.089 Mbytes
Step Temp PotEng TotEng E_pair E_mol Press Lx Ly Lz Xy Xz Yz Volume Pxx Pyy Pzz Pxy Pxz Pyz 
       0          250   -333.91511   -271.90256   -333.91511            0    45159.046    24.724405    24.724405    22.792372            0            0            0     13932.89    45845.164    47177.194     42454.78   -806.97654    -396.0926   -352.81433 
     500    228.96635   -314.60568   -257.81053   -314.60568            0    1245.6486     24.93933    24.977226    22.985039            0            0            0    14317.732    3462.4758    2512.9055   -2238.4356   -1359.9512   -1761.5347    936.53243 
    1000    255.07196   -314.92365   -251.65299   -314.92365            0    5858.4267    24.857448    24.867205    22.896906            0            0            0    14153.385    5192.8475    3938.6243    8443.8085   -89.168897   -1077.6523    -1103.269 
    1500    250.06345   -314.01839    -251.9901   -314.01839            0    11761.645    24.935562    24.823878    22.886252            0            0            0    14166.529    10766.588    12661.232    11857.116    212.75937   -1514.5228    746.14478 
    2000     247.3107   -311.07517    -249.7297   -311.07517            0     2956.924    24.907196    24.925289    22.962384            0            0            0    14255.486    1745.4219    4527.7931    2597.5569    1327.2003   -2337.9506   -1981.1242 
    2500    262.79892   -313.68068   -248.49335   -313.68068            0    8948.2557    24.798501    24.860957    22.931256            0            0            0     14137.45    9154.4283    7255.9671    10434.372    793.78511   -942.83399    1014.1239 
    3000    251.77215   -311.97823   -249.52609   -311.97823            0    10902.277    24.885086    24.896333    22.989235            0            0            0    14242.921    9734.7123    13102.047    9870.0716   -35.843645    2618.4415    295.83714 
    3500    244.08458   -311.91014   -251.36491   -311.91014            0    7217.7499    24.893739    24.787729    22.885528            0            0            0    14121.727    7526.2418    5942.9329     8184.075   -51.669349    1544.2509   -1324.5571 
    4000    245.25204   -313.10119   -252.26637   -313.10119            0    7521.1703    24.968523    24.876627    22.950783            0            0            0    14255.481    6863.1146    6902.5712    8797.8252   -242.89377    261.32838   -877.51097 
    4500    253.63515   -314.50649   -251.59223   -314.50649            0    9175.6267    24.810234    24.855569    22.889762            0            0            0    14115.487    8979.5663    7032.8776    11514.436   -61.847868   -64.226436    1358.2492 
    5000    248.84275   -312.44035   -250.71485   -312.44035            0    2584.8515    24.824927    24.885972     22.98311            0            0            0    14198.791    4673.0663    1759.3389    1322.1492    2317.1143   -200.52752     832.1699 
    5500     251.5579   -314.11534   -251.71635   -314.11534            0    9208.2287    24.933406    24.723147    22.995677            0            0            0    14175.277    10274.243    9045.2655     8305.178   -1805.3495   -608.34031    351.09846 
    6000    256.04794   -314.67218   -251.15943   -314.67218            0    8644.5305    24.880867    24.734075     22.91862            0            0            0    14104.239    8260.6466     10266.34     7406.605   -33.631316    1486.1521   -493.96824 
    6500    250.42576   -314.79515   -252.67698   -314.79515            0     2263.386    24.852041    25.052769    22.988742            0            0            0    14313.077    5025.1124    947.76803    817.27763   -1253.6797    -1640.717    2371.8589 
    7000    253.53742   -312.05535   -249.16533   -312.05535            0    9647.7678    24.787963    24.861776    22.851356            0            0            0    14082.668    8401.3257    8113.4205    12428.557    545.49085   -2231.7211    605.86594 
    7500     249.6892   -312.37422   -250.43876   -312.37422            0    6662.1319    25.029458    24.848001    22.973457            0            0            0    14287.928    4665.1451    7809.5818    7511.6688   -1116.9976   -152.87833   -1534.3646 
    8000    251.36357   -313.42176   -251.07098   -313.42176            0    6541.5323    24.839077     24.78927    22.912671            0            0            0    14108.308    5081.8614    6985.2381    7557.4975    -867.9836   -1373.6145   -357.35038 
    8500    243.31972   -312.90813   -252.55262   -312.90813            0    8412.6345    24.828461    24.918107    22.993945            0            0            0    14225.853    9899.7678    6764.5055    8573.6303   -636.47638   -620.34022   -99.147508 
    9000      256.001   -312.50228   -249.00118   -312.50228            0    7827.8436    24.829577    24.856166    22.961572            0            0            0     14171.15    9639.2374    6607.8306    7236.4629   -807.50095    -357.7208   -772.40925 
    9500    250.56721   -312.24167   -250.08842   -312.24167            0     5658.462    24.903903    24.850238    22.977913            0            0            0    14220.293    6090.6896    7078.4139    3806.2824    594.58932    810.17567   -346.24544 
   10000    250.60588    -310.9796   -248.81676    -310.9796            0    6986.9619    24.900167    24.919955    22.888628            0            0            0    14202.646    9002.5354    4938.8269    7019.5235    933.42677    5.2292179    1231.6486 
   10500    256.89914   -309.57572   -245.85183   -309.57572            0    6258.4741    24.943604    24.928455    22.848837            0            0            0    14207.533    4249.0554    6477.9388    8048.4282    1434.8927   -803.42424    1636.1005 
   11000    254.94776    -312.4639   -249.22405    -312.4639            0    5144.0014    24.951115    24.842275    22.943292            0            0            0    14221.227    5788.0301    4522.5171    5121.4569   -330.47606     1798.163    -1476.801 
   11500    247.76259   -312.36684   -250.90927   -312.36684            0    7719.4013    24.773668    24.803875    23.026402            0            0            0    14149.332      6936.75    8941.2954    7280.1585    110.93921    334.13061     829.7022 
   12000    248.55647   -310.95681   -249.30232   -310.95681            0    5774.3657    24.773146    24.954096    23.031618            0            0            0     14237.95    5994.3866    5067.1409    6261.5697   -1027.3135    2501.1437    475.88449 
   12500    249.91724   -310.44207   -248.45004   -310.44207            0    7550.4226    24.905607    24.900767    22.821179            0            0            0    14152.982    6472.8873    6837.9924    9340.3879    820.36216    2915.5541    582.99085 
   13000    247.58413   -309.89843   -248.48513   -309.89843            0    9095.4538    24.990069    24.890753    22.865301            0            0            0    14222.712    9812.2436    9078.0013    8396.1165    1012.3768   -474.96093    766.58677 
   13500    253.66874    -313.7222   -250.79961    -313.7222            0    6385.6001    24.773813    24.851848    23.015695            0            0            0    14170.189    7570.6744    7180.9231    4405.2028   -1131.1053   -2172.2984    -3025.458 
   14000    254.05539   -315.76936   -252.75086   -315.76936            0    6962.3948    24.745392    24.824286     23.08367            0            0            0    14179.991    6838.1076    9129.5288    4919.5481   -832.13147    405.98106   -862.24763 
   14500     242.4565   -313.72863   -253.58724   -313.72863            0    7818.6944    24.948297    24.861924    22.857369            0            0            0    14177.572    5073.7348    9165.4224    9216.9261    2194.5515   -262.42831    486.28363 
   15000    254.28466   -313.06015   -249.98478   -313.06015            0    5322.8039    25.008778    24.918707    22.709797            0            0            0    14152.437    5785.5867    2921.9362    7260.8887    1533.5224    -1000.858   -1876.1316 
   15500    252.36135   -313.07885   -250.48056   -313.07885            0    7767.8772    24.832859    24.911022    22.936299            0            0            0    14188.667    8162.6107    6883.5467    8257.4742    1033.8151    603.91633    100.67902 
   16000    249.81452   -311.01899   -249.05244   -311.01899            0    9026.2709    24.676603    24.835251    23.077435            0            0            0    14142.998    8757.5591    12697.524    5623.7298    2081.7759    2887.7278    378.18529 
   16500      244.749   -310.71578   -250.00574   -310.71578            0     7171.573    24.886476    24.862261    22.988117            0            0            0    14223.531    6064.9789    8303.8715    7145.8686   -710.32899   -477.64197   -1492.1809 
   17000    249.35856   -312.16571   -250.31227   -312.16571            0    5797.7391     24.96404    24.843175    22.811258            0            0            0    14147.223     6421.647    3924.0836    7047.4867    2306.7358   -290.54447    1957.4928 
   17500    252.68779   -313.56164   -250.88237   -313.56164            0    7835.9971    24.899685     24.91317    22.896533            0            0            0    14203.408    6641.2876    7536.7523    9329.9515    169.85742   -791.69008   -1147.6409 
   18000    240.08308   -312.47748   -252.92482   -312.47748            0    7726.4045    24.799089    24.839852    23.000113            0            0            0      14168.2     5693.178    8734.3661    8751.6695   -566.74135    436.38446   -575.77866 
   18500    241.97382   -311.76314   -251.74148   -311.76314            0       7201.3    24.836086     24.83369    22.967301            0            0            0    14165.581    6977.5607    8508.3149    6118.0243    191.09806    439.84219    -216.2949 
   19000     246.9826   -312.22861   -250.96452   -312.22861            0    7515.4859    24.894819    24.925353    22.886438            0            0            0    14201.313    8617.5695    6467.7122    7461.1758   -450.20719    2558.7068   -1357.2891 
   19500    251.73618   -312.75068   -250.30746   -312.75068            0    7368.9054    24.874034     24.91396    22.823094            0            0            0    14143.715    4928.3607    6803.8462    10374.509   -843.88089    -2120.193   -55.707061 
   20000    244.09795   -313.42788   -252.87933   -313.42788            0     6702.265    24.907912    24.882397    22.982337            0            0            0     14243.73    6790.1611     7321.061    5995.5729   -448.19246   -926.95889   -1387.9103 
   20500    250.62394   -313.68121   -251.51389   -313.68121            0    8530.2643    24.773468    24.709693    23.027232            0            0            0        14096    5928.1226    9231.7028    10430.967    930.59199   -98.261057    1642.9038 
   21000    243.62549   -312.81753   -252.38617   -312.81753            0    7420.3853    24.869858     24.93542    23.042274            0            0            0    14289.444     7101.368    7549.6101    7610.1778   -473.19285   -2930.9671    708.29492 
   21500    244.50276   -314.27033   -253.62136   -314.27033            0    9302.1387     24.84963    24.930295    22.727473            0            0            0    14079.865     9063.477    8844.5736    9998.3656    1392.9311   -112.70479    114.80495 
   22000    247.55268   -312.43916   -251.03366   -312.43916            0    6476.0508    25.034623    24.951813    22.830987            0            0            0    14261.587    6480.0173    6101.7012    6846.4338    2156.4371    1065.7146   -791.69686 
   22500    255.26032   -313.14969   -249.83232   -313.14969            0    5042.8518      24.8785    24.772031    23.005417            0            0            0    14178.031    5883.3464    5906.5597    3338.6495   -950.00059   -1348.0688    -1846.475 
   23000    250.81714   -316.32429   -254.10904   -316.32429            0    7611.2246    24.818704    24.812053    23.024787            0            0            0    14178.733    5584.0676    10632.958    6616.6481   -54.870135    1501.7003    1871.2327 
   23500    240.92471   -310.45029   -250.68886   -310.45029            0    7307.4359    24.856723     24.97056    22.894672            0            0            0    14210.409    10716.156    4260.1006    6946.0509    488.21899    -1384.564    706.21482 
   24000     257.3424   -311.98863   -248.15479   -311.98863            0     8690.473    24.870465    24.898581    22.828126            0            0            0    14136.072    7591.6581    9251.6889     9228.072   -892.13139    3000.9435    457.72687 
   24500    253.07212   -313.47061   -250.69601   -313.47061            0    6018.3619    24.942824    24.871958    22.959551            0            0            0    14243.574    6435.1264    6619.1754    5000.7839    1402.8753   -221.23295    -2304.181 
   25000     261.4411   -312.38082    -247.5303   -312.38082            0    6481.4204    24.777955    24.835685    23.011435            0            0            0    14160.719    8489.8738    6587.8016    4366.5859    221.36715    321.70213   -330.58293 
   25500    256.88624     -312.799   -249.07831     -312.799            0    6828.7614     24.83365    24.982365    23.041783            0            0            0    14295.199    5226.2375    7571.8757    7688.1711    341.69105    378.07501   -2135.9866 
   26000    262.46005   -311.18403   -246.08076   -311.18403            0    8693.7122    24.963848    24.783002     22.83392            0            0            0    14126.868    6030.9717    11520.667    8529.4984    898.68632   -1592.5306   -2427.0799 
   26500    251.07328   -313.46437   -251.18559   -313.46437            0    4900.9476    25.017084     24.84439    22.909757            0            0            0    14239.197    6825.0314     4877.238    3000.5735   -390.15112   -1891.8086    9.4928766 
   27000    249.93638   -311.96172   -249.96495   -311.96172            0    8707.5156    24.793014    24.884918    22.933682            0            0            0    14149.443     7709.406    10370.974     8042.167    710.34311   -110.74801    847.39832 
   27500    253.14776   -313.47843   -250.68508   -313.47843            0    7166.3854    24.790401    24.953794    22.993356            0            0            0    14224.025    11366.154    4601.6524    5531.3498    1343.7664   -1351.4689   -439.67208 
   28000    244.53431    -311.8685   -251.21171    -311.8685            0     8787.915    24.896804    24.843211     22.88706            0            0            0    14156.025     5944.455    10752.017    9667.2727   -445.88958    1540.9439     -1586.51 
   28500    243.73599   -310.86915   -250.41038   -310.86915            0    8065.7138    25.011026    24.830965     22.90212            0            0            0    14223.314    10196.399    6572.9462    7427.7959   -857.71018   -1262.4654   -1935.6493 
   29000    252.95065   -313.68439   -250.93992   -313.68439            0    7184.9297    24.870464    24.939843    22.910041            0            0            0    14210.307    6191.1502    5107.1815    10256.457    797.31999    947.10105    986.83482 
   29500    253.04216    -311.4148   -248.64764    -311.4148            0    7358.2591    24.726279    24.893335    23.037836            0            0            0    14180.238    9016.0361    5042.4528    8016.2884   -903.65196    -2385.811   -165.75506 
   30000     257.0581   -310.22624   -246.46293   -310.22624            0    7005.5962    24.896727        24.82    23.110771            0            0            0    14280.995    5247.0058    8909.1508    6860.6319    108.56896    559.39971   -70.521859 
   30500    256.68712   -311.82854   -248.15724   -311.82854            0    8660.1408    24.956518    24.790283    22.844136            0            0            0    14133.191    7130.2338     9029.571    9820.6177    560.54201    53.672451    1684.8593 
   31000    255.96005   -310.64116   -247.15021   -310.64116            0    5545.5222      24.9649    25.033855    22.808321            0            0            0    14254.464    5208.8793    4622.7293    6804.9581    2081.3648   -3237.0868    -790.0019 
   31500    255.73433   -311.58933   -248.15438   -311.58933            0    7843.6886    24.812262    24.917814    22.926659            0            0            0    14174.804    11058.276     6761.061    5711.7282    92.186983     2488.804    1246.0436 
   32000    249.48329   -312.39454   -250.51015   -312.39454            0    7441.7255    24.912337    24.728083    23.056924            0            0            0    14203.857    4929.7028    9748.7192    7646.7545   -1025.4787    -888.6423    1663.8755 
   32500    258.18549   -312.66874   -248.62577   -312.66874            0    7023.5843    24.937318    24.829328    22.968044            0            0            0    14221.281    5581.8973    7610.3817     7878.474    477.11815    552.38858   -1112.0982 
   33000    255.88654   -312.39197   -248.91926   -312.39197            0     6580.729     24.81155    24.975153    22.829997            0            0            0    14147.116    7962.8787    5006.0678    6773.2406    1454.5462    520.52321    1387.0152 
   33500    240.41218   -311.75521   -252.12091   -311.75521            0    6266.7784    24.931462    24.962839    22.856798            0            0            0    14225.158    6443.9739    6626.4715    5729.8897    840.35869   -1064.8221     494.8996 
   34000    251.65999   -315.14494   -252.72062   -315.14494            0    8889.6721    24.899762    24.718316    22.938914            0            0            0    14118.447    9636.1752    8841.4904    8191.3507   -1584.1905   -379.04697      253.813 
   34500    242.59425   -313.85842   -253.68286   -313.85842            0    5771.4272    24.805113    24.804232     23.06253            0            0            0    14189.723    2792.8326    7493.5198    7027.9292   -86.452114   -3215.6385    731.00716 
   35000    244.93697   -314.60141   -253.84474   -314.60141            0    7660.0494    24.777881    24.937682    22.902036            0            0            0    14151.235    10035.262    8332.2672    4612.6189    380.89285   -639.56232   -1113.5423 
   35500    252.43941    -313.8614   -251.24375    -313.8614            0    5013.2857    24.946307     24.93821    22.776291            0            0            0    14169.501    2185.2365    9041.8821    3812.7385    -1093.809   -964.53574   -865.42319 
   36000    249.53676   -314.14657   -252.24892   -314.14657            0    5898.6494    24.966506    24.816182    22.932154            0            0            0    14208.151    7107.7832     4876.509    5711.6559   -197.25952   -618.13454    2917.1797 
   36500     248.4629   -313.75413   -252.12285   -313.75413            0    7686.8817    24.787447    24.723553    23.045757            0            0            0    14123.218    8066.1168    8970.2164     6024.312    623.51197   -139.75041    1605.7989 
   37000    243.94404   -312.44112   -251.93075   -312.44112            0    5493.4216    24.787905    24.954055     23.02392            0            0            0    14241.647    7376.8079    2253.5889     6849.868    302.42449   -1530.8305   -810.12229 
   37500    253.62983   -315.21972   -252.30679   -315.21972            0    5915.9115    24.861446    24.947461    22.799091            0            0            0    14140.679    3727.2462    5795.0456    8225.4429    2032.5107    895.38313    1667.0604 
   38000    249.93448   -311.54176   -249.54546   -311.54176            0    6120.5779    25.074526    24.839493    22.853331            0            0            0    14233.935    3608.8673    7608.6521    7144.2143     684.5853   -516.98007    1465.3945 
   38500    257.68102   -313.39969   -249.48185   -313.39969            0    5264.8768    24.872339    24.784473    23.037299            0            0            0    14201.293    6660.6455    6819.1071    2314.8776   -523.04254    3159.0983    -909.4028 
   39000    250.40806   -313.86948   -251.75571   -313.86948            0    7835.9708    24.661582     24.84604    23.069659            0            0            0    14135.764    11569.648     6692.356    5245.9087    1429.5707    1184.2715    183.72262 
   39500    262.22014   -313.73227   -248.68851   -313.73227            0    8707.7874    24.891069    24.943633    22.984925            0            0            0    14270.735    7362.1414    9587.5279    9173.6929    886.82859   -60.918327    506.96371 
   40000    246.95621   -312.70289   -251.44535   -312.70289            0    7340.6707    24.887683    24.817008    22.830132            0            0            0    14100.753    7713.7167    5405.8351    8902.4602    2265.4988    1577.9512   -335.15053 
   40500      249.357   -314.15816    -252.3051   -314.15816            0    10049.382    24.892699    24.917099    22.951201            0            0            0     14235.57     8496.305    10057.267    11594.574   -2308.3607   -2729.4707    2956.4121 
   41000    242.42033   -312.95099   -252.81857   -312.95099            0    8186.0276    24.803492    24.848201    22.935597            0            0            0    14135.717    11263.312    8011.9609    5282.8104   -115.71076     -688.448    3237.9127 
   41500    254.57655   -313.88186   -250.73409   -313.88186            0    7841.4481    24.868147    24.851104    22.922742            0            0            0    14166.275    7527.5301    8640.8044    7356.0098   -2132.8335   -816.19887   -1063.0798 
   42000    243.58679   -310.91035   -250.48859   -310.91035            0    6579.6731      24.9202    24.864169    22.934592            0            0            0    14210.734    3303.9539    7866.2069    8568.8584    175.96269   -459.47959    487.76753 
   42500    252.63359   -312.80507   -250.13926   -312.80507            0    8341.5251     24.84911    24.853015    22.897728            0            0            0    14141.071    6291.6654    9506.6508    9226.2592   -670.52814   -1909.0516   -1007.9604 
   43000    249.08885   -311.46001   -249.67347   -311.46001            0    6710.2506    24.891921    24.950743     22.95709            0            0            0    14258.005    7779.0651    8628.5915    3723.0954    952.95108   -2808.2901      437.481 
   43500    252.07961   -311.54209   -249.01368   -311.54209            0    8531.4173    24.863055    24.770669    22.907454            0            0            0    14108.117    7368.9534    9028.4401    9196.8584   -189.07604     -47.3037   -489.77766 
   44000    244.67766   -313.28833   -252.59598   -313.28833            0    6594.9843    24.992342    24.850317    22.998226            0            0            0    14283.454    7341.4714    7126.0089    5317.4727   -424.40424    1798.4709   -493.43731 
   44500    252.82875     -313.466   -250.75177     -313.466            0    6546.0205    24.763568    24.882895    22.891216            0            0            0    14105.322    6563.8118    4193.6149    8880.6349    226.84363    -1453.232    1463.5118 
   45000    251.91217   -315.37305   -252.88618   -315.37305            0    7782.7134    24.871088    24.963522    22.949567            0            0            0    14248.696    9381.6701    5199.9385    8766.5316   -115.72644   -1715.0813   -558.21721 
   45500    247.33254   -314.06345   -252.71256   -314.06345            0    8848.2631    24.943381    24.745253    22.913028            0            0            0    14142.615    6607.8128    9264.7652    10672.211     1726.779    479.78311    603.33684 
   46000    251.85454   -314.08131   -251.60873   -314.08131            0    6638.1741    24.895467    24.772284    22.938389            0            0            0    14146.508    6188.5619    8474.7665    5251.1939   -1187.7544    328.77175    1440.2295 
   46500    249.29059   -312.10007   -250.26349   -312.10007            0    9300.2048    24.796164    24.980858     23.01009            0            0            0    14253.127    11451.407    5883.5094    10565.698    362.02434    584.18748    611.79312 
   47000    255.91727   -314.14596   -250.66563   -314.14596            0    7649.1745    24.770968    24.902266    22.910967            0            0            0    14132.704    6693.5226    7044.9641    9209.0367    871.76882    383.77982    1351.1198 
   47500    248.49563   -310.34556   -248.70617   -310.34556            0    5078.2389    25.009499    24.870606    22.912845            0            0            0    14251.822    5569.2567    4882.0718    4783.3881     845.0467   -515.27901    2263.3514 
   48000    249.62566   -312.61512   -250.69542   -312.61512            0    7942.8918    24.882869     24.84224    22.847055            0            0            0    14122.821    8250.2331    8806.1759    6772.2663    892.50944    423.87046   -1405.9475 
   48500    251.28846   -313.17923   -250.84707   -313.17923            0    4615.5623    24.831864     24.96474    22.993617            0            0            0    14254.227    7634.3221    2348.5562    3863.8086    1263.2455    2602.3084   -550.84944 
   49000    256.37005   -312.27669   -248.68404   -312.27669            0      7841.17    24.793935    24.818283    22.947932            0            0            0    14120.847    5951.9229    9346.5035    8225.0835    1030.7791    799.33669    186.43694 
   49500    256.39811   -309.04453   -245.44492   -309.04453            0    6529.5303    24.994395    24.858946    22.987456            0            0            0    14282.895    6394.5346     5652.575    7541.4812    391.08182   -336.91152    2225.2899 
   50000    249.50763   -309.85707   -247.96665   -309.85707            0    8266.9407    24.837055    24.915162    22.831616            0            0            0    14128.644    7709.9938    8161.0486    8929.7798    1675.8122   -352.84161   -1580.7703 
   50500    254.21507   -313.80033   -250.74222   -313.80033            0    7566.3407    24.817957    24.944967    22.909192            0            0            0    14182.694    7522.4012     7901.393    7275.2279   -474.38279   -314.72559    5016.7176 
   51000    255.43311   -311.70496   -248.34472   -311.70496            0    6981.2279     24.86481    24.761265    23.029879            0            0            0    14179.131    6856.6052    8192.5792    5894.4993    302.18315   -173.14407   -1209.4746 
   51500    256.56855   -314.13532   -250.49343   -314.13532            0    6626.6127    24.846258    24.776749    23.027339            0            0            0    14175.848    4956.9841    8109.5035    6813.3504     189.2889    2094.3621    376.88757 
   52000    254.63445   -315.27882   -252.11669   -315.27882            0    6402.0284    24.792168    25.013399     22.81889            0            0            0    14150.824    9403.3595    2362.3396    7440.3861   -385.05472   -1384.7611    816.13019 
   52500    253.58635   -312.06128   -249.15913   -312.06128            0    6906.1403    24.952719    25.019408    22.674155            0            0            0    14155.526    7808.8942    4235.0607     8674.466    1451.5509   -1207.1779   -102.83121 
   53000    249.14829   -313.41701   -251.61572   -313.41701            0    9201.5313    25.010419    24.764832    22.931019            0            0            0    14202.987    10442.468    7266.8347    9895.2913     1124.157   -628.26864   -210.17723 
   53500    256.16976   -314.28849   -250.74552   -314.28849            0    9018.6744    24.742752    24.662158    23.167927            0            0            0    14137.293    6184.1444    11570.802    9301.0763    415.71846    2520.5799    1832.7561 
   54000     255.3453   -312.50319   -249.16474   -312.50319            0    6043.3431    24.734755     24.93023    23.058137            0            0            0    14218.641    8398.1082    4492.4248    5239.4964     -822.687    2055.6332   -1831.1209 
   54500    242.63219   -313.35868   -253.17372   -313.35868            0    6204.3246    24.891956    24.915198    22.761846            0            0            0    14116.624    7332.3242    3998.4998    7282.1499   -238.88387    144.48783    2931.9508 
   55000    250.55499   -312.76995   -250.61973   -312.76995            0     8252.967    24.991557    24.846505    22.820208            0            0            0    14170.273    4953.3871    10164.166    9641.3477    25.821661    26.633653   -150.85343 
   55500    246.41013   -313.21485   -252.09276   -313.21485            0    5729.5069    24.867525    24.811258    22.977298            0            0            0    14176.868    3799.7991    6744.7715    6643.9501   -15.980672    1173.4512    2495.6211 
   56000    252.55678   -311.55729   -248.91053   -311.55729            0    5341.2958    24.724265    24.871768    23.018788            0            0            0    14155.085    5172.7062    6281.9458    4569.2355    1649.7322    108.44947    668.21378 
   56500    249.91191   -312.69234   -250.70163   -312.69234            0    6005.7758    24.906052    24.900009     22.90321            0            0            0    14203.676    6201.7871    6758.6874    5056.8528   -1.2408194   -821.81817   -820.43103 
   57000    249.76901   -313.17117   -251.21591   -313.17117            0    6006.9004    24.982874     24.83331    22.774589            0            0            0    14129.525     6409.887     3365.089    8245.7252     1775.003    2259.9395    814.40551 
   57500    248.93736   -312.57972   -250.83075   -312.57972            0      7043.83     24.84899    24.886867    22.909423            0            0            0    14167.497    7226.1852     5970.285    7935.0197    414.05201    963.62139    2176.8202 
   58000    252.18041   -314.27855   -251.72515   -314.27855            0    8394.7565    24.776845    24.891066     22.98226            0            0            0    14173.667    9399.8132    6924.6714    8859.7847    766.14177   -631.84716   -1444.3627 
   58500    253.87236   -312.68466   -249.71157   -312.68466            0    5841.5116    24.911723    24.815732    22.895223            0            0            0    14153.887    5934.2493    6161.9215    5428.3639     504.1543    982.65506   -2972.6448 
   59000     250.2627   -312.82339   -250.74567   -312.82339            0    6922.8496    25.063465    24.822615    22.862062            0            0            0     14223.42    6425.7708    7513.6079    6829.1701   -878.22896   -689.72575   -265.08071 
   59500    252.78969   -312.69747   -249.99293   -312.69747            0    7066.5262    24.764512    24.882659    22.911119            0            0            0     14117.99    8261.2996    4483.6581    8454.6209   -2118.2412   -1482.2146   -1884.8534 
   60000    247.85935   -313.49493   -252.01337   -313.49493            0    4241.9695    24.759445    24.916214    23.081446            0            0            0    14239.212    4341.1054    4479.6161    3905.1872    403.32155     1134.441    -2554.027 
   60500    256.27019   -314.71933   -251.15146   -314.71933            0    8228.3521     24.90774     24.71991    22.946447            0            0            0     14128.52    7223.5005    8055.9613    9405.5945    752.62284   -1035.6401   -549.40692 
   61000    249.03848   -313.31971   -251.54566   -313.31971            0    5016.0951    25.004191    24.879582     22.82142            0            0            0    14197.064    5156.9973    6313.4136    3577.8745   -910.80848   -2077.6905    1392.2502 
   61500    257.17788    -312.7953   -249.00227    -312.7953            0    7031.4181    24.835568    25.004155    22.824571            0            0            0    14173.884    9706.6196    5735.8018    5651.8328    58.827272   -309.17173   -2375.0349 
   62000    255.99516   -312.82485    -249.3252   -312.82485            0    8710.6325    24.790199    24.859367    22.951379            0            0            0    14144.216    10360.644    7601.4258    8169.8281    232.39638     1682.108   -1081.0598 
   62500     255.2462   -314.77468   -251.46081   -314.77468            0    5719.5622    24.891846    24.753646    23.059925            0            0            0    14208.694    5372.3973    6900.2914     4885.998    1897.6738   -940.02431    -753.0411 
   63000    257.23561   -311.02824   -247.22089   -311.02824            0    6136.7248    24.865222    24.841825    22.904671            0            0            0    14148.158    4744.3386    6042.0908    7623.7451   -669.55124    2266.5446    720.01597 
   63500    251.61495   -314.45223   -252.03909   -314.45223            0    4809.8275    24.898618    25.013083    22.827586            0            0            0     14216.82    6171.3552    3212.1902     5045.937    1722.5619   -236.52642   -1642.0567 
   64000    259.02249   -312.66354   -248.41295   -312.66354            0    8599.8063    24.844062     24.84493    22.864003            0            0            0    14112.783    8831.0309    5906.1751    11062.213   -1584.8932    577.07365    831.23756 
   64500    250.90557   -314.03373   -251.79654   -314.03373            0    6210.7475    24.932254    24.785774    23.145348            0            0            0    14303.019     6256.756    6070.9504    6304.5361   -449.84488   -286.65197   -478.72982 
   65000    246.10654   -314.05835   -253.01157   -314.05835            0    8756.2936     24.74447    24.723805    22.929614            0            0            0    14027.821    10910.041    7395.2038    7963.6359    930.30093    2268.4352    460.53711 
   65500    250.88843    -314.8734   -252.64047    -314.8734            0    5725.5044    24.929084    25.017418    22.864433            0            0            0    14259.663    6458.4916      4707.15    6010.8714    1382.8113   -385.52148    1175.1871 
   66000    255.43008    -310.6999   -247.34041    -310.6999            0    9436.8767    24.937742    24.837558    22.796719            0            0            0    14120.119    10151.354    9407.6219    8751.6537   -776.32284    -1094.364    2242.8635 
   66500    254.66839   -312.40015   -249.22961   -312.40015            0    6527.1417    24.903353    24.817174    22.973478            0            0            0    14198.318    6530.5764    7548.7627    5502.0861    600.23823    1587.7626    699.78285 
   67000    255.42733   -315.32323   -251.96442   -315.32323            0    7024.1476    24.795696     24.83951    23.045356            0            0            0    14193.933    5853.7315    7356.0971    7862.6143    562.95133   -1407.4165   -1392.0711 
   67500    252.70853    -314.5971   -251.91269    -314.5971            0    6638.5311    24.754176    24.852302    22.977952            0            0            0    14135.996     5863.491    6451.3389    7600.7635    81.986038   -756.22161   -1401.5906 
   68000    245.04475   -313.12051    -252.3371   -313.12051            0    8231.0881     24.88904    24.912412    22.899528            0            0            0    14198.761    7653.4527     6786.547    10253.265   -774.56704    -1138.131    463.72415 
   68500    250.48879   -312.32588   -250.19208   -312.32588            0     8262.958    24.887488    24.855749     22.82142            0            0            0    14117.266    7332.7451    8930.4491    8525.6798   -586.92974   -1363.1646    509.06318 
   69000    247.07986   -314.73355   -253.44533   -314.73355            0    8701.1597    24.869017    24.901457     22.94926            0            0            0    14211.898    9543.7401    8930.7679     7628.971    733.19687   -1614.8962   -1854.7368 
   69500    251.81107    -315.2445   -252.78271    -315.2445            0    9805.1763    24.773557    24.803591     22.96864            0            0            0    14113.613    9913.3671     9971.421    9530.7407    -2341.066   -1566.4826    273.21709 
   70000    248.80885   -313.90367   -252.18658   -313.90367            0    6831.5433    24.840578    24.894488    22.958332            0            0            0    14197.282    8072.3796    5228.6593     7193.591    2330.9851    691.44082    12.896269 
   70500    251.47583   -314.56152   -252.18289   -314.56152            0    3706.5827    24.835121    24.876711     22.88001            0            0            0     14135.64    3686.0951    4766.9289    2666.7242    1975.5077   -402.18576   -1378.0825 
   71000    244.01549   -313.88603   -253.35793   -313.88603            0    5574.5191    24.866955       24.836     22.99422            0            0            0    14201.131     10235.42     3760.855    2727.2819   -301.90637    538.72254    296.65177 
   71500    250.24878    -313.2985   -251.22424    -313.2985            0    6264.4112    24.845425    24.751599    22.997981            0            0            0     14142.93    3181.0686    9580.1442    6032.0208   -947.28492   -47.224503   -2289.5287 
   72000    252.88913   -310.30163   -247.57243   -310.30163            0    7670.3498    24.870978    24.891883    22.937071            0            0            0    14200.008    10431.263    6235.0197    6344.7664    -1552.603    208.48173   -2013.7847 
   72500    243.86973   -311.59759   -251.10564   -311.59759            0    6659.4167    24.939769    24.951407    22.852973            0            0            0    14221.001    4699.6837    7294.4798    7984.0865   -788.67634   -492.85788   -407.27328 
   73000     249.1503   -313.72175   -251.91996   -313.72175            0     7686.542     24.82914     24.80642    22.880144            0            0            0    14092.386    10272.645    5879.7426    6907.2385     690.1735    2385.4811    314.07559 
   73500    253.76174   -312.46569   -249.52004   -312.46569            0    2529.7069    24.817467    24.953512    23.034483            0            0            0    14264.863    3255.9744    3742.1716    590.97468    234.46673   -834.48742    -715.1899 
   74000    253.46309   -313.10002   -250.22844   -313.10002            0    10028.519    24.790979    24.867049    22.869944            0            0            0    14098.828     8432.275    10437.137    11216.145   -2364.4277    3232.4598   -629.48651 
   74500     242.1267   -310.84616   -250.78658   -310.84616            0    7055.1708    25.003606    24.837947    22.897913            0            0            0     14220.48     6240.641    8156.9594    6767.9119   -634.37163    964.60373    1845.3669 
   75000    251.03513   -311.54663   -249.27731   -311.54663            0    7288.9598    24.874598    24.820854    22.930382            0            0            0    14157.419    8390.8662    6400.9479    7075.0654    902.69729   -2002.5103   -276.04891 
   75500    250.81285   -312.90301   -250.68883   -312.90301            0    9480.6985    24.734809    24.956667    23.039737            0            0            0    14222.392    9091.4809    8627.4928    10723.122     495.1568    517.59962    1083.2134 
   76000    252.59118   -313.59168   -250.93638   -313.59168            0    7006.5325    24.805694    24.791417    23.003859            0            0            0    14146.644    7200.9892    6646.5421    7172.0663    673.46539     327.2155     416.8067 
   76500    237.16954   -315.26417   -256.43421   -315.26417            0    5594.4765    24.978164    24.797937    22.927857            0            0            0    14201.673    3053.6727    6538.8665    7190.8903   -1149.3605   -627.61864   -233.16382 
   77000    240.31168    -314.9038   -255.29443    -314.9038            0    8920.5769    24.884453    24.868863    22.767446            0            0            0     14089.59    7161.0186    9671.8058    9928.9064   -32.739324   -897.55593   -911.15629 
   77500    245.68076   -313.51759   -252.57643   -313.51759            0    4139.4813    24.865014    25.023517    22.905456            0            0            0    14252.006     3182.193    4160.7014    5075.5495    457.13195   -1132.8919   -362.23485 
   78000    257.04129   -310.95088   -247.19173   -310.95088            0    8899.5834    24.822398    24.793899     22.94853            0            0            0    14123.536     12184.58     4276.437    10237.733   -286.18813   -1281.6799    330.41543 
   78500    251.18174   -314.77239    -252.4667   -314.77239            0    5229.9473    24.956587    24.780825    23.069367            0            0            0    14267.131    2647.7659    7593.1554    5448.9206   -67.377877   -580.34577    47.513169 
   79000    247.67353   -313.81592   -252.38045   -313.81592            0    6888.1749    24.818183    24.848211    22.880678            0            0            0    14110.227    8154.7038    7065.2941    5444.5269    932.98796   -203.29708   -635.75756 
   79500    246.19586   -311.75224    -250.6833   -311.75224            0    5598.0548    24.850179    25.062027    22.822288            0            0            0    14213.626    5767.4086    3844.0785    7182.6772   -697.73537   -227.64623   -2585.3469 
   80000    252.12174   -312.36304   -249.82419   -312.36304            0    7386.6125    24.904175    24.822718     22.90285            0            0            0    14158.297    4686.2096    9771.3457    7702.2821    656.92845    895.63056   -892.03971 
   80500    251.22569   -313.99993   -251.68334   -313.99993            0    8338.7895     24.88862    24.688751    23.086211            0            0            0     14185.76    7533.0971    9046.7524    8436.5191   -820.36275   -1426.5173    218.44377 
   81000    252.10028   -313.20939   -250.67586   -313.20939            0    6634.2051    24.813022    24.881484    23.027196            0            0            0    14216.641    6756.2741    5504.5377    7641.8034   -1372.7379   -1902.1757   -545.17196 
   81500    246.49264   -313.23389   -252.09133   -313.23389            0     7761.261    24.794017    24.938008    22.818388            0            0            0    14108.915    9434.2333    4654.4141    9195.1356    328.25303   -1068.6395    351.79518 
   82000    249.99702    -313.0892   -251.07738    -313.0892            0     4843.273    24.973315    24.913424    22.868329            0            0            0    14228.006    3271.5636    3242.8549    8015.4006   -53.275131   -660.59916   -975.65357 
   82500    250.64099   -309.63845    -247.4669   -309.63845            0    8203.4529    24.861876    24.800073     22.92222            0            0            0    14133.299    8154.2061    9123.3426      7332.81   -819.89214    1963.7551     867.0733 
   83000    250.10013   -312.34228   -250.30489   -312.34228            0     6425.895    24.842582    24.884345     23.04387            0            0            0    14245.522    6649.4718    7532.5881     5095.625   -921.73805    556.96615   -35.921675 
   83500    246.18042   -311.83002   -250.76491   -311.83002            0    7253.9265    24.793044    24.860594    22.922602            0            0            0      14128.8    10631.306    3669.3801    7461.0933    76.657985      1085.03    195.47733 
   84000     249.8193    -309.9639   -247.99616    -309.9639            0    6154.4291    24.942586    24.894947    22.910371            0            0            0    14226.065    5363.6661    5584.3828    7515.2384   -6.9423862    -612.5161   -594.09977 
   84500    253.39273   -313.31147   -250.45735   -313.31147            0     9637.363    24.858828    24.823378    22.915285            0            0            0    14140.566    8580.4342    9274.7229    11056.932   -705.02013   -771.75256   -83.110159 
   85000    246.76238   -313.05659   -251.84712   -313.05659            0    6740.9433    24.804839      24.8947    23.011407            0            0            0    14209.751    10167.032    6222.6652    3833.1326   -9.4209701    873.19183    267.72126 
   85500    254.67709   -311.70884   -248.53613   -311.70884            0    10581.064    24.825603    24.832016    22.954976            0            0            0    14151.049    9805.1812    12086.403    9851.6082   -2196.8971   -700.94101   -842.65995 
   86000    253.45149   -313.22349   -250.35479   -313.22349            0      7742.39    24.941269    24.865185    22.919382            0            0            0    14213.897    10332.307    8807.9898    4086.8728   -658.86841    15.631042     75.72154 
   86500    244.31564   -313.13216   -252.52961   -313.13216            0    7082.7029    24.916373    24.834383     22.85996            0            0            0    14145.349    5524.5077     8787.904    6935.6971   -35.250831   -1411.4093    1895.6087 
   87000    250.63401   -313.98841   -251.81859   -313.98841            0    6629.4671    24.836486     24.89399    22.960183            0            0            0    14195.804    5783.0573    9549.4298    4555.9141    445.85011    906.57544    842.42689 
   87500    247.31079   -312.31823   -250.97274   -312.31823            0    4811.9735    24.774936    24.858587    23.008531            0            0            0    14170.262       6129.1    5394.4051    2912.4155   -321.15618    417.36549    3425.9735 
   88000    251.40547   -311.37975   -249.01857   -311.37975            0    5076.3152    24.875461    24.816328    22.987176            0            0            0    14190.388    5027.9295    7907.6219    2293.3943    804.46613   -627.28631     277.9533 
   88500    245.85791   -312.27274   -251.28763   -312.27274            0    7428.0439    24.970895    24.853851    22.886969            0            0            0    14204.177    4586.4616    10270.628    7427.0424   -386.52149   -300.57688    2366.0608 
   89000    244.28999    -315.1691   -254.57291    -315.1691            0    8792.1788    24.814471    24.943174    22.777169            0            0            0    14097.967    10623.736    7856.3352    7896.4652    1210.0289    314.04914   -1824.1622 
   89500    240.32703   -313.97096   -254.35779   -313.97096            0    6484.8133    24.846499    24.952141    22.949371            0            0            0    14227.998    6990.1995    7550.8641    4913.3765   -253.57602    1526.7126    205.06428 
   90000    239.75698   -314.01801   -254.54624   -314.01801            0    8920.9886    24.833173    24.634271    22.957877            0            0            0    14044.415    8865.8108    9983.7841    7913.3708    937.47146   -295.04826    945.90464 
   90500    243.37425   -311.47177   -251.10273   -311.47177            0    3186.3865    24.981432     24.80424     23.07196            0            0            0    14296.435    3841.3977    1449.9683    4267.7934   -984.36759    391.05914    1388.6444 
   91000     256.7515   -314.51437    -250.8271   -314.51437            0    8322.7051    24.743853    24.901305    22.897505            0            0            0    14108.394    8419.1972    9294.9531    7253.9648    222.91128    842.21463    2051.6897 
   91500    244.67496   -314.06705   -253.37537   -314.06705            0    5842.5004    24.826441    24.995327    22.875895            0            0            0    14195.523    7612.6794    2911.0632    7003.7586   -1805.8337    95.173348    755.64873 
   92000    249.79515   -312.86907   -250.90733   -312.86907            0    7745.2389    24.986515    24.767223    22.844937            0            0            0    14137.511      7620.88    7743.3573    7871.4794   -2769.6046    -1426.249    1046.3534 
   92500    250.99917   -313.53802   -251.27763   -313.53802            0    6514.4165    24.964454    24.827829    22.982786            0            0            0    14245.034    7020.8966    6421.0979    6101.2549    993.02839    3963.4331    772.44909 
   93000     248.6785   -311.74734   -250.06259   -311.74734            0    5799.3544     24.70869    24.894425    23.005822            0            0            0     14151.08    4949.2556     6626.219    5822.5887   -1877.4016   -474.43935     475.1286 
   93500    248.69982   -314.31907   -252.62902   -314.31907            0    6581.6235    24.847311    24.927002    22.974228            0            0            0    14229.524    6537.7772    6942.1622     6264.931    1371.8794   -34.714217   -900.04447 
   94000    249.86677   -313.84351     -251.864   -313.84351            0    4676.6728    24.892394    24.806411    22.845901            0            0            0    14107.138    4377.9859    3270.9125    6381.1199   -648.97959   -980.60857    875.51538 
   94500     244.9864   -312.96777   -252.19884   -312.96777            0    5515.9838    25.025233     24.85875    22.886352            0            0            0    14237.508    5192.5504    4620.3257    6735.0754    1026.3976   -1645.2734    921.25439 
   95000    250.26774   -314.61711   -252.53815   -314.61711            0    10994.697    24.762316    24.875209    22.895993            0            0            0    14103.194    12632.841    9020.5236    11330.726    1674.1037   -1531.6985    1181.2152 
   95500    250.14896   -313.10432   -251.05482   -313.10432            0    4963.4936    24.835518    24.904898    23.003759            0            0            0    14228.424    3115.3821    5044.7904    6730.3082    -1369.537    752.48835   -77.479557 
   96000    251.90734   -313.69852   -251.21285   -313.69852            0    8319.1986    24.905494    24.809231    22.926965            0            0            0    14166.255    11630.597    7603.7404    5723.2583   -762.10783    1140.2674   -227.43252 
   96500    247.45813   -313.11657   -251.73452   -313.11657            0    9149.9898    24.902154    24.859754    22.918217            0            0            0    14187.784     8963.629    9761.6994    8724.6409         1369    585.07336   -1653.9031 
   97000    246.55257   -312.10903   -250.95161   -312.10903            0    8794.8427    24.815399    24.923883    22.900946            0            0            0    14164.146    10450.624    5900.5455    10033.359    7.3861455    44.342809    670.24509 
   97500    248.71002    -313.1706   -251.47802    -313.1706            0    9159.4761    24.865997    24.910505    22.897829            0            0            0    14183.477    9498.6073    7893.9131    10085.908    1001.0205    1172.6975   -1002.4492 
   98000    250.08305   -314.26021   -252.22706   -314.26021            0    8046.5739    24.897206    24.828543    22.968074            0            0            0    14197.976    9287.4306    8318.7091    6533.5821   -314.70811    1265.5481   -1781.2365 
   98500     248.2462   -314.64956   -253.07204   -314.64956            0    8610.3848    24.804474    24.795537    22.976206            0            0            0    14131.292     8828.082     10957.79    6045.2828     1341.538    663.64026   -164.19515 
   99000    250.90344    -313.2864   -251.04974    -313.2864            0    5920.9239    24.890631     24.91839    22.933838            0            0            0    14224.357    5377.0734    7323.7179    5061.9805    230.97348   -706.80923   -1400.5828 
   99500    258.87946   -312.17637   -247.96126   -312.17637            0    9005.8198    24.892564    24.910557    22.749523            0            0            0    14106.698    6157.1473    11205.973    9654.3386   -2002.9145    996.38323    342.74102 
  100000    251.19897   -313.23494   -250.92498   -313.23494            0    5347.1728    25.056398    24.899519    22.871162            0            0            0    14269.141    4235.5667    5825.6528     5980.299   -1207.2951   -335.69059    605.43348 
  100500    250.09172   -312.40181    -250.3665   -312.40181            0    9138.9202    24.839054    24.651363    23.024915            0            0            0    14098.536    7306.3252    10891.487    9218.9485    255.32156     13.63325   -1325.1909 
  101000    256.91235   -315.18071   -251.45355   -315.18071            0    7403.8638    24.785978    24.864477    23.140558            0            0            0    14261.304    7836.9761    6555.0842    7819.5312    188.61833    2599.1042    489.82396 
  101500    254.48991   -313.36247   -250.23619   -313.36247            0    7950.3615    24.778711    24.924944    22.856213            0            0            0     14116.18    10128.184    7794.6476    5928.2531   -1853.0425   -1443.5097   -1780.6684 
  102000    253.05505   -312.48155   -249.71118   -312.48155            0    7203.0632    24.989637    24.885954    22.751934            0            0            0    14149.222    3759.3698    7675.1087    10174.711   -64.285166   -833.10443   -2905.2989 
  102500    242.15106   -312.60602    -252.5404   -312.60602            0    6711.7933    24.984827    24.786121     22.93537            0            0            0    14203.346    3743.3529     9095.813    7296.2141   -1049.9242   -724.46353    431.31844 
  103000    245.29498   -313.39865   -252.55317   -313.39865            0    8068.7762    24.721301    24.815818    23.001048            0            0            0    14110.667    8434.3965    8284.5505    7487.3815    414.81264    1721.2536   -377.29223 
  103500     246.3294   -313.72125   -252.61919   -313.72125            0    6640.2821    24.820979    24.964762    22.929485            0            0            0    14208.251    5358.3183    7725.7578    6836.7703   -958.02869    114.01254    2240.3132 
  104000    247.18821   -312.11149    -250.7964   -312.11149            0     7588.938    24.932177    24.889807    22.828215            0            0            0    14166.211    9405.9928    6643.9129    6716.9085    304.66191    389.80038   -954.11345 
  104500     244.5899   -313.18342   -252.51284   -313.18342            0    5005.2666    24.950315    24.806252    22.880037            0            0            0    14160.999    5186.2646    7109.3025    2720.2328   -127.02216    119.72312   -1573.5174 
  105000    255.48214   -313.12167   -249.74927   -313.12167            0    5465.5218     24.84327    24.884905    22.946493            0            0            0    14186.036     4361.464    5708.1944    6326.9071   -227.86357    1647.6841    222.13651 
  105500    260.10085   -312.59719   -248.07912   -312.59719            0    7173.9333    24.758466    24.878265    23.003632            0            0            0    14169.033    13266.841    6228.9288    2026.0295    308.65672    3.5046028     585.4047 
  106000    249.64832   -312.80288   -250.87756   -312.80288            0     8251.335    24.865544    24.858553    22.968153            0            0            0    14197.108    9512.5463    4734.6774    10506.781    585.32823    820.67327    -2242.451 
  106500    252.67655   -311.99654   -249.32007   -311.99654            0    9022.2255    24.933348    24.878299    22.813309            0            0            0    14151.079    8449.6434    7776.3052    10840.728    3117.1705   -441.47149    1014.5828 
  107000    251.04275   -313.65496   -251.38375   -313.65496            0    6563.2684    24.846912    24.983584    22.857618            0            0            0    14189.207     6114.448    5230.0887    8345.2685   -376.94872    2225.6637   -614.46283 
  107500    252.68183   -311.32053   -248.64275   -311.32053            0    7186.4498    24.750771     24.85079    23.002352            0            0            0    14148.199    6020.8826    7963.0602    7575.4067    1005.0847    -1045.378    -971.7627 
  108000    249.60833   -311.61026   -249.69486   -311.61026            0    5996.6443    24.877365    24.742938    23.143442            0            0            0    14245.693    4925.0425    5265.3462    7799.5443    1945.8596    344.26104     688.9348 
  108500    249.81242   -311.77826   -249.81224   -311.77826            0    6466.3514    24.927033    24.785082    22.902704            0            0            0    14149.716    4422.5869    8076.8773    6899.5898   -2631.0684    2380.6735   -1153.6273 
  109000    246.11386   -312.76809   -251.71949   -312.76809            0    7185.2954    24.906412    25.058707    22.710083            0            0            0    14173.873    7798.4707    6196.2413    7561.1743   -785.97024   -1366.3983    1858.2156 
  109500    253.61099   -313.60416    -250.6959   -313.60416            0    5091.2344    24.843674    24.988577    22.909426            0            0            0    14222.356    6385.7426    5832.8974     3055.063    1645.9344    -1280.142    790.65356 
  110000    254.03812    -313.6329   -250.61869    -313.6329            0    7654.6077    24.804928    24.681744    23.079845            0            0            0    14130.148    5352.5249    9671.5824    7939.7157   -2381.5751    803.16253    716.96622 
  110500    244.66257   -313.68868   -253.00008   -313.68868            0    10193.324    24.907089      24.7753    23.037828            0            0            0    14216.197    9854.7897    9230.2049    11494.978   -62.122807    235.18818    1883.7386 
  111000      254.447   -314.30018   -251.18455   -314.30018            0    10219.524    24.864775    24.909598    22.790954            0            0            0    14116.068    9806.4049     8138.497     12713.67   -1848.7029     922.5019    299.64793 
  111500    245.20838   -311.52925   -250.70526   -311.52925            0    6573.4816    24.909761    24.990935      22.8017            0            0            0    14194.474    7695.4569    6248.0133    5776.9746    268.80029    380.56927   -340.02315 
  112000    249.66132   -313.77032   -251.84178   -313.77032            0    7766.2217    24.888657    24.814275    22.937106            0            0            0    14165.819    8557.6661    6201.4995    8539.4994    667.72476    1044.1806    -956.4285 
  112500     249.9153   -313.89505    -251.9035   -313.89505            0    5897.6754    24.820451    24.717003    23.047383            0            0            0    14139.273     1908.566    10233.169    5551.2911    635.13562   -217.87046   -484.33318 
  113000    249.15879   -313.63868   -251.83478   -313.63868            0    6160.0103    24.825882    24.892913    22.953142            0            0            0    14184.779    7440.8392    4381.1181    6658.0735   -244.29441    42.971063    2273.3893 
  113500    251.38405   -312.46522   -250.10935   -312.46522            0    7694.1917    24.845517    24.977375    22.812929            0            0            0    14157.151    8721.1722    7086.9278     7274.475    148.85612    27.181568   -1678.5607 
  114000    244.68146    -312.5183   -251.82501    -312.5183            0    3735.4532    24.937926    24.832887    22.838681            0            0            0    14143.554    3756.4927    4291.8734    3157.9934    1878.6597   -887.46823    3247.4801 
  114500    253.84979   -312.46146   -249.49397   -312.46146            0    8519.2289    24.945296    24.741093      23.0411            0            0            0    14220.366    7168.9464    9736.0496    8652.6908   -311.04387   -1642.2992   -1402.7419 
  115000    251.69104   -311.54849   -249.11648   -311.54849            0    10914.046    24.757227    24.807927    23.027209            0            0            0    14142.747    12340.976    9786.3737    10614.789    1615.3351   -1878.0014    -524.6187 
  115500    253.38431    -313.8015   -250.94947    -313.8015            0    3571.3718    24.852739    24.995672     22.91094            0            0            0    14232.526    2994.9927    996.68837    6722.4342   -221.23684    3745.2195    374.29131 
  116000    242.12823   -314.24651   -254.18655   -314.24651            0    8849.5846    24.940473    24.906945    22.722289            0            0            0    14114.881    7212.7774    9004.5186    10331.458   -104.35915   -1095.7578   -135.98247 
  116500    246.41031   -311.93313     -250.811   -311.93313            0    7747.6347    24.990121    24.766945     22.96297            0            0            0    14212.447    6890.2887    6938.7839    9413.8315   -1362.8526   -1031.7215   -394.93855 
  117000    246.39077   -314.10482   -252.98753   -314.10482            0    7498.1246    24.762321    24.752524    23.164336            0            0            0    14198.115    9093.3529     5486.531    7914.4898   -347.17128    1101.6999   -998.31554 
  117500    246.10712   -314.79076   -253.74384   -314.79076            0    6653.5195     24.68337     24.94442    22.972698            0            0            0    14144.574    7565.7012    4652.8238    7742.0335    482.44276    -1226.083   -1437.9833 
  118000    246.60297   -314.66989   -253.49997   -314.66989            0    5905.6228    24.925391    24.960599    22.819405            0            0            0    14197.154    3067.7799    7417.4931    7231.5954   -681.40136   -826.65687    48.815443 
  118500    250.20363   -313.31469   -251.25163   -313.31469            0    7588.9877    24.945652    24.796965    22.880578            0            0            0    14153.387    6566.2836     7166.498    9034.1815   -1050.2196    87.289803    115.88698 
  119000    250.79864   -313.74225   -251.53159   -313.74225            0    8312.6832    24.836422    24.807448    22.992425            0            0            0    14166.282    8505.8719      7024.29    9407.8876    656.19204   -1230.8036   -1595.9311 
  119500     254.0847   -313.32746   -250.30169   -313.32746            0    6633.7038    24.792146    24.960705    22.986068            0            0            0    14224.456    7673.3311    6001.6457    6226.1345   -2258.8348     491.1843    394.53521 
  120000    254.97303   -313.34067   -250.09455   -313.34067            0     6974.941    24.861319    24.840293    22.884571            0            0            0    14132.651    6242.8184     6090.559    8591.4457    746.24177   -847.62427    408.87447 
  120500    251.37931   -313.28867   -250.93398   -313.28867            0    4743.0648    24.950143    24.844052    22.895218            0            0            0     14191.89     3817.289    6035.2893    4376.6162   -150.57709    365.40335   -544.36717 
  121000    249.62336   -313.85505   -251.93592   -313.85505            0    6693.7807    24.865995    24.827412     22.94742            0            0            0     14166.78    7402.8847    4783.2426     7895.215     1613.845    1370.2342   -325.74324 
  121500    247.51515   -313.39525   -251.99906   -313.39525            0    7426.9693    24.840987    24.856461    22.986073            0            0            0    14192.958    6450.1745    8050.4664     7780.267    1843.8697    1349.3173     -258.407 
  122000    251.39238   -313.23458   -250.87665   -313.23458            0    6681.8417    24.786061    24.906595    22.919538            0            0            0    14149.064    6479.5561    5732.0718    7833.8971    676.06723    -812.7436   -258.13842 
  122500    250.09375   -311.20186   -249.16605   -311.20186            0    6385.7385    24.943573     24.87764    22.927111            0            0            0    14227.126    5734.5612    5996.1453    7426.5091   -584.68613    404.39055    2507.3444 
  123000    250.58599   -313.90618   -251.74827   -313.90618            0      8425.69    24.964824    24.768225    22.914014            0            0            0    14168.523    6852.5625    9867.0288    8557.4786    1532.5828   -1748.8191    366.01345 
  123500    252.66912   -313.56391   -250.88928   -313.56391            0    8257.9042    24.795394    24.913213    22.977821            0            0            0    14194.157     9362.103    7083.4531    8328.1563   -408.11262    1053.4643    773.40127 
  124000    245.19764   -310.99253    -250.1712   -310.99253            0    7282.8489     24.75913    24.933483    22.988826            0            0            0    14191.723     8263.799     8567.209    5017.5385    1275.9265   -520.36331    275.56596 
  124500     257.1468   -312.98981   -249.20449   -312.98981            0    7852.9948     24.99472    24.760327    22.934124            0            0            0    14193.412    7987.3949    9874.5091    5697.0804   -2930.5346    984.28081    435.92016 
  125000    255.08222   -310.74689   -247.47368   -310.74689            0    5356.3882    24.981286    24.818827    22.908376            0            0            0    14203.336    5483.6833    5304.8969    5280.5846   -1765.5326   -419.27895   -1001.7561 
  125500    247.99325   -311.70153   -250.18675   -311.70153            0    8401.4762     24.74613    24.967638    22.916513            0            0            0    14159.023    8400.9417    9101.2335    7702.2535    907.98588    167.81511    635.42319 
  126000    254.02803   -312.25098   -249.23927   -312.25098            0     8234.594    24.819161    24.954703    23.007449            0            0            0    14249.774    10584.936    7287.7994    6831.0471   -828.43185    498.12946    784.62652 
  126500    248.00013   -313.50211   -251.98562   -313.50211            0    7150.2812    24.862942    24.671431    22.978418            0            0            0    14095.062    9197.8549    6559.7717    5693.2169   -303.26807    226.41418    791.39027 
  127000    253.69925   -314.33141   -251.40126   -314.33141            0     7275.566    24.965784    24.889557     22.97807            0            0            0    14278.281     6709.068    7162.5398    7955.0903   -28.884827   -865.20615    177.09695 
  127500    246.80595   -311.60295   -250.38268   -311.60295            0    7811.9911    24.813882    24.922901    22.845369            0            0            0    14128.351     6275.834    8347.7262     8812.413    899.11805    1488.1296   -480.38352 
  128000     248.7748   -313.16752   -251.45888   -313.16752            0    5185.4966    24.807606    24.928364    22.936441            0            0            0    14184.194    4131.8837    7025.5745    4399.0316    163.11787   -1084.5788   -1606.2538 
  128500     248.6876   -312.07479   -250.38778   -312.07479            0    8557.4204    24.918442    24.822741    23.000349            0            0            0    14226.729     8899.953    7619.5861    9152.7222    267.71423   -904.57635   -784.55873 
  129000    251.27541   -312.81431   -250.48539   -312.81431            0    8238.7292    24.863022    24.766593    22.925375            0            0            0    14116.812    10747.859    6459.4902    7508.8388   -1548.6212    698.27697   -700.59065 
  129500    249.61727   -311.67639   -249.75877   -311.67639            0    6315.2363    24.853106    25.038879    22.908494            0            0            0    14255.817    10206.547    1924.6142    6814.5476   -257.50525     -61.9725    2624.5268 
  130000    248.48133   -312.73081   -251.09496   -312.73081            0    9138.8715    24.857422    24.893892    22.850319            0            0            0    14139.731      9115.71     8973.944    9326.9606   -686.36737   -236.85976   -748.62254 
  130500    254.27502   -313.61444   -250.54147   -313.61444            0    4276.3546    24.945677    24.776528    22.962493            0            0            0    14192.365    1391.7292    6327.5551    5109.7796   -294.07886   -266.96731   -371.43018 
  131000    239.12509   -313.01979   -253.70475   -313.01979            0    6110.2738    24.833062     24.85031     22.99347            0            0            0    14189.484    7438.1866    4169.4526    6723.1821     632.8923   -1012.7697    1889.4834 
  131500    248.30733   -315.77769     -254.185   -315.77769            0    6769.2321     24.76114    24.913446    22.946261            0            0            0    14155.212    5798.3272    7121.0985    7388.2705    137.94078    -1276.462   -3.3214586 
  132000    250.88008     -314.274   -252.04314     -314.274            0    6408.9472    24.911222    24.894433    22.913815            0            0            0     14210.02    8340.3554    7060.5561    3825.9303   -552.31113      1062.96    333.47099 
  132500    254.83113   -312.21942    -249.0085   -312.21942            0    8300.8234    24.961665    24.787754    22.906162            0            0            0    14173.042     7698.516    8315.5284    8888.4258   -462.07979    1885.4785    1225.0281 
  133000    255.69036   -312.14143   -248.71738   -312.14143            0    8634.1721    24.899356    24.924063    22.959079            0            0            0    14248.247    6771.8568      9048.03    10082.629   -1002.9802    1791.0969    -492.1135 
  133500    243.31365   -311.38244   -251.02844   -311.38244            0    6831.2258    24.809423    24.912997    22.930958            0            0            0    14173.099    8988.9558     6128.257    5376.4646   -444.22961    968.29305    1337.2713 
  134000    250.96413   -314.59349   -252.34179   -314.59349            0    6744.2306    24.887196    24.883421    22.932519            0            0            0    14201.618    2836.5134    7763.2153    9632.9632   -478.86845    212.65051    266.45979 
  134500    256.02795   -312.86241   -249.35462   -312.86241            0    8428.1656    24.921279    24.787962    22.916995            0            0            0    14156.922    6183.1729    11397.049    7704.2748    1332.7148   -479.45905   -140.98335 
  135000    240.96215   -313.61714   -253.84642   -313.61714            0    6868.3354    24.837961    24.950127    22.987961            0            0            0    14245.876    8656.5122    4402.4313    7546.0628    673.79604   -11.224115   -802.93383 
  135500    249.42487   -313.22313   -251.35323   -313.22313            0     10032.49    24.676855    24.943342     22.89344            0            0            0    14091.444    8961.1695    8831.0893    12305.211    332.20071   -2368.0349    1307.8737 
  136000    249.60664   -313.19917   -251.28419   -313.19917            0    6505.4571    25.042152    24.873348    22.983361            0            0            0    14315.925    5383.6043    7188.1274    6944.6396   -837.84866     226.8057   -1039.5544 
  136500    241.55305   -309.45349   -249.53621   -309.45349            0    8323.6414    24.953539    24.672784     22.89177            0            0            0    14093.851    7668.1065    10578.696    6724.1222    289.09713    663.29697    1036.3357 
  137000    245.96926   -311.76165   -250.74892   -311.76165            0    3718.7425    24.835848    24.965503    22.984212            0            0            0    14251.118    7212.6601    1036.2165    2907.3508   -425.61098    1578.8929    -771.2227 
  137500    253.61616    -310.7432   -247.83365    -310.7432            0    7787.5276    24.725339    24.987336    22.955711            0            0            0    14182.506    9125.8357    4118.8634    10117.884    372.65136    537.03046   -112.77898 
  138000    248.95643   -311.08032   -249.32662   -311.08032            0     7095.072    24.926388    24.814952    22.967605            0            0            0    14206.546     6656.254     8476.319     6152.643    757.17533   -656.26935      695.755 
  138500    243.81445   -311.57973    -251.1015   -311.57973            0    6523.3653    24.959988    24.807326    22.934204            0            0            0    14200.643     7542.382    7792.0429     4235.671    137.94422    1701.4536    653.95545 
  139000    239.79912    -314.5587   -255.07647    -314.5587            0     6515.795    24.828433    24.910545    22.835569            0            0            0    14123.566     5970.137    5465.0812    8112.1668   -372.32101   -1932.4503    1110.0881 
  139500    249.29698   -312.84196    -251.0038   -312.84196            0    5633.8154    24.857069    24.960794    22.949332            0            0            0    14238.964    6160.1248    4282.0617    6459.2598    1644.9408    3839.7463    1472.3188 
  140000    253.71709   -312.27387   -249.33929   -312.27387            0    5221.0952    24.875019    24.746192    23.004463            0            0            0    14160.673    4309.7543     4841.388    6512.1433     1152.417     1009.308   -531.22921 
  140500     256.5137   -312.62667   -248.99839   -312.62667            0    4556.9606    24.888067    24.797957    23.087752            0            0            0    14249.142    4872.3949    5405.0926    3393.3943    643.88081   -761.58036   -1812.2973 
  141000    252.67434   -313.58643    -250.9105   -313.58643            0    6410.3336     24.77763    24.938475    22.905163            0            0            0    14153.474    7867.0368    6575.2381     4788.726    389.02142    923.72848   -550.56853 
  141500    247.91446   -313.10026   -251.60502   -313.10026            0     8026.159    24.964337    25.000179    22.779702            0            0            0    14217.106     6614.049    6511.1461    10953.282    341.08581   -57.003815    1039.5766 
  142000    252.43758   -313.36903   -250.75183   -313.36903            0    5723.0114    24.975032    24.814242    22.842678            0            0            0    14156.441    2896.9356    7983.3985    6288.7002    2149.2885    656.30618     976.3145 
  142500    258.68751   -313.43545   -249.26796   -313.43545            0    4344.3779    24.894917    24.818454    23.109882            0            0            0    14278.518    1098.2613    6629.0686    5305.8038    -275.1227    975.96542   -1302.3305 
  143000    252.37574   -312.39339   -249.79154   -312.39339            0     7124.937    24.705977    24.866012    23.104997            0            0            0    14194.303    8314.0567    7769.7816    5290.9727   -331.71244    431.90995   -246.86298 
  143500    252.38813   -312.98573    -250.3808   -312.98573            0    4538.3854    24.851681    24.942809    22.921189            0            0            0    14208.174    3116.1605    4160.0301    6338.9657   -411.09379   -1771.8317   -372.76985 
  144000    251.34144   -312.07451   -249.72921   -312.07451            0    7791.6665    25.000578     24.93265    22.820549            0            0            0    14224.748    5377.4482    9843.5776    8153.9736   -810.93179   -1748.9396    1070.1071 
  144500    249.91886   -311.38232   -249.38989   -311.38232            0    8401.0743    24.916249    24.879786    22.890649            0            0            0    14190.163    7197.1673    7354.2423    10651.813   -982.80379    -1085.959    1260.7938 
  145000    246.89045   -311.85561   -250.61438   -311.85561            0    7235.8441     24.81519    24.869196    23.054234            0            0            0    14227.547    7039.5533    8761.2759    5906.7032    940.85766   -425.68855   -933.34601 
  145500    251.79213   -313.16848   -250.71139   -313.16848            0    8089.9736    24.816895    24.847459    22.990924            0            0            0    14177.049    9001.8202    6637.6773    8630.4232   -2997.7994   -1768.9185   -1030.8996 
  146000    247.80419   -312.66846   -251.20058   -312.66846            0    3253.2507    24.953939    24.915175    22.877936            0            0            0    14223.939    3271.0486    3425.5671    3063.1364   -302.49511    2244.7827    783.28802 
  146500    249.39221   -313.54231   -251.68051   -313.54231            0    6979.6814    24.916089    24.895997     22.81897            0            0            0    14154.855    3612.3118    8173.7724    9152.9599    2103.7403   -192.41975   -2249.5507 
[...]
  365000    250.86291   -311.53367   -249.30707   -311.53367            0    8709.4904    24.834164    24.853028    22.983763            0            0            0    14185.675    7506.1805    9893.3608    8728.9298    1305.0985    760.04642    774.49463 
  365500    247.41372   -311.23602   -249.86499   -311.23602            0    7077.3304    24.934742    24.800794    22.852839            0            0            0    14132.228    7901.5691    4456.2748    8874.1471    1020.4201    238.22599   -246.98985 
  366000    249.43521   -310.28046     -248.408   -310.28046            0    4810.6892    24.995336    24.863993    22.920687            0            0            0    14244.837     2144.343    5770.5087    6517.2161    251.43223   -1689.3345    1222.7065 
  366500    248.24229   -311.91264   -250.33609   -311.91264            0    10067.005    24.780435    24.880704    22.915209            0            0            0    14128.479    10505.922    7335.2004    12359.892    345.36839   -729.90699    988.51156 
  367000    242.87338   -312.50569   -252.26089   -312.50569            0    7814.5644    24.837935    24.867355     22.99173            0            0            0    14200.929    5826.4991    11127.953    6489.2405    106.49524   -719.28548   -138.78041 
  367500    251.05783   -312.76418   -250.48923   -312.76418            0    7709.1697    24.921324    24.775321    22.929919            0            0            0    14157.707    6671.5582    7334.8058     9121.145   -157.78465   -554.99412   -1427.2942 
  368000     251.1536   -311.81015   -249.51144   -311.81015            0    7736.2437    24.931022    24.826415    22.918988            0            0            0    14185.659    7579.8995    10091.193    5537.6383    63.303939    1475.8769    1163.6402 
  368500    254.16813    -314.8374   -251.79094    -314.8374            0    5633.5402     24.80809    24.918837    22.903364            0            0            0    14158.602    7732.9255    2846.7589    6320.9362   -876.62507    326.89996   -835.75657 
  369000    258.43517   -314.55496   -250.45006   -314.55496            0    8081.0538    24.854764    24.873575    22.982833            0            0            0    14208.604    8410.2789    7889.8753    7943.0071     523.1097     162.8691    520.60961 
  369500    250.64797   -311.78383   -249.61055   -311.78383            0    5621.0445    24.893029    24.776161    23.024551            0            0            0    14200.477    5647.3759     6819.576    4396.1816   -1510.5201    547.14829   -51.092854 
  370000    246.73692   -311.18608   -249.98294   -311.18608            0    7259.8219    24.781218    24.852461    23.010026            0            0            0    14171.282    8770.5424    5796.7349    7212.1885    1058.3224     356.8853     641.5552 
  370500    249.59338   -314.94673   -253.03504   -314.94673            0     6422.135    24.872121    25.008718    22.899867            0            0            0    14244.172    6278.9918    5730.4294    7256.9839   -2430.9635    262.69308   -1980.9872 
  371000     245.8103   -314.25145   -253.27815   -314.25145            0    7917.5109    24.922702    24.805375    22.758561            0            0            0    14069.728    9054.5528      5140.42    9557.5597    1619.5712    209.75366   -2293.3269 
  371500    247.21011   -313.33168   -252.01116   -313.33168            0    5792.2686    24.998218    24.864887    22.973821            0            0            0    14280.019    6362.0814    3643.7437    7370.9807   -70.709741    959.24278    1833.2518 
  372000    255.18714   -313.13581   -249.83659   -313.13581            0    10051.428    24.763864    24.812899    22.989685            0            0            0    14126.317     8071.479    11937.824    10144.982   -1765.3883   -334.25574   -686.59875 
  372500    243.63922   -313.10647   -252.67171   -313.10647            0    6542.5289    24.828158    24.909316    23.057643            0            0            0    14260.056    9269.4982    4604.4566     5753.632    2047.6285   -2428.4841    874.90696 
  373000    242.93802   -315.48464   -255.22381   -315.48464            0    9589.6194    24.859387    24.792287    22.860449            0            0            0    14089.376    8521.9454    8333.3756    11913.537     327.1016   -1458.0185    -81.42195 
  373500    250.76041    -313.0566   -250.85542    -313.0566            0    6837.0273    24.985727    24.915539      22.8581            0            0            0    14229.919    5114.3545     6621.978    8774.7494    281.50407    -453.1428   -301.55393 
  374000    247.76711   -311.91162   -250.45293   -311.91162            0    7853.6459    24.834835    24.878759    22.920204            0            0            0    14161.474    5333.3528    7292.2657    10935.319   -19.601129   -941.33809    1311.5564 
  374500    256.76353     -312.073   -248.38275     -312.073            0    6392.4776    24.797994    24.845086    23.077795            0            0            0    14218.421    3702.6515     7798.095    7676.6864   -75.043902   -413.13403   -873.06484 
  375000    256.16701   -313.14194   -249.59966   -313.14194            0     8600.494    24.895871    24.894138    22.946853            0            0            0    14221.571    9044.8354     6647.512    10109.135   -734.26985   -1043.4818   -2373.4351 
  375500    250.82851   -313.12527    -250.9072   -313.12527            0    7259.3277    24.928697    24.854816    22.792895            0            0            0    14122.436    8332.7043    6707.3147    6737.9641    1339.5648    396.93457    351.60849 
  376000      250.481   -311.24284   -249.11097   -311.24284            0    6200.6109    25.000284    24.919528    22.965786            0            0            0    14307.576     4675.601    7397.5905    6528.6413    855.77088    1903.6508    599.57701 
  376500     243.9868   -310.75902   -250.23804   -310.75902            0    9513.7296    24.773537    24.789246    22.979433            0            0            0    14112.068    9633.6388    8998.6859    9908.8641   -177.02355    307.04079    -465.5297 
  377000    234.16795   -311.73543   -253.65002   -311.73543            0     6662.859    24.827931      24.9042    23.045127            0            0            0    14249.257    9976.4227    5557.2371    4454.9173   -2901.1479    116.64423   -114.37868 
  377500    245.25649   -313.75788   -252.92195   -313.75788            0    7592.0399    24.921375    24.825454    22.879735            0            0            0    14155.337    9128.8155    6764.7366    6882.5676    1566.1628   -1360.6873    799.35709 
  378000    249.21512   -312.98983   -251.17196   -312.98983            0    4671.2568     24.98009    24.864518    22.866379            0            0            0    14202.717    3893.5911    4757.9582    5362.2209   -91.752386    749.46159    921.55254 
  378500    251.34433   -313.40933   -251.06331   -313.40933            0     6268.598    24.845936    24.854292    22.942136            0            0            0    14167.415    6878.0275    4754.4062    7173.3604    760.42705    1624.2862    1339.4831 
  379000     252.4035   -314.09656   -251.48782   -314.09656            0    5930.9227    24.802735    24.830488    23.054125            0            0            0    14198.206     7534.761    7284.3459    2973.6611   -784.05309    1073.1298    323.21536 
  379500     249.0004   -314.54442   -252.77982   -314.54442            0    8427.3972    24.966603     24.79261    22.959785            0            0            0    14211.814    8795.1836     7625.916    8861.0919    -312.3886   -2627.7442    63.298613 
  380000    238.18579   -313.54494    -254.4629   -313.54494            0    9183.1118    24.985623    24.836464    22.770342            0            0            0    14130.239    7807.8206    8187.2356    11554.279    858.25449    924.10599    -1641.553 
  380500    246.88033   -312.12814   -250.88942   -312.12814            0    7555.5223    24.864898    25.011828    22.850743            0            0            0    14211.255    8428.4178    4169.0669    10069.082    500.37979    105.17242   -937.23562 
  381000    249.75674   -312.80126   -250.84904   -312.80126            0    10113.778    24.731355    24.802248    23.083438            0            0            0    14159.224    10584.839     13140.88    6615.6143    -334.1845    1320.8155    134.58067 
  381500    250.07644   -309.97372    -247.9422   -309.97372            0    8529.5045    24.909648     24.71178    23.132759            0            0            0    14239.642    9408.3649    10537.572     5642.577    252.73316    342.96965    298.25702 
  382000    248.03733   -311.87701   -250.35129   -311.87701            0    6613.6557    24.920548     24.92164    22.811338            0            0            0     14167.23    6137.2209    4664.6161      9039.13     107.6529   -3193.4941    1334.7325 
  382500      258.359   -311.62039   -247.53439   -311.62039            0    8764.7699    24.882105    25.065165     22.75468            0            0            0    14191.504    9618.3547    5106.0321    11569.923   -1186.1369   -3391.4916    1628.6451 
  383000    256.23449   -311.22235   -247.66333   -311.22235            0    5311.1095    24.911376    24.893328    22.925973            0            0            0    14217.016    5223.2693    5492.7669    5217.2922    1470.4794    1586.7792    366.17275 
  383500    258.70754   -311.73926    -247.5668   -311.73926            0    9135.6508    24.885674    24.787011    23.040516            0            0            0    14212.346    10694.819     7629.316    9082.8173     -702.969    42.948927   -883.53257 
  384000    249.84896   -314.66491   -252.68982   -314.66491            0    7423.3703    24.840055     24.84259     22.94616            0            0            0    14159.876    7242.5921    6007.1124    9020.4063   -600.70726   -1561.4981    1573.8744 
  384500    251.01215   -314.70095   -252.43733   -314.70095            0    7114.4266    24.919519    24.938043    22.834998            0            0            0    14190.673     7734.113    6356.0624    7253.1045   -199.95616    1188.1819    1065.8784 
  385000    243.91493   -313.70329   -253.20014   -313.70329            0    7454.3454    24.937614    24.915229    22.799546            0            0            0    14165.959    5832.9902    7884.3571     8645.689    1444.3296    160.71611   -413.77649 
  385500    246.07359   -313.31064   -252.27204   -313.31064            0     6550.421    24.821773    24.854376     22.94493            0            0            0    14155.408    8244.3901    4978.7896    6428.0835   -512.66999    156.65964     908.7634 
  386000    253.85989   -312.62083   -249.65083   -312.62083            0    6213.8135    24.806743     24.84476    23.119785            0            0            0     14249.13    8041.9369    6941.7842    3657.7194   -154.22649    1014.9951   -153.72014 
  386500    256.03025   -313.40058   -249.89222   -313.40058            0    9160.1947    24.882451    24.779402    22.936056            0            0            0    14141.736    8396.6359    9623.8769    9460.0713    526.54806   -959.26148    1899.3624 
  387000    250.70043   -312.98823   -250.80193   -312.98823            0    5303.0961     24.96962    24.935441    22.846617            0            0            0    14224.955    6583.5552    2515.8328    6809.9003    1465.6023    1034.1276   -567.69083 
  387500     252.1751    -314.3893   -251.83721    -314.3893            0    8464.4377    24.860617     24.89117    22.854761            0            0            0    14142.751    7428.0142    10709.875    7255.4238    -990.7909    913.93358    781.45589 
  388000    245.02592   -313.60882   -252.83009   -313.60882            0    8268.1063    24.779606     24.84059     23.08304            0            0            0    14208.536    8899.2665    9098.4158    6806.6366    628.59941   -2291.0015    -1274.789 
  388500    247.53193   -315.68547   -254.28512   -315.68547            0    4996.9996    24.757613    24.762384    23.060692            0            0            0     14137.53    7250.4354     2486.481    5254.0825   -1047.0213     1092.276   -632.05145 
  389000    245.92499   -314.62683   -253.62508   -314.62683            0    8536.4389    24.936412    24.912305    22.801777            0            0            0        14165     6939.044    8224.9518    10445.321    37.991174    943.22835    1016.3927 
  389500     241.3374    -314.5015    -254.6377    -314.5015            0    7670.3168    24.946992    24.981871    22.675902            0            0            0    14132.133    6251.9372     7341.308    9417.7051    743.51986    1420.4865   -2063.7233 
  390000    240.66017   -315.42395   -255.72814   -315.42395            0    6949.9545    24.854687    24.844895    22.929245            0            0            0    14159.086    4767.2492    8062.0144    8020.5999   -1073.8871   -720.02526   -525.94695 
  390500    248.15537   -312.15904   -250.60404   -312.15904            0    9003.2378    24.792368    24.758662     23.13124            0            0            0    14198.554    9897.1999    9511.2509    7601.2626   -14.620805   -1729.0506    1385.3165 
  391000    248.28428    -311.4514   -249.86443    -311.4514            0    7568.6312    24.851591     24.81102    22.996802            0            0            0    14179.674    5604.9604    8704.1994    8396.7338   -480.58582   -729.29704    2406.3899 
  391500     246.8233   -311.51989   -250.29532   -311.51989            0    6400.3636    24.925159    24.960107    22.819255            0            0            0    14196.649    7278.4317    7613.5006    4309.1586    2021.2676   -1995.2453     2570.581 
  392000    250.67226   -314.80008   -252.62077   -314.80008            0    8038.1021    24.904855    24.981075    22.734446            0            0            0    14144.237    6831.6271    7930.8887    9351.7905    1677.1816    973.53091   -1108.2998 
  392500    250.25488   -313.15136   -251.07558   -313.15136            0    6159.0942    24.835236    24.859783    22.964015            0            0            0     14177.95    6502.2974    4978.0986    6996.8867    657.26204   -2531.5845   -36.740457 
  393000     248.0773   -311.89473   -250.35911   -311.89473            0    5119.7736    24.842768    24.791269    23.059292            0            0            0    14201.843    5692.1838    4979.8438    4687.2934   -1289.6149    1598.3472   -1360.3087 
  393500    246.86382   -312.37889   -251.14427   -312.37889            0    7865.5471    24.875099    24.886527    22.907194            0            0            0    14180.809    5903.2938     9337.173    8356.1743   -1000.6921   -559.72942   -2431.7821 
  394000    250.33149   -314.38613   -252.29135   -314.38613            0    4856.4937    24.933847    24.956228    22.829307            0            0            0    14205.646    3160.9099    4821.2931    6587.2782    58.772922   -283.35356    770.41313 
  394500    252.91264   -313.12008   -250.38504   -313.12008            0    9362.9041     24.86617    24.826312    22.901419            0            0            0    14137.854    9751.5006    9060.6723    9276.5394   -1645.1413   -878.60123     2835.014 
  395000    245.69731   -312.37835   -251.43307   -312.37835            0    6933.4107    24.881497    24.879113    23.081926            0            0            0    14288.395    6836.1313    8673.2295    5290.8712    -1692.093    889.93356    -106.3628 
  395500    248.45261   -313.82396   -252.19524   -313.82396            0    10340.784    24.745083    24.803551    22.923556            0            0            0    14069.698    11586.354    11566.109    7869.8896    165.35179   -222.60338    438.84916 
  396000    247.89394   -314.32547   -252.83533   -314.32547            0    6280.4016    24.953073    24.954851    22.917531            0            0            0    14270.752    7092.4005     2584.972    9163.8324    2080.2103    -1619.265    4322.2202 
  396500    253.52868   -310.73091   -247.84307   -310.73091            0    9917.9814     24.90945    24.822568    22.826349            0            0            0    14113.909    10160.976    9003.2492    10589.719   -93.146862   -1387.6018   -48.838688 
  397000    249.45978   -314.88935    -253.0108   -314.88935            0    6608.6675    24.879043    24.893577    22.981328            0            0            0    14232.988    5204.0489    5529.6644    9092.2891     2237.994    543.17058    1364.4711 
  397500    243.39013   -310.32101   -249.94803   -310.32101            0     7009.171    24.774895    24.825825    23.037338            0            0            0    14169.281    7523.4971    8161.1855    5342.8303    680.14715   -372.42599    2531.7147 
  398000    245.04461   -313.01226   -252.22889   -313.01226            0    7844.0106    24.893585    24.863071    22.945032            0            0            0    14201.391    8637.5018    7181.6085    7712.9214   -186.26933    467.81597    557.64225 
  398500    249.71383   -312.80043   -250.85886   -312.80043            0    9480.4735    24.996564    24.887153    22.752834            0            0            0    14154.386     6381.437    12109.902    9950.0816    954.64537   -1846.7475   -330.20593 
  399000    248.33676   -315.53054   -253.93056   -315.53054            0    10657.511    24.870382    24.924794    22.798052            0            0            0    14132.265    9378.5584    12217.247    10376.727    432.58628    560.04343   -1161.5381 
  399500    242.61466   -313.77307   -253.59245   -313.77307            0    8945.8299    24.734678    24.835387    23.162549            0            0            0    14228.645    11672.335    8340.2955    6824.8588    449.79753    1453.8215    199.67564 
  400000    245.83344   -314.28901   -253.30997   -314.28901            0     10034.76    24.783732    24.633238    23.127401            0            0            0    14119.361    11491.108    11115.335    7497.8368      67.8471     342.0365   -27.765905 
Loop time of 4418.36 on 1 procs for 400000 steps with 1920 atoms

Performance: 3.911 ns/day, 6.137 hours/ns, 90.531 timesteps/s
64.1% CPU use with 1 MPI tasks x 1 OpenMP threads

MPI task timing breakdown:
Section |  min time  |  avg time  |  max time  |%varavg| %total
---------------------------------------------------------------
Pair    | 3786.1     | 3786.1     | 3786.1     |   0.0 | 85.69
Bond    | 0.052436   | 0.052436   | 0.052436   |   0.0 |  0.00
Neigh   | 580.32     | 580.32     | 580.32     |   0.0 | 13.13
Comm    | 15.884     | 15.884     | 15.884     |   0.0 |  0.36
Output  | 4.8313     | 4.8313     | 4.8313     |   0.0 |  0.11
Modify  | 28.841     | 28.841     | 28.841     |   0.0 |  0.65
Other   |            | 2.343      |            |       |  0.05

Nlocal:        1920.00 ave        1920 max        1920 min
Histogram: 1 0 0 0 0 0 0 0 0 0
Nghost:        7151.00 ave        7151 max        7151 min
Histogram: 1 0 0 0 0 0 0 0 0 0
Neighs:         0.00000 ave           0 max           0 min
Histogram: 1 0 0 0 0 0 0 0 0 0
FullNghs:      548826.0 ave      548826 max      548826 min
Histogram: 1 0 0 0 0 0 0 0 0 0

Total # of neighbors = 548826
Ave neighs/atom = 285.84688
Ave special neighs/atom = 0.0000000
Neighbor list builds = 40000
Dangerous builds not checked

unfix		3
unfix		2

write_data	data.final.${pid}
write_data	data.final.0
System init for write_data ...

write_restart   restart.lmp.${pid}
write_restart   restart.lmp.0
System init for write_restart ...
Total wall time: 1:13:43
