LAMMPS data file via write_data, version 23 Jun 2022, timestep = 158202000

2592 atoms
2 atom types

0 30.944 xlo xhi
0 21.33497 ylo yhi
-0.8727562484706883 31.845471264157354 zlo zhi
-9.144178 0.9872686324734593 -10.88773185025616 xy xz yz

Masses

1 1.008
2 15.999

Atoms # full

1155 0 2 0 6.203150893277789 15.282736991926104 13.601279227483104 0 -1 0
167 0 2 0 -3.296127993890156 10.97464047829109 14.022384623560972 2 2 0
2341 0 1 0 4.3466032770472625 11.99188321956702 0.14775790391269283 0 -1 0
654 0 2 0 6.670719585763417 6.852108976091213 13.31187245541359 0 -2 0
61 0 1 0 7.511324350659128 8.597217360509687 5.602980156312238 3 3 0
63 0 2 0 7.830838085640187 7.942156519970061 5.019004161707091 3 3 0
412 0 1 0 7.349596520761294 0.061464280129885474 6.361436942342596 2 -3 0
721 0 1 0 2.2202347900503554 1.8505404505852368 6.510283646589627 0 1 0
820 0 1 0 0.7931359021989125 19.82395785590982 0.38705039572962807 2 -1 0
1239 0 2 0 10.300293469961671 -3.156081033401006 13.3213415255515 3 1 0
617 0 2 0 12.236499687678663 -3.849114884249478 14.783996666776634 2 2 0
1074 0 2 0 -1.745786994497718 7.643466937491907 4.8643470304776955 2 0 0
428 0 2 0 7.295290563431263 13.424480504169633 14.587216622842963 -1 -1 0
703 0 1 0 3.9585407082350814 20.21672221995153 0.4627726549178839 0 -1 0
1144 0 1 0 4.728865640200434 11.43079869170328 14.650764164960478 -4 -3 0
578 0 2 0 0.05663367311671208 9.785086990604876 14.869600641679082 0 1 1
2270 0 2 0 13.496203183250147 -0.8586053785466046 14.480561516728022 1 1 0
799 0 1 0 -3.1854061913855407 12.887743616562808 11.656005094652814 1 -3 0
1497 0 2 0 3.0875273224228685 -1.3590077073244524 10.66142576917025 1 -2 0
2186 0 2 0 0.7773277129536444 16.12029918298881 0.9713995322651885 0 -1 1
819 0 2 0 9.374101532623461 4.5997927212635705 8.782655544558725 -2 0 0
1237 0 1 0 10.808198713775571 -2.9153755466175415 14.091425504923148 3 1 0
1157 0 2 0 -1.4183163834273578 10.462886779768148 2.2228031364533494 2 -2 0
1722 0 2 0 8.782312682099727 13.438493798327043 1.6045332150341198 -1 -2 0
849 0 2 0 5.109763369510239 8.033143682149472 4.63119088079576 -2 0 0
817 0 1 0 8.398378675503986 4.817094937633534 8.866542222455957 -2 0 0
1054 0 1 0 -6.098363633501333 11.925753799938352 10.068195144703697 -1 -2 0
826 0 1 0 3.264359458198699 6.763890014290521 2.90393896667351 -1 -2 0
2182 0 1 0 10.266864932165417 8.149929320311928 10.101744433743956 -1 -1 1
746 0 2 0 -4.701940344643392 14.398994485931947 8.485429645009594 0 0 0
2227 0 1 0 -4.237115770656025 18.326805891123232 4.057620240151169 0 -1 1
113 0 2 0 2.93656056583208 19.195438168690178 1.7817313368767413 0 -1 0
1105 0 1 0 -4.321065466634158 19.428025109509 1.604164136866249 -1 -1 0
149 0 2 0 -0.07891134820108014 12.094089433744553 12.819921794324197 0 -2 0
814 0 1 0 -2.775784673915215 16.84806257487998 1.0740312049221492 1 0 0
689 0 2 0 7.067075400891884 0.09935390937236627 0.24761121307982203 -1 0 0
1296 0 2 0 5.521517582302301 16.014169475480877 6.291894383907997 -1 0 0
88 0 1 0 9.08109663453588 11.587728643489607 -0.6809108010197028 -2 -2 0
716 0 2 0 -4.037296602453992 8.971401456344157 6.266925716052452 0 -1 0
1271 0 2 0 6.770301208666348 8.642944712878649 11.199504387297914 1 -1 0
12 0 2 0 0.6115077246216163 0.20718468533137646 1.9791663039012901 1 2 0
1048 0 1 0 3.636313038624545 16.865731418259823 9.10234972650558 1 -1 0
1191 0 2 0 -6.3955569863018615 15.094213942958596 1.6538917594639284 2 0 0
2176 0 1 0 4.07347076026262 0.20373950980176092 7.565625487356401 0 0 1
246 0 2 0 2.005556669876257 7.4155952648163925 -0.3205047501377468 0 2 0
1663 0 1 0 11.879996482942854 1.577918555633298 10.535561929708644 -2 -1 0
996 0 2 0 6.224624520970799 2.554813270806903 8.055911213710315 -1 1 0
2557 0 1 0 11.961705368080468 2.0076902535048387 13.200988664146273 0 0 1
315 0 2 0 4.666458290742158 5.863957322393666 7.778140343207129 1 3 0
166 0 1 0 -3.020612603718881 11.330754422551038 14.867903547987224 2 2 0
408 0 2 0 1.7724605710741514 3.735623795717796 5.710607601517469 -2 -1 0
278 0 2 0 8.749426295779134 5.610877712198014 12.048266656459905 0 0 0
1164 0 2 0 8.617353515090644 -4.17611526387005 12.3763325579704 -1 -1 0
1167 0 2 0 5.8148487873729815 11.756176537170075 3.741615504506564 1 0 0
907 0 1 0 -1.104048505929541 6.558159379167615 12.82741425815697 1 3 0
677 0 2 0 -1.1272510374172788 7.562057724697209 0.5719450280901688 3 4 0
824 0 2 0 2.290190047362622 13.790632189621995 1.7787668100286842 0 2 0
770 0 2 0 4.953724658763659 8.136558190451195 0.05614767496660922 0 0 0
36 0 2 0 -2.7457794665131137 7.975983757827033 9.86168057726239 -1 1 0
1177 0 1 0 7.304602970286441 16.852308188050053 5.858912734512472 0 0 0
704 0 2 0 4.7302191947019745 19.804025793771963 0.01447971800061787 0 -1 0
928 0 1 0 -0.6468907923444602 1.4328105700959348 14.157391442724196 1 2 0
140 0 2 0 -5.813516932270976 18.25368228697443 7.424300687760578 -1 -1 0
1604 0 2 0 9.90072895666291 3.5666329670253543 12.20304459020247 -1 -1 0
77 0 2 0 -1.8722193551244684 2.3568250831178363 9.554041949348562 -2 0 0
1203 0 2 0 8.535078642296277 3.0046728786695307 7.1424532761452895 1 1 0
710 0 2 0 -0.7942743204066058 12.216489993474637 7.189579259355913 -2 -2 0
801 0 2 0 -3.009834769879325 13.648548450365437 11.059225751614054 1 -3 0
956 0 2 0 3.048018368660616 0.22300876614671772 -0.16349988003866944 -1 -2 0
186 0 2 0 6.589680901287248 -2.24932202660303 13.077128029098457 1 -1 0
538 0 1 0 -4.476234900013384 10.529175936691129 12.335405567001711 1 -2 0
1008 0 2 0 11.199355232414325 0.5962306753497206 3.0876066016559913 -2 0 0
1701 0 2 0 0.5376164901703446 7.505478059311712 4.609893276993536 -1 -2 0
2256 0 2 0 10.438663303874478 6.6594240440743055 8.388793507012881 0 -1 0
493 0 1 0 6.498303169593997 18.184516244102582 2.8873454302996056 2 2 0
1305 0 2 0 0.5398060340953376 0.6375670227342436 3.9789841505520993 3 2 0
170 0 2 0 12.701885039029786 4.682666808124053 5.906298458873862 -2 1 0
947 0 2 0 1.7766596363561267 3.7354887061024686 9.2934378667882 0 -1 0
712 0 1 0 0.5194312284178209 4.915284554785705 3.415280881313161 4 1 0
711 0 2 0 -0.8303938870632186 13.026827593752891 8.465552948137438 -2 -2 0
1148 0 2 0 -0.47680066229356466 4.282527383764565 14.810044394658728 0 3 0
173 0 2 0 -6.810289279931428 16.46925260566227 8.53684260312785 2 -2 0
431 0 2 0 14.140758125404652 -0.34076020664923745 2.12968014693119 0 3 0
479 0 2 0 5.131409798212103 14.994332891143022 1.6775493451452612 0 -3 0
73 0 1 0 2.327739480363107 -3.9631655924745424 12.031469653356295 2 1 0
130 0 1 0 -3.0138618280552016 16.96769680358241 8.56338337657545 0 -1 0
832 0 1 0 9.243147232062295 -0.23260977820995699 12.967798655603115 1 2 0
97 0 1 0 -0.9490013420347457 11.772038962779895 1.1924073760432812 -1 -4 0
1291 0 1 0 0.6991028504414601 11.60875043752866 3.79452076846061 0 -1 0
775 0 1 0 4.135507409673169 1.9534608271142337 13.351901887866907 3 3 0
2366 0 2 0 10.1139830754962 10.440786237054377 0.3800052247740249 1 2 1
687 0 2 0 7.056878608233079 13.482063079249055 7.098660114493854 0 -1 0
2496 0 2 0 3.6626634174989863 0.9855032175303082 3.0907697596625585 0 1 1
834 0 2 0 9.77865335995387 -0.7495005747401673 12.354754424478465 1 2 0
310 0 1 0 7.899503609707429 8.12348675020927 -0.605915266045375 1 -1 0
272 0 2 0 1.5358336792720633 19.887832460181464 3.2594411833475228 1 -3 0
531 0 2 0 0.37923468487398243 6.7510260601268826 11.821606438328162 -2 0 0
1132 0 1 0 5.099400630206427 5.099259084551852 10.695299012795251 1 2 0
954 0 2 0 -0.4940551789564804 2.1225473263276395 1.0676952940764894 0 -1 0
2178 0 2 0 4.3353929585673 -0.6539141195158833 7.162894484856663 0 0 1
204 0 2 0 7.640455128113234 11.121243265852328 0.39733321164111457 1 1 0
994 0 1 0 5.928979071182136 1.913606076778637 8.705034375084077 -1 1 0
282 0 2 0 -0.7482486400484485 3.4375724776661913 11.677612508676306 1 3 0
1075 0 1 0 12.685831694215695 1.5012101900940498 5.718129619532075 2 1 0
769 0 1 0 5.148439833636336 8.643255292307424 0.8751167109623157 0 0 0
675 0 2 0 2.2897265332913133 5.294055370160874 11.77625921043019 3 0 0
2475 0 2 0 10.31235474252294 6.147834245414894 14.520472805343895 0 -1 0
750 0 2 0 9.333268547751125 -0.17001060019572822 14.983184875117031 -1 2 0
277 0 1 0 7.934013510522512 5.9650135695220925 11.549084941845255 0 0 0
1285 0 1 0 -2.6135634176678364 8.43247354486271 11.677639514322761 1 -1 0
540 0 2 0 -4.81653089639895 11.08879363315975 11.646737925504413 1 -2 0
328 0 1 0 13.651190534907872 0.8457242556038187 8.680255031850491 -1 -4 0
317 0 2 0 12.465465587510108 2.60486552869404 0.9927301815147613 -2 3 0
949 0 1 0 -1.9668124126931228 15.185172303618437 10.314147461224517 1 -2 0
2294 0 2 0 -6.122156327867252 13.070606866620746 13.67157842198272 1 -1 1
132 0 2 0 -2.8291450681174584 17.90979463940849 8.651411923924238 0 -1 0
927 0 2 0 -2.0593140948360507 15.931339862024616 4.685245450500496 1 0 0
504 0 2 0 7.316628203812899 15.222632957494351 3.054778230934175 -1 0 0
2280 0 2 0 8.632904286220295 3.343089977819429 2.219500822904918 4 3 1
1420 0 1 0 11.032256727886027 -1.197766753756769 10.999953534984414 0 1 0
197 0 2 0 -0.3286713725946586 17.637179218707654 8.934881221601424 1 -1 0
2379 0 2 0 8.186654053918433 12.840944640978428 10.57548295168138 0 1 1
600 0 2 0 0.6407666265555165 -2.103693960804359 10.12774523755754 3 3 0
78 0 2 0 -0.8101949435927306 3.392293150527628 9.003963653911981 -2 0 0
39 0 2 0 6.565170931515962 16.086058037346998 10.025210249143864 1 1 0
1020 0 2 0 -6.824080499278687 19.19387564405423 -0.3325377616251899 2 2 0
25 0 1 0 -4.673296830283701 14.058310201307489 13.618325425693268 1 2 0
919 0 1 0 5.372712590524619 7.599510040388404 10.245359788095701 -1 -1 0
1052 0 2 0 0.9283650032537594 15.486227784474005 3.901110275368648 0 2 0
795 0 2 0 -0.13873038383761693 -2.507047481466777 14.762769043420514 0 4 0
1489 0 1 0 8.708618301764533 9.056894897272183 13.997595606006177 0 -1 0
239 0 2 0 5.5194391832594 3.0243713786581568 13.18320003097863 1 -2 0
690 0 2 0 7.110431169915864 -0.022304237654024672 1.8519813359960469 -1 0 0
124 0 1 0 -2.6132986274228616 5.425213593836467 2.440968141446216 2 0 0
1236 0 2 0 9.718585042788511 8.685306076844668 3.6831808504286405 0 3 0
539 0 2 0 -5.22116900648472 9.999948267709025 12.626503715427429 1 -2 0
557 0 2 0 -1.0973647846449235 2.4784136456575254 3.944982730675715 3 5 0
228 0 2 0 3.1577869783870445 -1.428840971306823 4.590405025949572 0 1 0
930 0 2 0 -0.059334637163562076 1.6809497980283457 13.421996981918547 1 2 0
392 0 2 0 -0.43175880386300475 5.0953640343559075 -0.18579604389424698 3 -1 0
667 0 1 0 4.000218233736488 16.25768497968202 0.9527597003524473 2 0 0
90 0 2 0 8.980011923574473 12.552208715898363 -0.6051229500553847 -2 -2 0
1201 0 1 0 7.7505570891552305 2.644468818408788 6.687733958044231 1 1 0
1156 0 1 0 -1.6505528240757996 9.879738131175673 3.0023722943583304 2 -2 0
1422 0 2 0 11.369458324652403 -1.5435447826126345 10.118350747230172 0 1 0
1047 0 2 0 8.378635083262527 -0.07567045824834473 3.5172659416614023 1 2 0
1629 0 2 0 5.880141745434905 12.696619278663007 11.6475750590812 0 0 0
498 0 2 0 7.030294728230866 10.548087923245134 2.66224791896758 -1 -1 0
391 0 1 0 -0.6570885631847274 5.72389005384267 0.489963978639115 3 -1 0
240 0 2 0 6.764866859226421 3.973482960464273 13.483572297007123 1 -2 0
668 0 2 0 4.403860349220494 17.039804186004567 0.43833675470434663 2 0 0
1127 0 2 0 8.806248267882953 -0.8357830877253476 6.610655386561634 2 0 1
2305 0 1 0 9.415227779032728 12.061815581093564 2.952249195172168 -1 0 0
1107 0 2 0 -5.19709363982338 19.562364787514422 1.2367435820489838 -1 -1 0
374 0 2 0 2.7982584946445135 -3.1571228909005393 13.350969796910729 2 3 0
379 0 1 0 11.636301884550901 4.9213445261162185 9.79257931629107 1 0 0
478 0 1 0 5.761267910794221 14.452701805938938 2.1613146662788743 0 -3 0
393 0 2 0 -1.2991886958142094 5.34754690964467 1.0206928040691763 3 -1 0
673 0 1 0 2.7294794059506944 4.500794633346213 12.061679530680106 3 0 0
1051 0 1 0 1.3126168932254427 14.677530006838506 3.6586879564208887 0 2 0
1150 0 1 0 1.724635197323567 3.8234940236011936 0.6547083598773029 0 1 0
652 0 1 0 5.935550735984646 7.293500807357259 13.73467363677785 0 -2 0
1171 0 1 0 3.312034198066709 11.887188858357643 7.210570887050146 -1 1 0
825 0 2 0 2.009973348761631 12.539419664222068 2.6501619313821703 0 2 0
1038 0 2 0 1.6047876963614174 16.694332658317986 11.641112758970067 1 0 0
1160 0 2 0 7.3021676646971505 9.622265528399698 15.188399451389389 5 1 0
848 0 2 0 5.43879463222528 9.199256050852402 5.502781146846932 -2 0 1
717 0 2 0 -3.12927976546319 8.379643468981214 7.333692998837504 0 -1 0
810 0 2 0 0.9955096904188178 -0.7418343149941327 5.903196263141414 0 3 0
32 0 2 0 4.098816235013351 3.525613487709733 5.925943239142183 1 0 0
986 0 2 0 12.693404761435037 -0.6394203304561983 8.272210015860235 -1 -2 0
430 0 1 0 14.220320648208158 0.13016033822123552 2.9457562279059784 0 3 0
2198 0 2 0 11.112820906849384 2.10418625794665 4.974949719506834 0 0 0
468 0 2 0 2.5911023790941208 9.167832624821882 9.597096623724862 1 -1 0
1235 0 2 0 10.922433117012249 8.511920302228111 4.506583718921951 0 3 0
133 0 1 0 8.368625036167213 9.938249555334519 8.792817028414118 -1 -2 0
616 0 1 0 13.180447412110812 -3.844782581512071 14.954509388816527 2 2 0
950 0 2 0 -2.311411959512709 15.909644201637022 9.76316446018085 1 -2 0
1293 0 2 0 0.034697090046315604 10.906211368347726 3.7712112827979913 0 -1 0
1037 0 2 0 2.7681744225628315 16.014174146189067 10.692762930503976 1 0 0
423 0 2 0 9.900571020287977 10.515409533560002 5.180390492966055 1 -3 0
669 0 2 0 3.0030981734084365 16.22927015888819 0.890885185855987 2 0 0
413 0 2 0 7.442800368656072 0.9177138139514147 6.809357310733907 2 -3 0
2343 0 2 0 3.6613275841212025 12.238317169786457 0.7538299902128613 0 -1 0
935 0 2 0 0.34439173700408393 9.125459975707738 12.30244986532844 2 1 0
821 0 2 0 1.0935263769987567 19.307039612846083 -0.39988255055472705 2 -1 0
1202 0 2 0 7.4048288458850395 3.379159294471089 6.161008615629773 1 1 0
924 0 2 0 3.1871337433680327 3.9981016766111925 2.2415388673329195 3 3 0
139 0 1 0 -6.669723415166522 18.27178442221149 7.891549578991064 -1 -1 0
983 0 2 0 2.2964317465483486 9.588347273741702 13.092073660087598 2 1 0
730 0 1 0 -0.39305792315745514 8.686929533218983 8.544077497257737 -1 0 0
184 0 1 0 7.171549401438004 -1.8319798714311837 13.748918137081477 1 -1 0
329 0 2 0 13.846375431663889 1.2038031996640282 7.78290792820094 -1 -4 0
183 0 2 0 8.175909200606947 15.738639808452445 0.8596343006603264 1 3 0
955 0 1 0 3.406082351452696 1.1300744331748178 -0.23659904081145 -1 -2 0
245 0 2 0 0.8781835006379821 6.721067460778567 0.494901362115729 0 2 0
401 0 2 0 7.6358718326025885 1.1885425480648548 9.046041554317497 4 2 0
385 0 1 0 -2.8824940928997287 10.880511931645122 9.372824340859172 0 0 0
1079 0 2 0 -0.33003227418413494 13.8124814540998 3.108932043144846 -1 1 0
606 0 2 0 6.62218457164233 5.730575613171498 6.04059336569742 -1 0 0
1002 0 2 0 -5.788373651028062 17.195151399320103 4.191577401489375 0 -1 0
1041 0 2 0 0.979310991752308 5.49425060586056 6.743487474284524 4 2 0
414 0 2 0 7.4577738152099045 0.3107741945034572 5.386666346239982 2 -3 0
497 0 2 0 7.008071619048926 9.812769965261673 4.0863414734086305 -1 -1 0
1058 0 2 0 1.6062167374231904 2.982652700887341 11.8594837069065 -1 -2 0
1044 0 2 0 -5.220038890224591 12.436096333073827 6.371288123546029 0 0 0
1469 0 2 0 2.514825291074331 17.01862529566357 6.455242466716483 1 -1 0
114 0 2 0 3.1910022862697356 18.20885067423802 2.8863647173365075 0 -1 0
1178 0 2 0 7.698491554557151 16.418427655743912 5.111642143039865 -1 -1 0
416 0 2 0 4.677248578283995 8.845256585672606 12.910298071994513 4 4 0
781 0 1 0 -1.7509343914466413 18.7032705857951 -0.7622439415471406 2 -2 0
715 0 1 0 -3.138894941248523 8.87075878371735 6.518771945726311 0 -1 0
1470 0 2 0 3.295482243159571 17.15504288562496 5.150891514610787 1 0 0
318 0 2 0 11.840459398912811 3.8841626219463548 0.4658859258180643 -2 3 0
299 0 2 0 14.680621434643273 -2.721821698739884 7.701305002956216 -1 -1 0
327 0 2 0 14.657354284875671 -1.9429598135944306 11.101227683257326 1 1 0
1432 0 1 0 3.0769591464909665 13.250750109903185 9.54666843790934 -1 -1 0
783 0 2 0 -2.4215168924075288 18.221309596531952 -0.255074778203356 2 -2 0
2255 0 2 0 11.52199843826193 5.874519602502042 7.694035512243058 0 -1 1
939 0 2 0 1.2703774453649144 13.791900672316938 10.000073396213764 2 -2 0
98 0 2 0 -1.618108261394998 11.968479193937645 0.5462431602476827 -1 -4 0
1490 0 2 0 9.110719688915696 8.145643856991601 14.225726827933212 0 -1 0
1146 0 2 0 5.178867316306529 12.279905887816845 14.524363098964772 -4 -3 0
128 0 2 0 -2.298023932820466 13.115322308071548 4.272502754437422 -2 -1 0
280 0 1 0 -1.4683058919393566 4.032356090121621 11.858385440094843 1 3 0
937 0 1 0 0.2988889099344414 13.55719110936667 10.061653368232635 1 -2 0
496 0 1 0 7.097565754677897 10.643468162464393 3.6120508046693445 -1 -1 0
709 0 1 0 -0.7120196100654619 13.107524064922039 7.481581495483017 -2 -2 0
26 0 2 0 -4.770159443271013 14.949632140365372 13.231109390820006 1 2 0
464 0 2 0 -0.4979190411973998 17.47231573598935 2.9583516428893537 0 -1 0
387 0 2 0 -2.5440987943088853 11.292559660072417 10.19004499720619 0 0 0
1593 0 2 0 1.625326010927103 13.11933515022773 13.892003836173066 1 3 0
1700 0 2 0 1.818702819929284 7.437302528872918 3.7452282794604885 -1 -2 0
220 0 1 0 0.36435242875898977 17.485643685262826 4.794487954317235 -1 1 0
868 0 1 0 7.845663616579212 4.3625400038866715 14.46791075125772 0 0 0
1036 0 1 0 2.519907455065682 16.291927677958014 11.634040206618431 1 0 0
487 0 1 0 3.68679795684333 10.536878626728615 10.028646409104182 0 1 0
657 0 2 0 11.075939336550949 4.103643652671154 4.369109843532493 2 5 0
366 0 2 0 6.021548105759279 -1.3581334275720736 6.579190859112106 -2 1 0
861 0 2 0 7.936312400698772 -2.669680029752257 15.149636980499336 -1 -3 0
685 0 1 0 6.506305589146039 13.693091457364911 7.851645182032884 0 -1 0
502 0 1 0 8.077490381297464 15.40785191490923 3.668687337086375 -1 0 0
999 0 2 0 10.925640738689346 2.2021161455278406 8.937264435148558 -1 1 0
306 0 2 0 4.623544490874089 1.4040951290714494 4.9150179832574805 0 -1 0
1053 0 2 0 1.8782091322163246 14.419492784400887 4.4159477320245974 0 1 0
295 0 1 0 8.499441776648977 2.1823032606227546 11.85066749077883 2 1 0
910 0 1 0 3.886532415996109 1.7089437266824672 10.738874327293946 1 1 0
134 0 2 0 7.539319808237544 10.393079446377053 8.489306224016211 -1 -2 0
1238 0 2 0 10.142181387043243 -2.8404964281678664 14.821643303642183 3 1 0
885 0 2 0 12.479711288391053 -1.920086678951725 11.693908368349561 1 1 0
415 0 1 0 4.306151544844893 9.634971729059139 12.492198787782222 4 4 0
951 0 2 0 -1.8541227956303494 15.519069508945805 11.18953070704777 1 -2 0
623 0 2 0 -2.871043029976545 7.5819535256394675 -0.7552080486131982 2 0 0
823 0 1 0 2.415409467394686 12.84410375325075 1.8473873996249148 0 2 0
1163 0 2 0 8.924036071663402 -2.9865063954261073 11.357581278381533 -1 -1 0
1270 0 1 0 7.513595491785007 9.076212580862103 11.555486340078744 1 -1 0
2365 0 1 0 10.312324580760157 9.814978386416023 1.055228272263953 1 2 0
688 0 1 0 6.563652244947299 -0.15508216596695396 1.046387225377206 -1 0 0
1591 0 1 0 0.8447722134628091 12.675049493074795 14.283026994887681 1 3 0
106 0 1 0 10.366647953038884 6.414337360370274 1.9554808289907304 -1 -2 0
249 0 2 0 -3.780750562423858 11.674131068855125 -0.7161707055136917 0 0 0
2494 0 1 0 3.062997942188767 1.258183530870631 2.3605856212488634 0 1 1
1603 0 1 0 10.424979449946797 4.375566633963877 12.042245094874714 -1 -1 0
400 0 1 0 8.457259582817066 0.8139855652071284 9.441878878142445 4 2 0
476 0 2 0 2.021835352064903 1.9994446862544581 15.463693046891928 -2 -2 0
587 0 2 0 2.5807370096042237 6.4854738345925425 15.067672024417506 -1 -1 0
1162 0 1 0 9.326013580166752 -3.5870553418779694 11.988112677347466 -1 -1 0
1030 0 1 0 3.5317380138356635 13.887660930448533 5.105538706509047 2 0 0
1072 0 1 0 -1.1759770760065198 6.866425520428674 4.919174671385291 2 0 0
47 0 2 0 -2.0191489396459934 16.04949449403073 7.154373027775147 2 0 0
1628 0 2 0 5.490166960909178 14.119044721176646 11.268188418564998 0 0 0
938 0 2 0 -0.1995949886262497 14.380233150003589 10.143460327329366 1 -2 0
719 0 2 0 3.869860811779873 7.622200341580384 6.368171335567824 -1 1 0
900 0 2 0 7.866374890625249 5.052854016345499 1.1712011354675056 0 2 0
723 0 2 0 2.3445636411596347 2.3400808882424924 7.378509684350563 1 1 0
198 0 2 0 0.5709531098898644 16.550894873540688 8.276809678627663 1 -1 0
1173 0 2 0 3.202082127365915 12.598618607420711 6.553952291460873 -1 1 0
64 0 1 0 1.6974030362500294 -0.34278592228588245 13.177923656144982 -1 -1 0
1199 0 2 0 -2.86594908083759 6.004218400066937 9.72665400298519 2 -1 0
1128 0 2 0 9.337798542215724 -2.1705130977420906 7.193628711309687 2 0 1
66 0 2 0 2.511864101946173 -0.6903449743288306 12.843504334856757 -1 -1 0
2388 0 2 0 -4.95296351468601 13.783386494575462 3.020072046146267 0 -3 1
1126 0 1 0 9.642998247225561 -1.3738670731099738 6.734757092127424 2 0 1
968 0 2 0 13.842938329383491 2.2850340745287223 -0.6975237383967318 -1 -2 0
2229 0 2 0 -4.323303505878261 18.763486937344826 3.1742978569844134 0 -1 1
1248 0 2 0 12.57300387362534 -1.9319334104229076 5.570496004139767 0 0 0
585 0 2 0 -2.208229183438498 13.005948971184997 14.939798129168976 1 0 0
1068 0 2 0 1.8667132761324112 10.215764859842249 6.857188342537855 1 0 0
2306 0 2 0 8.597073238851648 11.791267691079412 3.395934570399115 -1 0 0
794 0 2 0 0.14945912604657896 -1.4043746337708254 13.8272596625808 0 4 0
1287 0 2 0 -3.264476743321415 9.067791479165887 12.045806303932377 1 0 0
1166 0 2 0 4.301089900756696 11.53403292731294 3.7017434549904813 1 0 0
2386 0 1 0 -5.0841304786417725 14.762623510079314 3.104941822710355 0 -3 1
488 0 2 0 3.266498678643165 11.451522246577433 10.164289226412212 0 1 0
614 0 2 0 4.683016729602068 3.565528269088177 -0.3029052872576199 -2 -1 0
809 0 2 0 -0.20709422133504923 -0.4685529937236801 6.796895954120508 0 3 0
844 0 1 0 7.66587329067554 -2.163057787679202 9.808824895224195 1 3 0
921 0 2 0 4.528917784221106 7.91775909059099 9.861913141783193 -1 -1 0
1145 0 2 0 5.399649232598549 10.8506120221593 15.086338440095044 -4 -3 0
1222 0 1 0 10.024037730847501 2.7516077030922306 14.884841589163177 -1 0 0
160 0 1 0 5.6128725427531245 2.6948326072650115 1.2507793185892928 -2 -1 0
985 0 1 0 12.331424204715724 -1.5406713436710622 8.399309713128345 -1 -2 0
1262 0 2 0 -5.196078941220979 15.485413155560146 5.748987704863336 0 -1 0
107 0 2 0 11.19058939535672 6.622896754996944 1.5495815663268515 -1 -3 0
1234 0 1 0 10.416985658813713 9.214678033548704 4.0307588018129445 0 3 0
143 0 2 0 9.714812801113922 1.4462888652459256 -0.6950521280066251 0 3 0
676 0 1 0 -1.7195049173499946 8.353569999911498 0.484058474948883 3 4 0
31 0 1 0 4.646657203292308 3.254432577545181 5.171177412527201 1 0 0
926 0 2 0 -2.2591055480708127 15.342880183937408 3.2495142231292533 1 0 0
1263 0 2 0 -3.766178172837546 15.213325132174766 6.235495409503537 0 -1 0
584 0 2 0 -0.7043838939964611 13.364567124101818 14.779634334756842 1 0 0
586 0 1 0 1.6455258002692128 6.715741470636326 14.845760649394025 -1 -1 0
76 0 1 0 -1.417826597794578 2.6738764572984226 8.771194472502009 -2 0 0
1491 0 2 0 8.03762504933434 8.852762140753708 13.294402840436684 0 -1 0
1205 0 2 0 9.83530217993095 6.415220001004242 6.102140430036698 1 2 0
1066 0 1 0 1.2255321085689657 9.552327115078102 6.660524457680166 1 0 0
297 0 2 0 8.359597255649943 1.971261384148769 10.93280658498777 2 1 0
530 0 2 0 1.4460820078436054 7.219305713587538 10.800135546857963 -2 0 0
2193 0 2 0 2.752033437904426 14.951452624250223 12.84450486304145 -1 -1 1
776 0 2 0 3.479919884705839 2.1954603111871034 14.052724318958584 3 3 0
46 0 1 0 -1.7374833946103418 15.585242020474297 6.354912278800516 2 0 0
1050 0 2 0 3.4852185318616775 17.805454112843993 9.125593832594104 1 -1 0
1247 0 2 0 13.164668318612994 -1.398919557088916 4.199094148569899 0 0 0
828 0 2 0 3.6869096464317086 5.901019492983046 2.9473871836152794 -1 -2 0
1244 0 2 0 6.06416376833062 11.90576709194235 8.222760746359787 2 -2 0
150 0 2 0 -0.11119844878781204 12.330863683475062 11.29340006206142 0 -2 0
674 0 2 0 3.3890761027758 4.396265269521183 11.355775261840815 3 0 0
784 0 1 0 1.2206561100622606 11.170769154846784 -0.4955109378611092 -1 0 0
158 0 2 0 -3.156024260497084 6.13093907878512 14.601832489687492 0 1 0
2269 0 1 0 12.563492565502429 -0.5816475824754077 14.496905361322526 1 1 1
912 0 2 0 4.708865056024033 1.8541172784040718 10.233249579795286 1 1 0
202 0 1 0 6.789183232301799 10.875407166206216 0.8827381683873661 1 1 0
477 0 2 0 1.6114702549438498 3.3623003031011844 14.82390617970899 -2 -2 0
432 0 2 0 13.440467193468864 0.7000014633392024 2.939958845925476 0 3 0
793 0 1 0 -0.5951547276786426 -1.9387168501982783 14.11717366706026 0 4 0
1495 0 1 0 3.731082481419069 -0.9604406869129001 11.273558104256132 1 -2 0
74 0 2 0 2.043515758406959 -3.2972974726317985 11.369684768161596 2 1 0
1104 0 2 0 -0.27154509263192483 10.232799298920686 6.358570097063226 1 0 0
1134 0 2 0 5.238755799895778 4.819568837927909 9.784452252679396 1 2 0
884 0 2 0 12.795659696094724 -3.486963153483393 12.068230741271599 1 1 0
436 0 1 0 -4.628116112309391 16.0403320020707 11.624410089560428 2 0 0
984 0 2 0 1.776242591869551 8.302390713914582 13.839024187023357 2 2 0
2235 0 2 0 -3.3532145801460014 12.846565701559882 6.7135602318298595 0 -2 0
2367 0 2 0 9.486587652768643 9.428301417161439 1.3466770286275702 1 2 0
1627 0 1 0 5.1246806957664335 13.314668500147341 11.56978205343597 0 0 0
1078 0 1 0 -1.2490937688613692 13.992795901570556 2.793813575072603 -1 1 0
905 0 2 0 8.731733386996254 7.222871152555996 2.2832008332437383 -1 -2 0
2472 0 2 0 9.043250856668491 12.776013150019661 5.6612249744880625 -1 0 1
815 0 2 0 -1.8725633416585579 17.002727314953596 1.3817846678338013 1 0 0
1286 0 2 0 -1.7171768707624673 8.843182750904003 11.664902084098541 1 0 0
127 0 1 0 -2.943026636500234 12.643013839903084 4.790267622658512 -2 -1 0
1147 0 1 0 0.2844758824911171 4.404842831378937 14.278897235112765 0 3 0
279 0 2 0 8.205740614647866 6.878022807621013 11.390906189671664 0 0 0
2507 0 2 0 11.886404812578954 1.0800333268194597 -0.6595733376941577 0 1 1
911 0 2 0 4.028558010248381 2.034209488339081 11.638694425981464 1 1 0
1138 0 1 0 -4.602077139237046 11.97912098547635 2.554237600455939 0 2 0
1102 0 1 0 -1.1078934518059518 10.748712611375902 6.2327528981667255 1 0 0
2342 0 2 0 5.1742077958540875 11.892355351577617 0.6261932215632946 0 -1 0
599 0 2 0 1.865295629818681 -2.5901930777161972 9.422445227684165 3 3 0
129 0 2 0 -2.320032322744492 11.95999054483002 5.12321975453666 -2 -1 0
979 0 1 0 -3.8910693138954806 8.665634202753253 3.0389774401527583 0 1 0
653 0 2 0 6.063515218481557 7.346949656711489 14.739425143667768 0 -2 0
922 0 1 0 4.016567218943018 4.213476164747496 2.75420354250694 3 3 0
148 0 1 0 -0.6785097582100352 11.999220298014011 12.01702564779671 0 -2 0
2559 0 2 0 11.945026841389563 1.0907789346232386 13.521766360236208 0 0 1
1076 0 2 0 13.22219559101627 1.9390879841253876 5.06602000387899 2 1 0
598 0 1 0 1.5875542564438918 -2.156155743335555 10.249731476075917 3 3 0
364 0 1 0 5.309441878521453 -2.059699740336306 6.630548034999788 -2 1 0
2279 0 2 0 9.469250707144933 2.246386365478319 1.5062313910912533 4 3 1
2185 0 1 0 1.5085075083265496 15.94195175494418 0.4069191940172112 0 -1 0
1103 0 2 0 -1.8155220463661188 10.11700506701743 6.299781945222144 1 0 0
656 0 2 0 12.399836824249183 4.932810101274168 3.822829676583974 2 5 0
1720 0 1 0 8.197687467424286 13.800836852917937 0.8592716232470305 -1 -2 0
997 0 1 0 10.401844465237826 2.239676875113255 8.134518025558185 -1 1 0
1000 0 1 0 -6.483943242343851 16.836661102209757 4.714799756870316 0 -1 0
1045 0 1 0 7.554270338337686 0.4389958557554736 3.4333217091585952 1 2 0
465 0 2 0 0.7705225938125821 17.868387468926773 2.234229386636887 0 -1 0
1198 0 1 0 -3.1377474002552797 5.145493065707019 10.078620799204831 2 -1 0
684 0 2 0 -1.1274763390583125 6.762609332247863 14.587609408066431 -2 1 0
1721 0 2 0 7.329739017071903 13.871022674780415 1.2610915351210386 -1 -2 0
34 0 1 0 -2.592557049323405 7.652965155072363 8.97297730845432 -1 1 0
594 0 2 0 2.6465066873549206 10.187674417049926 2.092782866671529 -1 1 0
402 0 2 0 9.185528609127102 1.206433881097278 8.885627043302538 4 2 0
2495 0 2 0 2.3086490431080144 1.4931369696256962 2.925982393679655 0 1 1
2234 0 2 0 -3.5025214024661735 11.923720928533516 7.899649359886903 0 -2 0
437 0 2 0 -5.5484786015407535 16.360511172703482 11.733564310361166 2 0 0
747 0 2 0 -5.115491126729218 13.631102242009 9.679625405809187 0 0 0
846 0 2 0 6.948904600477332 -2.2057109512184248 10.391110894522749 1 3 0
135 0 2 0 8.171060196921307 9.007716130411739 8.69542711448667 -2 -2 0
161 0 2 0 5.609750323467059 1.7451029028473122 1.4321738893219935 -2 -1 0
1106 0 2 0 -3.716738403390838 20.18321666699737 1.4792415348432355 -1 -1 0
373 0 1 0 3.2231623644616394 -2.862776810134643 14.19754690109219 2 3 0
678 0 2 0 -1.748431207271455 8.768508532164129 1.4362395490075577 3 4 0
1605 0 2 0 11.025291416131614 4.572503662915497 12.85222994587617 -1 -1 0
2192 0 2 0 3.5941273278945194 13.582304573794408 12.92284061983271 -1 -1 0
699 0 2 0 3.5676726283065445 4.8327388125310815 13.955976973076112 0 1 0
2471 0 2 0 8.094646407409114 13.926119650016314 5.06979579294801 -1 0 1
894 0 2 0 0.3329094256145042 1.1599276870390436 8.748143747389722 0 -1 0
847 0 1 0 4.695196519917544 8.7373851651396 5.101657823418864 -2 0 0
221 0 2 0 1.1034449579607604 17.923668023954612 5.188848008761726 -1 1 0
2387 0 2 0 -4.3441702482696645 15.170087598629165 3.5205307548438327 0 -3 1
108 0 2 0 10.462527682802506 5.5879641508586815 2.4606520962846985 -1 -2 0
916 0 1 0 7.1275528385497635 11.711035387262715 11.9462055405904 -2 -2 0
1268 0 2 0 -4.352627245822748 9.684299895142603 9.29066290517483 1 0 0
1059 0 2 0 0.8203228580616916 1.8629823112555504 11.090475873586575 -1 -2 0
593 0 2 0 1.9740046941811251 9.040309594264365 1.4627119293815918 0 1 0
1665 0 2 0 12.697637330140411 1.4576810668077167 10.079117777876334 -2 -1 0