LAMMPS data file via write_data, version 23 Jun 2022, timestep = 53977000

2592 atoms
2 atom types

0 30.944 xlo xhi
0 21.33497 ylo yhi
-0.8385978803634409 31.811312878384047 zlo zhi
-9.144178 0.9852071830660579 -10.86499790770922 xy xz yz

Masses

1 1.008
2 15.999

Atoms # full

973 0 1 0 0.5735193429223358 6.492645103152217 12.305186494347492 0 1 0
2243 0 2 0 11.156852036859478 3.379903481798274 11.818793251344115 1 1 1
105 0 2 0 -2.2434387217079865 10.748180623726572 10.332827195173232 0 0 0
2306 0 2 0 -2.0740564509736754 8.275578205229229 -0.7408196282194918 0 0 0
881 0 2 0 11.110841743505471 7.623727729385263 5.337208443972439 -1 -1 0
826 0 1 0 6.473738599634834 -0.02331991532545752 1.620282551283244 0 0 0
806 0 2 0 1.9216813625840619 2.885835188345602 -0.6687288641087112 1 1 1
538 0 1 0 8.238871839719096 -1.9516751988772514 12.569856391988097 0 -1 0
934 0 1 0 12.011984072825234 4.72442117418025 2.2550802731321897 0 1 0
409 0 1 0 2.89753601978391 6.995657669133328 9.872358254152235 0 -1 0
228 0 2 0 5.26429980060705 14.08271397025678 -0.6559621414432005 0 -1 0
1071 0 2 0 6.202408412882478 6.266958143555578 5.978727173950495 1 1 0
119 0 2 0 0.06770641165766217 5.120617366927641 0.7915783858914636 0 0 0
1253 0 2 0 -2.7980140432243177 9.76662904676681 8.317611060044356 1 2 0
445 0 1 0 11.881310549534831 7.119587676956359 0.8516721937792522 0 1 0
991 0 1 0 6.3290571428813385 11.334392960492876 1.2408307146977777 1 1 0
184 0 1 0 0.7522166989123789 4.279502385259308 8.113422159773451 1 0 0
267 0 2 0 -1.3155777853461468 17.870768230576857 0.13115136348198186 1 1 0
769 0 1 0 8.298850168858676 2.364912007076746 6.238115796157454 0 0 0
856 0 1 0 -2.292390237668361 6.638436390144172 -0.5609345129887374 2 2 0
540 0 2 0 8.529406315563783 -1.1683962441401259 13.052518661544608 0 -1 0
1030 0 1 0 2.1428176568257875 6.377428343321739 7.11112844360116 2 0 0
110 0 2 0 5.910460549497557 16.95727543767916 5.641476733556103 1 1 0
567 0 2 0 3.2527354886448494 -1.2069913394293268 11.396039633276821 0 1 0
930 0 2 0 3.9618526161840877 15.233192236694265 5.997052990470956 0 0 0
49 0 1 0 1.510254191016817 17.228023496084163 2.9995000530800557 0 -2 0
118 0 1 0 -0.6493600088976501 5.440405108488493 1.3933027392183845 0 0 0
10 0 1 0 2.6740896297917893 1.5946781069502438 1.358326148541774 0 1 0
376 0 1 0 -0.44994975504287027 8.629383941612657 4.814176886493267 1 0 0
772 0 1 0 5.054239788344185 3.39625719956037 -0.18677184870849295 1 1 0
1222 0 1 0 3.8993286179098443 2.0118556597676593 10.4709031777437 0 -1 0
770 0 2 0 7.432063604553764 2.430112429571229 6.742450645094186 0 0 0
1243 0 1 0 -5.065656387297008 15.760736900134106 9.817560009102506 2 -2 0
586 0 1 0 0.3138558596574317 14.586241941150407 6.114814585061148 -1 -1 0
735 0 2 0 -2.8937163717206595 16.24449944379005 14.34055776002934 1 1 0
887 0 2 0 4.832629393993415 7.769246356288416 7.045131442992502 0 1 0
136 0 1 0 3.1632654352207097 14.527903970394942 14.19472668505745 0 -1 0
200 0 2 0 11.8928973952258 -1.750167450525701 6.74280720952525 0 -1 0
1087 0 1 0 4.524058046330361 -0.4693756554101469 14.47803734625778 1 2 0
687 0 2 0 -0.22732299055659816 7.8666852413447685 8.878628444377787 0 0 0
263 0 2 0 9.201149333231136 11.057458115209903 5.984423622969482 1 2 0
681 0 2 0 3.546100944415394 9.385294857966038 15.214961748196863 0 0 0
1091 0 2 0 7.091304923749495 14.473905457955885 14.619580774379969 0 -2 0
1418 0 2 0 5.405997206176469 7.596876487875152 13.135525065453313 0 0 0
1044 0 2 0 7.3531064228094385 4.811219207048236 9.209994848591025 0 1 0
1173 0 2 0 -3.6306619096971713 8.00357682522153 11.536889151016487 1 1 0
1167 0 2 0 9.744694993735077 10.693003148055437 3.8389724505573843 1 0 0
1270 0 1 0 1.6945531905515459 9.043638087029706 6.385871769283946 1 1 0
378 0 2 0 -0.39905036338867084 8.000032817532015 4.068203532391179 0 0 0
1017 0 2 0 6.864917474040854 5.813107222611149 11.55258713716762 0 0 0
1419 0 2 0 6.65882821921198 8.128127114669038 13.82758527642114 0 0 0
202 0 1 0 -1.377617952741215 10.90881351830313 1.338177728565758 0 0 0
1015 0 1 0 6.036426197641949 5.3372631106680375 11.51604664153331 0 0 0
407 0 2 0 5.228265719286105 15.007554419651928 3.932435709547927 -1 -1 0
970 0 1 0 9.030749814123094 0.3984294981229741 13.996198886532225 0 0 0
795 0 2 0 9.296445791216543 1.2630393526719157 9.908762915737798 -1 2 0
178 0 1 0 -5.212605078138776 11.311043895338006 13.180722062346987 1 -2 0
821 0 2 0 5.556752133020043 1.36166779973514 10.258331396168892 1 1 0
1291 0 1 0 9.34305361770436 3.1271337873919904 1.681981237871815 0 -1 0
147 0 2 0 2.769257346457553 4.8937179540013735 0.639224954711181 -1 -1 0
1059 0 2 0 1.4108040572417764 12.304177793416255 5.4428870694876785 0 -1 0
2295 0 2 0 -1.8405302570664919 7.1901999454148084 14.990488682330138 1 0 0
945 0 2 0 10.809686284176163 0.9270618750257702 6.250175230115418 3 1 0
625 0 1 0 8.168837382679573 13.435003266838532 11.956218744159361 1 -1 0
571 0 1 0 -0.3783621470132032 17.24974044662246 10.200388086155575 1 1 0
1054 0 1 0 6.471304152116367 17.397243719249516 0.018408297706450694 0 -1 0
2221 0 1 0 1.8238074446158246 8.909335941358552 12.22315882939909 0 0 0
259 0 1 0 -2.658014833600969 12.3877971087302 12.861457346122357 1 -1 0
774 0 2 0 5.939695680291813 3.564094256414141 -0.5556899694347037 1 1 0
208 0 1 0 2.6212856387210275 16.013524722958152 11.2635914669234 1 0 0
58 0 1 0 -1.604799273553535 2.396620974725367 10.575180691632898 0 -1 0
358 0 1 0 9.483761231901132 -0.012209712590969035 5.131987494483395 0 1 0
1485 0 2 0 -3.6527741521319532 12.958217995691944 6.1809365552441555 0 0 0
1204 0 1 0 2.8447603847088447 19.022865051120295 4.996417483950215 0 0 0
1677 0 2 0 4.684698748121533 4.644275156930826 15.089390850316063 0 0 0
773 0 2 0 5.10500388556772 3.8302632730080433 0.7356679470842014 1 1 0
1000 0 1 0 10.87189838314933 -2.0463269099373926 10.081232645755462 -1 -1 0
1165 0 1 0 9.877254715777202 10.369164886994122 2.906172207308821 1 0 0
971 0 2 0 9.54976858224955 -0.058824109207264996 14.690835617903051 0 0 0
282 0 2 0 7.547149316471895 -1.5427040078957641 10.972058578653064 0 2 0
1184 0 2 0 -5.763388605527498 13.677516827006215 -0.1478718143173282 1 0 1
802 0 1 0 -0.6227132905858174 18.238564182036818 2.0615365999923396 1 -1 0
1159 0 1 0 1.2820429554547392 3.5803572257949305 12.439783799039093 2 -1 0
836 0 2 0 -1.5122160589973315 6.663586452959662 7.528693389123774 0 2 0
1292 0 2 0 8.610192374482834 3.7509091750910666 1.8368587060341093 0 -1 0
1555 0 1 0 0.6434258272844817 15.215156497146648 14.485354789232588 0 0 0
793 0 1 0 9.491313456113735 1.580167977138348 8.968126397530256 -1 2 0
547 0 1 0 -0.9219407359186866 1.423536468472447 14.185561610286792 0 1 0
1142 0 2 0 8.74261359088548 3.6675239145160314 10.548931132413 -1 0 0
424 0 1 0 6.632304125566356 1.3859204669792033 14.806061895508716 0 1 0
1199 0 2 0 -7.367141097552526 20.422103664574923 -0.1565185566848022 1 0 0
3 0 2 0 -3.5467599839670947 5.853274948288058 11.539039533550692 2 3 0
639 0 2 0 8.28459575280252 9.456874988964088 15.095950546884428 0 -1 0
952 0 1 0 2.621390402706199 -1.9610424352071356 6.258797133092032 0 0 0
662 0 2 0 -1.7266041037414075 17.343401471278828 7.3631434982811275 1 2 0
967 0 1 0 3.5114323062639876 10.539284967594304 10.562910537000514 1 1 0
804 0 2 0 -0.14367567194563025 19.11472017937673 1.939892393214607 1 -1 0
1082 0 2 0 0.5733210240686096 15.349446146628848 9.049457335841325 0 0 0
199 0 1 0 11.999292719286906 -1.6252803700996914 7.710446967500422 0 -1 0
604 0 1 0 4.69271751548931 16.584233339347524 13.295792053798893 -1 -1 0
1208 0 2 0 -0.45002400812170074 18.66340344694425 6.211059991013729 0 -2 0
180 0 2 0 -5.414302086005737 11.21752104932706 12.238207833495968 1 -2 0
1197 0 2 0 -0.8903329175044601 10.94515517329547 7.702019125532141 0 0 0
711 0 2 0 2.5806341763263525 3.8499445886668964 7.435909204366078 1 0 0
104 0 2 0 -3.512667708468319 11.57056686357014 10.252114135267165 0 0 0
269 0 2 0 -0.5105238973751467 10.762223943447252 4.140236046376207 0 -1 0
629 0 2 0 8.201206679497925 13.923534862513446 6.546166864244468 1 0 0
441 0 2 0 4.536537029648877 -1.5171607473077793 8.828518422933275 0 0 0
285 0 2 0 6.92781255287233 3.884757575686722 14.070237972201534 -1 -1 0
166 0 1 0 0.1505288715689991 5.671824642271012 3.9298062277391477 1 1 0
2185 0 1 0 -0.7920458811073816 8.427347000263575 2.25681259117153 0 0 0
569 0 2 0 6.538681309943297 9.00563086954109 6.034581709517798 1 0 0
144 0 2 0 4.3292152294899555 13.692331468462672 7.584901931186293 -1 2 0
1250 0 2 0 -3.158780385214559 15.476606493677867 1.2344400875301575 1 0 0
1110 0 2 0 -5.799011692493336 14.844179779280717 14.284601175324035 2 1 0
1276 0 1 0 3.1382723189466564 3.168190359882882 4.105320868299917 1 1 1
636 0 2 0 -1.5419560449199319 5.377009531545017 10.101619278525533 0 0 0
116 0 2 0 13.112987977409361 0.8915289967452207 3.028760211543504 -1 0 0
413 0 2 0 -1.6511766348478205 2.0860276351869187 7.071851996031987 2 -2 0
1218 0 2 0 -4.283422275562525 12.017893915064121 2.065274496038356 1 -1 0
405 0 2 0 8.44663524985901 14.760022319460578 2.485867515078897 -2 1 0
616 0 1 0 3.50168822866609 10.801597149639605 7.888664675979564 2 3 0
221 0 2 0 2.2169853614962554 10.16041168082019 2.990988605088354 -1 1 0
1055 0 2 0 6.772857282909154 17.584655162940287 0.9293624577067601 0 -2 0
1108 0 1 0 -5.065305896886651 14.241352135333539 14.061961286112858 2 1 0
327 0 2 0 3.882068464659965 11.75449721138137 12.995510547911804 0 -2 0
1099 0 1 0 6.5295993458434545 16.243592722040134 7.901549437497698 -1 -1 0
134 0 2 0 -7.4704734270468585 16.38391999905316 11.799460076375302 1 -1 0
182 0 2 0 5.844398429064075 11.601567385235754 4.161239992242307 0 1 0
1192 0 1 0 7.82966366185593 8.116811750959188 2.8502927894838415 0 -1 0
921 0 2 0 3.7154912179140713 0.1988834896769358 4.322293459673761 -1 0 0
860 0 2 0 3.2331141369182186 3.019559035579694 13.48593637009119 -1 -3 0
1001 0 2 0 10.823010165540325 -1.9531336731250841 9.12651114074928 -1 -1 0
469 0 1 0 -2.2543850206756253 14.44600079788641 8.775132190194974 0 -1 0
481 0 1 0 -7.00453548508969 13.296591447836292 12.059166930204691 -1 0 0
1271 0 2 0 1.0370534255673223 8.701254143833234 5.779359553981188 1 1 0
923 0 2 0 -8.612407898618388 18.245389674551944 8.257081619648483 2 0 0
142 0 1 0 5.012495113752287 13.10947934364671 7.943195426818669 -1 2 0
530 0 2 0 3.61734659277331 12.917238000983396 0.6047372122050361 -2 -1 0
37 0 1 0 6.429417774921496 9.03339025510005 9.30495116132622 2 1 0
305 0 2 0 8.736227274078256 6.904279752279746 12.57628896455637 -1 1 0
1145 0 2 0 11.812264025606819 4.493514697368072 9.401167482193642 -3 -2 0
51 0 2 0 1.5389220656524847 16.29440276542623 2.8278236929415064 0 -2 0
1141 0 1 0 7.795861054981097 3.51265877176966 10.336694997391438 -1 0 0
1521 0 2 0 1.466181401766198 9.160091013386236 -0.5272025112195997 0 1 0
319 0 1 0 -0.6590686649759979 20.687535064793874 -0.7763114603112754 -1 -2 0
181 0 1 0 6.751432097963534 11.32938056996541 3.926716600558552 0 1 0
630 0 2 0 8.16082944344952 12.693982999833601 7.583011616641253 1 0 0
43 0 1 0 6.876579048981045 -1.9775859171117198 14.914567605488335 1 2 0
867 0 2 0 -5.044710987973906 13.989497311728696 3.4094302178154514 1 1 0
90 0 2 0 2.538133810096219 14.413374953984786 3.1971167003868475 0 -1 0
320 0 2 0 -1.5220803420310394 20.350697073579916 -0.5063571003804165 -1 -2 0
865 0 1 0 -4.99914190152119 13.771941137202699 4.374614782296888 1 1 0
686 0 2 0 0.00503203260482199 8.915598594035005 9.934252481467139 0 0 0
1193 0 2 0 8.2387994005954 8.933819506022967 3.1112176540694327 0 -1 0
663 0 2 0 -2.999265990488805 17.808610034618873 8.182934537199415 1 2 0
1557 0 2 0 0.296295772750581 15.374718791750759 13.627235183065737 0 0 0
1144 0 1 0 11.409054126969442 5.330004456302822 9.050659595981426 -3 -2 0
975 0 2 0 1.1066179287811906 6.305185687690117 13.11566190521558 0 1 0
873 0 2 0 5.477714913208424 20.328413721799652 1.9141366976165886 0 -1 0
1124 0 2 0 9.889205548614331 8.452327203592885 6.619398272493591 -1 0 0
1231 0 1 0 9.16661551082865 0.47212023414185667 2.234440038249397 1 -1 0
1198 0 1 0 -8.150739171916456 20.920857963572722 -0.395347596486852 1 0 0
565 0 1 0 3.4077689424991355 -1.6773555144903725 12.23798692972136 0 1 0
109 0 1 0 5.727056156697766 17.896193487301446 5.306356609730022 1 1 0
2487 0 2 0 3.3836753318458967 16.77431590993285 -0.30385815518769177 0 0 1
415 0 1 0 -5.432489478324659 11.271379145099337 7.424431402617232 2 1 0
27 0 2 0 11.756003670562215 3.075278079850214 5.705319734765036 -1 2 0
42 0 2 0 -3.976669576641804 17.939269850773343 -0.0904384397927045 0 -1 0
408 0 2 0 6.310638529630904 14.447184302127031 4.912420407238765 -1 -1 0
813 0 2 0 8.88890828216235 7.27398319718321 1.2086728850806692 1 1 0
1432 0 1 0 12.560553114847826 1.9619649661909557 11.488638263885997 -1 -1 0
712 0 1 0 5.240558469487351 -3.623472844341514 11.392854320880327 1 0 0
667 0 1 0 3.676575661416925 13.469837590216963 10.478231324555063 0 0 0
1215 0 2 0 3.789778019676632 1.1590972072410741 5.906907977425456 1 3 0
234 0 2 0 1.3558924675673603 12.871168384025854 11.860497381246255 2 -1 0
953 0 2 0 3.126295196402434 -2.30664232231103 6.990304753817176 0 0 0
293 0 2 0 -2.7543002161264982 13.271014946089547 3.0896038434362394 0 -1 0
628 0 1 0 7.98035693916705 13.706747631373231 7.468828959723087 1 0 0
515 0 2 0 12.577394344735307 -2.3068208743851453 11.185930282881506 0 2 0
1223 0 2 0 3.5856496677775627 2.965170347384272 10.519310004508467 0 -1 0
846 0 2 0 -2.276647437039387 7.315258621683271 2.858124391135656 2 2 0
882 0 2 0 11.29259070948473 6.53692055068573 4.358667869450428 -1 -1 0
1117 0 1 0 1.3560344483291615 1.5882506107071785 8.758463229995854 0 0 0
368 0 2 0 9.039287559798622 6.628085386403106 3.2390192928614168 1 0 0
73 0 1 0 10.752081279900636 -3.6863228546218756 13.230944152186341 2 4 0
14 0 2 0 7.038798827719958 5.283828717263487 2.3592897287376595 -1 0 0
115 0 1 0 12.407712879265159 0.2614363548925196 3.191001076246766 -1 0 0
713 0 2 0 5.672434506221885 -4.169129903210521 12.09035054855779 1 0 0
901 0 1 0 4.051945864539068 15.126355364922773 2.732145061697103 0 1 0
1252 0 1 0 -2.3773388087153187 9.698812619783043 7.4552163537293445 1 2 0
689 0 2 0 -5.838918144756382 19.115568790478125 1.1094133646718918 0 -1 0
273 0 2 0 -6.036915017681948 11.910578144331968 15.056741974016422 1 -1 0
489 0 2 0 -2.9229564692965013 13.90034858204016 10.100860422116112 1 1 0
844 0 1 0 -3.049679522829286 6.894744298630769 3.1819582653977623 2 2 0
852 0 2 0 -0.6737629314882351 15.736648452702227 11.270589414652905 -1 1 0
11 0 2 0 3.5789067457500634 1.399943548026127 1.1584809629892179 0 1 0
439 0 1 0 4.8701159730382235 -2.1593991488813704 8.169360896987065 0 0 0
974 0 2 0 0.8690288471562765 7.3708446273380765 11.950958261167113 0 1 0
807 0 2 0 1.476167994535873 1.418741053441351 -0.7608663661498339 1 1 1
294 0 2 0 -2.3569170758864786 13.410215150185728 4.547036652658998 0 -1 0
1026 0 2 0 12.31300012520181 3.917624828587587 0.9335355254666655 0 0 0
837 0 2 0 -1.6903906720924105 8.221438485093092 7.285021297351081 0 2 0
685 0 1 0 0.05589829914996247 7.946191522337166 9.789492473466138 0 0 0
1025 0 2 0 13.120089396333409 2.680357985125555 0.3795614291222631 0 0 0
1183 0 1 0 -4.866048626940962 13.795955183789324 -0.48269210590967054 1 0 1
835 0 1 0 -1.0426980984925047 7.446723370667007 7.191817993477255 0 2 0
284 0 2 0 6.0267394229537175 4.865600821198453 13.29371928854341 -1 -1 0
216 0 2 0 9.577068444492712 3.255502618745539 14.56725161142875 1 0 0
375 0 2 0 -0.09794526331110076 10.206299663921993 12.805720405448682 1 2 0
186 0 2 0 0.33368256605373037 4.571742151577985 8.938899975465887 1 0 0
205 0 1 0 7.183358115045761 17.7043474011335 2.9525524228263724 3 0 0
241 0 1 0 1.0461676844655556 11.498798668050247 14.950099697267936 0 0 0
214 0 1 0 8.851875847722923 3.2937066683173235 13.944240263043087 1 0 0
453 0 2 0 -2.359016363651519 16.37904209772968 5.1343787292986836 -1 -1 0
925 0 1 0 5.039535524968533 7.356407684644983 3.3189346048991997 1 1 0
88 0 1 0 1.5418912156522522 14.265173758045915 3.2979903646968483 0 -1 0
2222 0 2 0 2.098846449771799 9.435750670997336 11.524648513269764 0 0 1
736 0 1 0 8.58997256269522 11.127313229284368 7.828213692811316 0 -2 0
1217 0 2 0 -4.036126424198133 12.888314757221265 0.8476188201715105 1 -1 0
1109 0 2 0 -4.632932284461736 13.889215685881894 14.854787777911284 2 1 0
93 0 2 0 -0.5779980442999004 14.099898955014641 14.986536641079306 0 0 0
1556 0 2 0 0.4520407945618555 15.948818219354918 15.029955616351694 0 0 0
734 0 2 0 -3.8695989804210686 15.375422327277398 13.501674279457506 1 1 0
341 0 2 0 2.5889016584888283 5.886008414219954 15.000779122334375 -1 -1 0
1234 0 1 0 -0.4437157284398927 10.622373054225205 10.223911045794628 0 3 0
260 0 2 0 -1.9855486601343506 11.684246031100438 12.963202607544828 1 -1 0
1281 0 2 0 1.3877582397604857 17.45415192810659 7.21121280501734 -1 -1 0
909 0 2 0 1.0540392472705118 1.7796023492024968 11.786267915278192 1 1 0
871 0 1 0 5.29548149577937 20.125099318482626 1.000033036764796 0 -1 0
240 0 2 0 4.227074047928492 4.947558025440924 11.468981471603959 1 -1 0
483 0 2 0 -7.228900137454051 14.205996185827445 11.795432192202687 -1 0 0
605 0 2 0 13.458047915457273 -4.158981428828577 12.651413021539275 -1 0 0
622 0 1 0 3.7588634571724695 17.57707711570664 1.45780412236596 1 0 0
738 0 2 0 8.921272114991655 11.30793967535221 8.72828137027868 0 -2 0
460 0 1 0 0.8790894864640441 1.8502394857288686 4.464157709528352 1 1 0
117 0 2 0 12.170772237084554 -0.1644771590611206 2.361480335741375 -1 0 0
1024 0 1 0 12.69548548291442 3.513428204921308 0.07141956839489716 0 0 0
50 0 2 0 0.6064465693556049 17.523500937730727 2.68956783638259 0 -2 0
1520 0 2 0 1.5422243003896188 10.332712553189829 0.5210858810568249 0 1 0
1254 0 2 0 -2.892542282328588 10.213327093708529 6.803110666072624 1 2 0
1088 0 2 0 4.1266911234960535 -0.7090507753692501 13.615595130576928 1 1 0
369 0 2 0 9.597216355757041 5.269729752051479 3.5367493434344413 1 0 0
1 0 1 0 -3.520545015784171 5.250983491379799 12.333645272314836 2 3 0
2186 0 2 0 -0.11616145766752609 8.10881540288457 1.6517537750374056 0 0 1
966 0 2 0 4.296381264421116 6.2937735198366065 0.04607978494417431 0 -1 0
1244 0 2 0 -4.648085693774791 14.970784659448828 10.284581744674682 2 -2 0
2403 0 2 0 14.003149461048594 0.35220336804691954 -0.050490304772646155 -1 0 0
1101 0 2 0 6.831516482826448 16.22787546227541 8.8609469230789 -1 -1 0
900 0 2 0 8.740939650601838 -0.2058953289310912 8.286251547947517 0 -1 0
794 0 2 0 10.37709012268399 1.2710889463189279 8.860320800189069 -1 2 0
133 0 1 0 -7.573135485545175 15.681758700917321 11.081610306484865 1 -1 0
1433 0 2 0 12.596756377551944 1.719298155101523 10.545183689391019 -1 -1 0
159 0 2 0 0.7953323615970223 10.023171544423466 15.429351368853474 0 1 0
861 0 2 0 4.758290157236873 2.818459063664694 13.263857856317692 -1 -3 0
1233 0 2 0 9.212803664769497 1.4091400787063972 2.086087722069155 1 -1 0
85 0 1 0 8.75517258876335 7.6983931763692315 9.204986116019825 0 0 0
606 0 2 0 5.334739624290752 15.996466545536201 12.900703451799222 -1 -1 0
850 0 1 0 -0.8636206215568327 15.201668381925792 12.012440258339065 -1 1 0
220 0 1 0 1.7422441508343085 10.688714538104453 2.333150074339601 -1 1 0
466 0 1 0 -2.6503877603344703 19.514556882784955 3.6284536488678176 1 -1 0
468 0 2 0 -3.5493258117055277 19.237180155256922 3.85859276588314 1 -1 0
326 0 2 0 3.1290299550153775 13.019784010681313 13.43338679618805 0 -2 0
811 0 1 0 9.215989769420773 7.590240192260792 0.3695319009544258 1 1 0
535 0 1 0 4.716597645963399 8.206915276336396 11.411438029458004 0 0 0
820 0 1 0 6.445215644199673 1.0745334246796023 9.9781389907587 1 1 0
624 0 2 0 4.288808965136949 18.374293108983792 1.2703113351850126 1 0 0
903 0 2 0 4.264924824342004 14.578708772209113 1.9213795241132732 0 1 0
204 0 2 0 -2.2053956626481943 11.39991199682577 1.228086754503373 0 0 0
848 0 2 0 13.390479325296697 0.6052811988628211 5.978314125886467 -1 1 1
977 0 2 0 5.079140210062814 14.041659250999206 11.266905550888712 1 1 0
1288 0 1 0 -2.5599199033369437 5.394140514662533 8.343778230845478 1 -1 0
400 0 1 0 -3.0697517650950186 9.970437466108594 4.64391632337391 1 -1 0
968 0 2 0 3.5231653079593865 10.427838638120106 9.576893016071452 1 1 0
902 0 2 0 3.961739819956364 16.019497764821143 2.3392699802916335 0 1 0
25 0 1 0 11.88767387340685 4.050259861309076 5.756493144366156 -1 2 0
890 0 2 0 -5.739051548787014 18.61893907682744 4.733400636004064 1 0 0
60 0 2 0 -1.1053040547014004 3.279173202994396 10.5152559242584 0 -1 0
1251 0 2 0 -2.9659627839762877 15.84463627886968 2.7050263583760383 1 0 0
964 0 1 0 3.5427177947027717 6.353229439167206 0.6921291635019855 0 -1 0
265 0 1 0 -1.3870819703497943 17.299561434339008 -0.7010136404385797 1 1 0
683 0 2 0 2.352831639097246 -1.3240002656496226 9.39800409707363 -1 -1 0
451 0 1 0 -1.5975138778891602 16.237686718174107 4.575941525515033 -1 -1 0
812 0 2 0 9.177833182384392 6.803465153905488 -0.18804843087744583 1 1 0
646 0 1 0 -4.069986331537776 16.044422625879232 5.406719323138935 1 -1 1
931 0 1 0 6.657696423175561 11.385646736108388 10.383282627222865 -1 -1 0
678 0 2 0 -5.692856942826069 13.566562720830111 7.460592477978514 1 2 0
266 0 2 0 -1.3543788798149559 16.381087201015713 -0.4042023607011489 1 1 0
206 0 2 0 6.6842891344892985 17.96386807149734 3.7109645271856824 3 0 0
810 0 2 0 7.052409165414057 -0.8574725268081418 7.07245968099065 0 3 0
588 0 2 0 0.5813343056675188 14.706341904142366 7.075101175278082 -1 -1 0
750 0 2 0 1.527038933217632 -4.822549687930864 14.335588830537528 -1 2 0
647 0 2 0 -4.485926007736233 15.228717301505933 5.204914153737323 1 -1 0
270 0 2 0 -0.6751770933558388 12.284880774844263 3.9995525157716667 0 -1 0
751 0 1 0 7.924002383698682 13.61537868487801 0.8574802296138613 1 0 0
1042 0 1 0 7.262000194693428 5.344660636340365 8.40896476239793 0 1 0
537 0 2 0 4.040397196295781 7.953542526899193 10.754009333670659 0 0 0
1138 0 1 0 11.371385528959935 5.3220635806653736 15.33606901540017 0 2 0
1073 0 2 0 2.0345500168478208 1.0613301897379017 7.274202545006153 1 0 0
874 0 1 0 1.0511456542860318 7.555272430900034 0.05288963720838369 2 0 0
572 0 2 0 9.530524387797664 -3.411638356386577 10.19816585426434 1 2 0
1235 0 2 0 -0.12486006047871062 11.081606085599422 9.394810800852031 0 3 0
1143 0 2 0 7.704547411362284 2.6300827830885805 10.053068378434789 -1 0 0
1294 0 1 0 4.120074944885281 17.36543417597822 9.106451058819138 0 -2 0
242 0 2 0 1.588840135033627 11.75400230354293 14.196844710967683 0 0 0
1206 0 2 0 12.073574667478542 -1.464699347437351 4.473615418095867 0 1 0
255 0 2 0 0.01564718417042807 -1.2522125144393503 3.9270473021272965 0 0 0
387 0 2 0 -1.247355637107641 4.62732286467187 14.411807046927713 0 -1 0
697 0 1 0 12.71816853852953 -1.8662040960757387 14.420578491965168 0 1 0
617 0 2 0 4.3461072139689065 11.32439404692703 7.734245513022191 2 3 0
915 0 2 0 6.101267356240689 12.368508123056293 13.299072848053449 1 1 0
2401 0 1 0 13.901257072322581 1.225649996578886 -0.45720964668039576 -1 0 0
1202 0 2 0 0.633213760016049 -3.180181284888014 12.773755954026903 -1 -2 0
587 0 2 0 -0.3834018851223602 15.22894138188752 6.0693831621535335 -1 -1 0
447 0 2 0 10.925173125179214 7.21619307782094 0.5966678943328412 0 1 0
635 0 2 0 -0.2978131455036786 5.396445531252072 11.058779225227289 0 1 0
339 0 2 0 3.6326634371713817 1.574715377211806 15.1185482608575 0 -2 0
2307 0 2 0 -1.791223373752132 9.76741535493324 -0.4339495436151072 0 0 1
17 0 2 0 6.26949494750665 2.8897816307256745 2.8266797422750765 0 1 0
1216 0 1 0 -3.5734763540683927 12.546290906723215 1.6582488069904002 1 -1 0
292 0 1 0 -2.0238629390548786 13.609350761288516 3.682824190870754 0 -1 0
397 0 1 0 9.27276300835807 7.0388121714855485 14.362471273761653 1 -1 0
111 0 2 0 4.775751805326187 17.954588751181518 5.052914862430492 1 1 0
568 0 1 0 7.300128426630374 9.577871781063633 6.032746344753556 1 0 0
1264 0 1 0 -1.547021790422779 14.93694769271045 0.40461627152376023 1 -1 0
209 0 2 0 2.852854910133145 16.56609462898479 10.51499441690008 1 0 0
677 0 2 0 -5.503541170624645 14.90150566441772 8.164233995153786 1 2 0
344 0 2 0 14.465769046514984 -4.369697473306875 15.144598386383672 0 -1 0
497 0 2 0 9.11553428443077 10.79456975726966 0.9265834377242586 -1 -1 0
1069 0 1 0 6.89889177102825 6.5596537592968005 5.350584868337959 1 1 0
1249 0 1 0 -3.625151009134093 15.941160073086301 2.016431956340577 1 0 0
462 0 2 0 0.40322928261360863 1.1343836665674292 4.050642678919756 1 1 0
412 0 1 0 -1.928247450034247 2.729601006530992 7.751572122996844 2 -2 0
398 0 2 0 8.413455474164998 6.759330782656801 14.727883709554591 1 -1 0
103 0 1 0 -3.1709070911110278 10.646147860884074 10.148497647982808 0 0 0
684 0 2 0 2.7133650164630487 0.2077108772909524 9.488426456952043 -1 -1 0
467 0 2 0 6.669558316448313 -1.4389790674038434 4.502400601864039 1 0 0
261 0 2 0 -2.455780015184331 12.99720713428431 13.540465532739018 1 -1 0
410 0 2 0 1.95752295780534 7.221626116399705 9.803999319750101 1 -1 0
886 0 1 0 4.838579052272941 8.734773414373409 7.009494130502214 0 1 0
41 0 2 0 -3.795844643007963 18.05776184541286 1.4298818817510393 0 -1 0
1086 0 2 0 4.3330296567383835 5.058516116537582 7.1013629078533755 1 0 0
932 0 2 0 6.239306753874905 11.980266726211836 9.730812972833752 -1 -1 0
2294 0 2 0 -3.051940982910541 8.071788547950613 14.373046625325287 1 0 1
1266 0 2 0 -1.8404662429766092 14.323227484530396 -0.3962809327437598 1 -1 0
440 0 2 0 5.19360326563875 -1.5996223384184824 7.4485979706219965 0 0 0
1196 0 2 0 0.10218879159190569 11.959366396892715 7.029333401476382 0 0 0
16 0 1 0 5.4763841413825425 2.319586711558915 2.805072661546307 0 1 0
203 0 2 0 -0.6208665832698894 11.538436288909555 1.3278193582341369 0 -1 0
496 0 1 0 9.313121107210373 10.592583255473087 -0.002700882183663933 -1 -1 0
733 0 1 0 -3.016075519640058 15.932815678591492 13.386073033681708 1 1 0
699 0 2 0 13.573512209374414 -2.1677009517829244 14.742637865664122 0 1 0
1072 0 1 0 2.22221213849471 0.6438252065400554 6.445246320030123 1 0 0
714 0 2 0 -4.267519017808189 17.00285999248582 10.778093978721461 1 -1 0
927 0 2 0 4.572672471522791 8.133148864450666 3.636131723080191 1 1 0
1203 0 2 0 2.1237359022154694 -3.080297351547382 12.747583353528615 -1 -2 0
45 0 2 0 6.05871931620941 -1.5002159192040616 14.707403707002046 1 2 0
771 0 2 0 8.943440813694119 2.398487884590966 6.983160075755357 0 0 0
26 0 2 0 11.217633672738177 4.40678131129859 6.340804611548974 -1 2 0
233 0 2 0 -0.045567755759212514 13.553658781889569 11.854563344504214 1 -1 0
623 0 2 0 2.879209297160003 17.76696915169489 1.8795970527785397 1 0 0
385 0 1 0 -1.1771856301408141 4.214269054994418 13.568127064437762 0 -1 0
1125 0 2 0 8.552095252235544 8.071597567720804 5.7646827991184 -1 0 0
145 0 1 0 2.1635945054401238 4.123995162162473 0.5998979409789413 -1 -1 0
869 0 2 0 -1.5798311191787056 7.0546444733985165 12.159272977163448 1 1 0
359 0 2 0 8.815835405007281 0.5026457145297507 5.520913519416232 0 1 0
1272 0 2 0 1.2562041935749064 9.663227721593637 7.044943939453947 1 1 0
1232 0 2 0 8.279222058590445 0.21062313394843335 1.9276997567578253 1 -1 0
1265 0 2 0 -1.0468491693011075 14.427773072709872 0.990544793327893 1 -1 0
1224 0 2 0 3.5236277222505183 1.7006760773108391 11.33080282736381 0 -1 0
514 0 1 0 13.432903798700169 -2.6777862146334543 11.306973971284267 0 2 0
13 0 1 0 6.940477982755838 5.1506388904211144 1.4426243339032045 0 0 0
1058 0 2 0 2.2411108970516684 13.33495247129818 6.351564795289706 0 -1 0
891 0 2 0 -4.84279163141569 17.40827479302468 4.686163139954244 1 0 0
539 0 2 0 7.488245053289681 -2.303152635815028 13.054223947617581 0 -1 0
207 0 2 0 7.691422077770241 16.900352648724763 3.190542355433455 3 0 0
913 0 1 0 5.705313030238193 11.572953765965384 12.948600714727268 1 1 0
876 0 2 0 1.8114415683530132 7.37134423305399 0.5600963040844826 2 0 0
482 0 2 0 -6.192684237333424 13.371992810087932 12.54719670194379 -1 0 0
232 0 1 0 0.6002755697460427 12.988729590312714 11.34123470873626 1 -1 0
548 0 2 0 -0.7540016496021353 2.181161917147663 13.563378537995895 0 0 0
2367 0 2 0 2.6565603067692294 14.489676501780894 -0.47265489389698356 0 0 0
373 0 1 0 -1.0326314212338272 10.321714622955186 12.993701383225183 1 2 0
1146 0 2 0 10.645688189518863 5.148814131496163 8.475125635793951 -3 -2 0
866 0 2 0 -5.925441286732852 13.536476961528644 4.529941394137682 1 1 0
954 0 2 0 2.611094321050329 -0.9499241688359716 6.394248709478364 0 0 0
1092 0 2 0 6.05583755060711 13.455857333423094 15.217961290986633 0 -2 0
907 0 1 0 1.131402891971329 0.8329712767055595 11.597117487813021 1 1 0
1273 0 1 0 4.8579151971515175 0.610246037599954 -0.389305671020947 1 1 0
1519 0 1 0 1.5946464370573858 10.150765509664406 -0.4083464180519217 0 1 0
374 0 2 0 -1.3839273495434048 9.403065684834402 13.044517504061032 1 2 0
143 0 2 0 5.896859429460579 13.453900209612076 7.7264970896748615 -1 2 0
531 0 2 0 2.840892551598139 12.024846670622006 1.6555567558945676 -2 -1 0
402 0 2 0 -2.27170874404211 9.479877715470423 4.499652550520802 1 -1 0
280 0 1 0 6.988808465603017 -1.576351487352993 10.23412806098131 0 2 0
243 0 2 0 0.2149674289109711 12.034924668217691 14.842048488659861 0 0 0
529 0 1 0 3.6964905335846874 12.488779799686121 1.4898768652219814 -2 -1 0
461 0 2 0 0.23312961810593438 2.493462712299541 4.737641542923925 1 1 0
2351 0 2 0 -1.5674636908987776 3.765772455649621 5.695883746971083 1 2 1
999 0 2 0 12.803199396301006 -0.1356824311999052 14.002545423826497 0 2 0
997 0 1 0 12.580533894301864 0.7697826960971401 13.864479018648632 0 2 0
1279 0 1 0 1.7755666838104236 16.835053728391326 7.857779289218755 -1 -1 0
935 0 2 0 11.903922032232833 5.671371034649256 1.931220843531773 0 1 0
924 0 2 0 0.6169317735060591 -2.924905549559468 9.873558596241745 2 1 0
87 0 2 0 8.710071942624992 7.511139920115603 10.171363729183753 0 0 0
557 0 2 0 9.48123912452834 0.582857471554088 11.984152318174232 1 1 0
268 0 1 0 -0.117252193441202 11.617399443426182 4.4113672689421914 0 -1 0
998 0 2 0 11.730760019978755 0.9962891124116169 14.240903634868443 0 2 0