LAMMPS data file via write_data, version 23 Jun 2022, timestep = 174160000

2592 atoms
2 atom types

0 30.944 xlo xhi
0 21.33497 ylo yhi
-0.8002425764833667 31.7729575921699 zlo zhi
-9.144178 0.9828924495796282 -10.839470714117562 xy xz yz

Masses

1 1.008
2 15.999

Atoms # full

884 0 2 0 12.43771068459637 0.21757603923531565 11.780912010515701 1 1 0
167 0 2 0 -3.705182386786581 13.088794697914771 13.600685602073096 2 2 0
901 0 1 0 -2.7476856404895726 17.50191216056701 -0.4925712982805051 -1 -1 0
654 0 2 0 3.693550926297836 3.2274893955222903 4.204287670195982 0 -2 0
702 0 2 0 7.269917631863372 11.268921960303564 7.092688873779142 -1 0 0
476 0 2 0 1.3784751012989385 4.597699550540066 14.634363394381326 -2 -2 0
795 0 2 0 -1.7794670813045612 0.6874950180746744 14.27871031498313 0 4 0
124 0 1 0 4.407197847663759 13.936911140337045 0.31190537503538374 1 0 0
548 0 2 0 0.43713104752762066 -3.3385388104764546 13.153666375880142 0 0 0
557 0 2 0 10.909768613024394 4.878071515687057 11.170338895973098 2 5 0
244 0 1 0 -2.5296882871649893 14.63480077068863 11.340429919331442 0 1 0
2290 0 1 0 -0.8876156431637918 3.8279702298462315 4.633398740139447 1 0 1
245 0 2 0 -2.855880791434451 14.063993314479935 10.63526577306192 0 1 0
710 0 2 0 12.857167403959908 3.1717230050964598 9.941988969401962 -2 -1 0
273 0 2 0 2.737877009878569 -2.531513837786648 12.8869665959669 1 -1 0
701 0 2 0 7.096778553915217 11.556721454815897 5.596179825693232 -1 0 0
658 0 1 0 9.456137038387604 -0.10869496555934821 1.2428600886587526 2 0 0
1039 0 1 0 4.4551501463249785 1.2976253746581694 14.509613962655578 3 1 0
228 0 2 0 0.5370715181020662 10.232431737611343 9.016930047172206 -1 -1 0
633 0 2 0 6.24251643340245 11.186202089698618 11.281355435237115 0 -4 0
1190 0 2 0 7.716139783248041 6.702230856292227 6.202919538847304 2 1 0
671 0 2 0 1.4968812340045152 15.720930017730185 10.986639567951624 1 0 0
287 0 2 0 4.857021344333903 1.5373549145118806 2.607059582442019 0 -1 0
632 0 2 0 5.284213099466494 11.358807315705713 12.424779426781063 0 -4 0
908 0 2 0 4.420470330425972 12.554776569522621 10.300622132372816 1 3 0
1490 0 2 0 8.579717049588192 9.936582387742277 13.720942699842578 0 -1 0
411 0 2 0 -6.573243490523248 18.536694754817237 3.5167619728030006 -1 -1 0
427 0 1 0 5.979177240429677 15.36054566197182 14.495501067706158 -1 -1 0
2291 0 2 0 -0.7040502061403985 4.261075353439699 3.791314823635825 0 0 1
2184 0 2 0 3.41194971697392 18.239360970009436 5.4283674079312245 0 0 1
1052 0 2 0 9.749286334159951 2.831781295665041 0.4343661818405764 0 3 0
2233 0 1 0 4.119977285023253 5.938869733186443 -0.060648559683446956 0 -1 0
155 0 2 0 -1.1663358449093497 1.5272869005154979 9.808525395015542 1 2 0
149 0 2 0 6.257082521267875 6.9566768954603795 2.9950540738374785 0 -1 0
1468 0 1 0 -0.8526806276443109 2.9868994299816674 1.5071762559552835 2 1 0
75 0 2 0 0.17472685299268287 6.987372169496462 10.052897104571791 2 1 0
285 0 2 0 3.2842215133967616 0.41755115357349704 7.930875442127327 0 1 0
1003 0 1 0 7.464000311755859 1.7420548116509726 6.192754138056721 3 4 0
646 0 1 0 3.6224457402212136 17.06471832403172 8.661250981971651 1 -1 1
101 0 2 0 4.3619652587343 7.9328457241664285 2.1090622400440955 -1 -1 0
502 0 1 0 6.84164750700801 19.06344046794547 1.1602879856950896 -1 0 0
286 0 1 0 4.302770203765323 1.7306517732371702 3.360551061812984 0 -1 0
374 0 2 0 2.4168991502925925 4.780934476419516 8.616148573180448 2 2 0
570 0 2 0 -7.9842977913236135 16.746746224655812 9.71959440118913 3 0 0
1218 0 2 0 8.264501598040912 8.693388210743763 10.945726285178484 -1 -4 0
980 0 2 0 -3.714744588740816 14.544787516638435 4.55333407352835 0 1 0
95 0 2 0 10.608749228038743 3.646666008338528 5.6013645600907696 2 1 0
569 0 2 0 1.7462862247579434 -3.8295222213715574 10.920960556678624 3 1 0
1046 0 2 0 9.126725334752349 2.2236496768906227 6.765509245729131 1 2 0
608 0 2 0 5.952398608700964 2.4196784353437977 0.7307710044090079 0 -2 0
2424 0 2 0 12.443575917557155 -0.2087620543676496 8.102958563749215 0 2 1
315 0 2 0 0.5600161962402203 12.339172844238433 -0.13607350743091484 1 3 0
1164 0 2 0 6.1170518593917675 -3.079166682404793 13.263263172264416 -1 -1 0
1246 0 1 0 9.758558457615957 6.044664505829716 12.056535173344045 0 0 0
384 0 2 0 7.177859016626536 1.6769077726016912 2.9859502726850495 1 0 0
2509 0 1 0 2.2656958145093076 -0.17022387376485382 11.312119569735708 1 2 0
647 0 2 0 3.684881797674451 17.802343544671665 8.049269435600964 1 -1 0
485 0 2 0 -6.632979744570466 14.470998270643118 10.878207935163434 0 2 0
265 0 1 0 -5.129689806353414 14.603695327635547 2.0467699991198063 1 2 0
203 0 2 0 3.6109358280344006 19.645013550103503 0.10195895171777403 1 0 0
284 0 2 0 3.7512170646172596 -0.7927751699232988 8.886987533784225 0 1 0
1064 0 2 0 3.715537356722453 17.622674682393814 2.233084127032375 -3 -2 0
660 0 2 0 8.609674590972132 -0.08417635103859739 0.7393979467162248 2 0 0
907 0 1 0 5.039145968738577 11.933781482614329 9.875497619251194 1 3 0
585 0 2 0 -0.5112231157083819 15.056617014524926 14.45829629792159 1 0 0
678 0 2 0 -2.8022821042976402 17.31342766576932 7.118102391991183 3 3 0
1172 0 2 0 10.998157146114277 7.836622494545265 1.423558093139373 -1 1 0
1191 0 2 0 8.288161886093182 8.146989455395804 5.964211798958645 2 1 0
1593 0 2 0 1.4612050424749798 13.749152546750004 14.885581765214917 1 3 0
2232 0 2 0 10.099051626330647 0.05801944935126846 8.783344373262528 1 0 1
1200 0 2 0 -0.9384920991673195 9.954809106681779 3.9714898503928273 2 -2 0
965 0 2 0 -5.218075949805379 9.881382023728488 11.27149661253853 0 -4 0
639 0 2 0 3.197822424840152 0.0285481778297646 1.0745113821149017 2 3 0
401 0 2 0 2.7001959858062494 19.12003822960444 2.9313263608696145 4 1 0
221 0 2 0 8.600678192368202 -2.2644840071630785 7.948313307254841 -1 2 0
319 0 1 0 -0.19216431247145527 13.856013583173626 8.940668373069244 -1 0 0
1045 0 1 0 10.001980547547197 2.6145037736605974 6.896180388333948 1 2 0
670 0 1 0 0.8301915121794622 15.85155766506829 10.329877290245262 1 0 0
58 0 1 0 -0.7308766728321642 14.57819201054407 1.497045468852222 1 -1 0
869 0 2 0 6.811233667531937 5.9228728854683546 15.269898176706025 0 0 0
1664 0 2 0 -1.137778317155699 3.8801930809138803 7.205186638799065 -1 0 0
1292 0 2 0 4.633207405587117 4.360118517392026 12.955725229123901 0 -1 0
297 0 2 0 -3.269373224760059 15.429195844660336 7.474812875862035 2 1 0
587 0 2 0 1.0106785498887625 10.046289595615193 12.794951110619017 -1 -1 0
731 0 2 0 6.018447203774544 8.544197902809646 5.944061075686703 -1 -2 0
8 0 2 0 -0.7904864643985876 16.341341780386212 5.698457117007107 0 -2 0
832 0 1 0 8.976812573060228 1.592171793282871 13.657815510788163 1 2 0
439 0 1 0 11.325171993017598 1.920334818849844 0.27953167514465194 -1 -3 0
873 0 2 0 2.898545029480979 7.765583524228692 7.780372338536926 -1 -2 0
2559 0 2 0 11.956993888787162 2.8942498923065356 14.235519334955766 0 0 1
805 0 1 0 4.60917725669263 7.2780172030281065 8.023638255121469 1 1 1
496 0 1 0 -4.777865641168766 12.527940502161258 12.215810342946611 -1 -1 0
1291 0 1 0 3.9566199018691224 3.6126749173079657 12.97859421423104 0 -1 0
834 0 2 0 8.791920542239948 2.4624753185448798 13.227404248389796 1 2 0
1157 0 2 0 3.263867783757942 15.376216276225916 8.464948485346103 2 -3 0
320 0 2 0 -0.9934571221174163 13.354267759894874 9.129044322434758 -1 0 0
143 0 2 0 2.1631352587433494 15.02729763843504 2.639988509528961 0 2 0
672 0 2 0 0.625554695803057 14.97454793631564 10.03423798360221 1 0 0
240 0 2 0 6.5370086757346595 4.691445960097968 12.05903089670675 1 -2 0
607 0 1 0 5.970819089477941 1.5633344494472332 1.1602139563461744 0 -2 0
2292 0 2 0 -1.6582493676613208 4.253705426505953 5.054821181831098 1 0 1
664 0 1 0 -5.547333748201771 18.189374128024827 4.992710687974176 -1 -5 0
331 0 1 0 9.734384164256653 5.24778906601382 8.820267147473603 -2 -3 0
2402 0 2 0 8.726381934735109 -2.1111987899346265 12.941991976942909 -1 -2 1
794 0 2 0 -0.3310915236326345 0.5680010093746963 13.696254735235193 0 4 0
604 0 1 0 -2.0327439933501723 20.727333978057978 -0.47661790776630386 -1 0 0
1129 0 1 0 -3.291648253638017 17.72453159161797 3.3545200271729856 2 1 0
1065 0 2 0 4.897046664177167 16.586203400266886 2.287284710776625 -3 -2 0
878 0 2 0 2.333385736623369 6.132910866645959 12.923121832843377 -4 -2 0
1255 0 1 0 9.570248180996863 6.7885832070375365 0.9438544718360238 1 0 0
1133 0 2 0 -5.872582776068623 17.91281815049807 1.6373873534584553 1 2 0
1083 0 2 0 -2.226329660321091 13.199773402083489 6.380733657732821 1 0 0
627 0 2 0 3.533975851976573 9.629164733485613 11.663381357994679 2 -1 0
2557 0 1 0 11.970386233385728 3.685449462498835 13.74303035057544 0 0 1
2294 0 2 0 -6.6560647267018425 15.007232998248057 13.996835602974304 1 -1 1
568 0 1 0 -7.847325300466001 17.646021461956476 10.103577242318602 3 0 0
666 0 2 0 -5.87616580496902 17.942933654803017 5.877650383247716 -1 -5 0
1131 0 2 0 -2.4979324077845386 17.191998486487783 3.5549039067858086 2 1 0
102 0 2 0 5.566723152110114 8.829501695450787 1.8209627613656072 -1 -1 0
295 0 1 0 -3.5833816177167828 14.493796689087397 7.318973990178733 2 1 0
73 0 1 0 0.16587468377157222 7.047824913623385 9.07434365977441 2 1 0
475 0 1 0 2.2327142517496457 4.205668001999038 15.025954830024437 -2 -2 0
441 0 2 0 11.266813938479727 1.5023632851023443 1.1647500207601742 -1 -3 0
2494 0 1 0 5.912154349462383 17.267637274248642 10.074571537902173 0 0 1
74 0 2 0 -0.19725151754579995 6.197510540149169 8.785216790720247 2 1 0
2230 0 1 0 9.334040771613749 0.26406742784088744 9.328653686913679 1 0 1
140 0 2 0 7.5379577764721954 7.074877771263974 9.788926169191518 -1 -1 0
919 0 1 0 5.251186572822005 3.3812881700541646 6.968423508837625 -1 -1 0
395 0 2 0 0.9535224162275107 8.403142338548792 13.976198631458116 0 -2 0
730 0 1 0 5.295697965962541 9.185834702260852 5.735023866666278 -1 -1 0
1189 0 1 0 7.672719431994017 7.675808989548283 6.530608035242846 2 1 0
797 0 2 0 6.613915200560058 13.195911229972012 7.277865118683371 -3 -4 0
773 0 2 0 0.4036355755509412 12.345121213054473 3.7537708147586155 2 3 0
762 0 2 0 -0.41780856531129135 2.621222873614163 -0.1197023420777723 0 1 0
667 0 1 0 4.9448267205306164 5.78404889370711 5.66445403306765 2 0 0
2350 0 1 0 12.868039859976006 4.4831119461475355 0.6594122089701089 -1 2 1
1271 0 2 0 5.732092667504134 8.338710551073254 14.000853374918362 1 -1 0
325 0 1 0 4.004621856301437 10.410326310454458 7.85268637242082 1 1 0
1485 0 2 0 2.371080237701938 7.912521167426693 3.3420723828730354 1 0 0
1074 0 2 0 3.452419203771037 11.10745658013913 1.2684379939717663 2 0 0
1111 0 1 0 12.452214891457215 -5.120551762599984 15.32401514151832 2 3 0
282 0 2 0 -3.017302336895752 6.793507948528153 7.856263446205272 1 2 0
348 0 2 0 1.5013331376864103 8.497077639535256 1.1721228709785296 0 1 0
2352 0 2 0 12.508716325634222 3.607364635371657 0.43906138467443623 -1 2 1
470 0 2 0 8.458122720828428 3.5581854137749884 11.235532138790553 -2 -2 0
318 0 2 0 -5.935887916750436 13.272539821041649 8.980095095286382 -2 1 0
530 0 2 0 -1.0540936922426134 15.361835576484058 8.121888097738303 -2 -1 0
1040 0 2 0 5.337539742659306 0.8261577304651615 14.34594943023292 3 1 0
1082 0 2 0 -2.5835482962239915 11.932283640657587 5.681947981082207 1 0 0
1663 0 1 0 -0.6388035894501933 4.256290611596047 7.954918153523556 -1 0 0
1222 0 1 0 9.939156863972265 4.875267429044586 14.997482750525991 -1 0 0
327 0 2 0 4.607483557015003 9.84623142331029 7.344409376172321 1 1 0
1054 0 1 0 -0.9619217696212501 17.608102584646964 1.6263990100410273 -2 -2 0
723 0 2 0 12.302314949378292 0.5305611749295875 2.7494484283074003 1 2 0
1076 0 2 0 -6.473573348797393 16.299914731612656 7.483458666751707 3 2 0
1063 0 1 0 4.5520209595143255 17.331187172883897 1.8001569817590553 -3 -2 0
391 0 1 0 0.7910840372240889 3.601505096479274 11.895268981948332 3 -1 0
2270 0 2 0 13.020715030894113 0.8654771508191592 14.972737477564356 1 1 0
247 0 1 0 6.909982998763416 10.108185927005652 8.22540526607962 0 0 0
526 0 1 0 -5.0950625219189245 11.501605860770606 1.448838742774142 0 -2 0
538 0 1 0 6.764529939562923 12.548388151017994 0.8869939456445131 2 -1 0
652 0 1 0 3.2643812419664266 4.079900725285069 4.263499328783311 0 -2 0
947 0 2 0 -2.701927963552603 6.664934003965423 4.0996328704153875 0 -1 0
1067 0 2 0 10.540096676805467 9.339709565405169 7.355709136281735 1 0 0
706 0 1 0 0.8327094935339548 12.44975238846271 6.991971282230684 1 -1 0
2558 0 2 0 11.444821781925135 4.302349442149695 14.167624799677673 0 0 0
175 0 1 0 -1.9686686066892911 9.561942595929294 9.853764096490716 2 -1 0
793 0 1 0 -1.0642489536095945 -0.011670855028365956 14.06474959308889 0 4 0
418 0 1 0 -1.449494864377674 17.05242890328437 10.711851882710071 -1 0 0
1287 0 2 0 5.019718066675065 -1.4237038144743077 10.540299950830141 1 0 0
393 0 2 0 1.5008590016803787 4.256495710228053 12.006009157460854 3 -1 0
94 0 1 0 10.53787701626633 4.038129952609449 4.73089603641121 2 1 0
556 0 1 0 11.577067873400335 4.173034967331349 11.141578280683722 2 5 0
168 0 2 0 -2.709257742491625 12.527303204478951 14.619754522892805 2 2 0
809 0 2 0 3.4211048066977114 15.342904610001778 12.071317957413038 0 3 0
1094 0 2 0 -1.2625994931706 6.372726911824942 -0.37517983422648066 0 -1 0
616 0 1 0 13.040762617498368 -2.3161929567572894 15.043415089865517 2 2 0
625 0 1 0 3.5904487155376144 9.134571210509353 10.8268388800591 2 -1 0
933 0 2 0 -2.8379121077805527 12.83241332706392 2.7484970800987387 0 2 0
732 0 2 0 5.701388686800149 9.872199000745622 5.153514143928383 -1 -2 0
1198 0 1 0 -1.915377370487763 9.913035993347046 4.124301710849814 2 -2 0
1247 0 2 0 10.355018768892494 6.328786367516712 12.733026316959728 0 0 0
800 0 2 0 1.2692466508354132 2.2665047947360812 8.92810723665635 1 -3 0
394 0 1 0 1.1955889048298314 8.217986280544078 14.908887218549744 0 -2 0
1256 0 2 0 9.574217630937186 6.138332433490227 1.6264907298713829 1 0 0
1121 0 2 0 3.2701224554712995 0.03676988275259685 14.303764198138898 -1 0 0
333 0 2 0 8.838429250466897 5.6561415827017445 8.808396112970511 -2 -3 0
480 0 2 0 8.16075141022105 9.75128990612276 1.6568621304123403 0 -3 0
202 0 1 0 2.7082184493782226 19.83246693962233 0.4109479223713908 1 1 0
983 0 2 0 -2.3924160640135885 7.9943801788447395 13.485349518305759 2 1 0
11 0 2 0 -2.3987694609319554 7.69141681718078 10.697486671846278 1 2 0
184 0 1 0 6.708565202304892 0.013306565315737373 14.077985166938806 1 -1 0
129 0 2 0 8.514366786842732 7.306569877390999 3.7284527455929544 -2 0 0
2511 0 2 0 1.873591254138872 0.06724448443847209 12.17801545833302 1 2 0
1226 0 2 0 9.535914005015101 11.483999902165955 1.6506025586796587 3 -1 0
1236 0 2 0 11.255358881704883 2.0348567239502775 11.202751854816661 0 3 0
497 0 2 0 -5.616667556911383 12.054150665892465 12.411453509673361 -1 -1 0
1701 0 2 0 -2.955643154735851 11.70344053009699 9.13511662708193 0 -2 0
893 0 2 0 0.013983141398588167 2.491680871679696 5.444445714972328 0 -3 0
1243 0 1 0 13.460471824575732 -1.6844332255121641 7.995612752047135 2 -1 0
1215 0 2 0 8.948784987350674 2.0740488114360947 9.326346607090144 0 1 0
326 0 2 0 3.1964853558826247 9.95207073457448 7.674957108604181 1 1 0
386 0 2 0 6.250616561112731 0.6407348248553251 8.553126173938873 -1 -1 0
271 0 1 0 2.4738484839057415 -3.484302713791408 12.816002746681827 1 -1 0
451 0 1 0 1.4789102683040198 17.403376984401422 0.30238244291046423 0 0 0
1592 0 2 0 0.7538493395978803 13.837062835681238 13.446887206306648 1 3 0
1720 0 1 0 11.369411175371289 -0.15886030204080814 5.505219096709878 0 -1 0
145 0 1 0 5.188675676922536 20.80653204805664 -0.465910279833814 -3 -4 0
1231 0 1 0 0.5456746862063269 8.492483252637493 11.761588126402152 0 -3 0
469 0 1 0 8.287483953093883 3.7487865077877913 12.182222954120824 -2 -2 0
1234 0 1 0 10.931871991799277 1.0888332333181179 11.417475031233698 0 3 0
1081 0 1 0 -1.8069799504219979 12.477574093005835 5.8178169683659755 1 0 0
663 0 2 0 4.057074656677048 16.173322522079193 6.2808748185880585 1 2 0
808 0 1 0 2.7935867065048092 15.840768044505204 12.565371759957532 0 3 0
253 0 1 0 0.8102466652667185 1.2740897386138363 3.1660250686885734 -1 -2 0
96 0 2 0 11.263438525077637 4.671503755335763 4.550353055091455 2 1 0
2475 0 2 0 9.877995420608443 7.794605364873859 14.640414495117536 0 -1 0
157 0 1 0 -3.979867817204299 7.25031381673327 14.286056352627986 0 1 0
1262 0 2 0 -6.069880648398207 14.43606748272997 5.5268998493304755 -1 -1 0
1142 0 2 0 8.379535754695825 4.7949932683092635 7.251825593343883 -1 1 0
1060 0 1 0 8.320295670679778 11.410353934084641 10.352778066316095 -3 -1 0
544 0 1 0 7.778644936307221 13.748793456596577 3.1598574277946208 0 0 0
801 0 2 0 0.548626094791612 2.669097816497143 10.253590044406952 1 -3 0
226 0 1 0 1.135388432560784 10.250493741925325 9.795934451030698 -1 -1 0
1420 0 1 0 -0.22690496964027942 19.475234214428493 3.479325842041316 0 0 0
866 0 2 0 7.432807000828034 -1.159468348720345 11.437915702096095 1 2 0
255 0 2 0 0.5624853262048146 0.3918711073919605 3.484579164148168 -1 -2 0
1261 0 1 0 -5.56086288104619 13.7462466832426 5.063393665583255 -1 -1 0
1079 0 2 0 -2.944086537208502 11.17198075631077 12.252774150799999 -1 1 0
1112 0 2 0 12.884566578547394 -4.2663764444403895 15.471037622668618 2 3 0
400 0 1 0 2.0641633048358994 18.366908906404706 2.991269316068283 4 1 0
9 0 2 0 -0.1093552828803162 16.450880564608454 4.3689596995949795 0 -2 0
1062 0 2 0 8.857046922817807 10.655348569662717 10.592956570472369 -3 -1 0
998 0 2 0 1.5499894870433983 10.82991822791435 2.749084069499587 0 0 0
2422 0 1 0 11.83878688977069 0.5419095958465645 7.994556536139607 0 2 1
1050 0 2 0 2.7015630770947183 -0.9966531687095657 3.856846241872959 1 -1 0
528 0 2 0 -5.094120445134321 12.127755556977835 0.6914077220424277 0 -1 0
799 0 1 0 0.4708762341492923 2.166325295285362 9.433104959929969 1 -3 0
1000 0 1 0 -6.682581342933393 18.416314517691784 7.68227283807809 0 -1 0
141 0 2 0 6.972877055895623 6.985194691561002 8.409075377179702 -1 -1 0
1145 0 2 0 5.266663904021597 12.168570338184402 15.055978527612865 -4 -3 0
1199 0 2 0 -2.16158162824908 9.693240940479491 5.037471773504629 2 -2 0
1470 0 2 0 -0.5597647718797573 2.4551693832043577 2.2857385423737644 2 1 0
1104 0 2 0 3.4860419778858383 12.398699326705446 2.8628590667136047 0 -1 0
383 0 2 0 7.34814202676249 0.2655730199841557 3.5758252286490917 1 0 0
471 0 2 0 8.658756972321523 4.658601097583724 12.18826558588539 -2 -2 0
2295 0 2 0 -6.901419471717955 13.71459926594968 14.861491120650973 1 -1 0
2293 0 1 0 -7.356306159224605 14.312526347902557 14.2498738003668 1 -1 0
648 0 2 0 4.45556221999228 17.145685701873266 9.13445939588857 1 -1 1
1058 0 2 0 1.375231772539312 1.6024671704347497 14.22248099624734 -1 -2 0
1286 0 2 0 3.595978205123855 -1.261831441396715 10.872766328650787 1 0 0
209 0 2 0 -4.896048576268134 10.583840792053273 7.994829166814961 0 1 0
498 0 2 0 -4.975828452242293 13.059984156797729 11.437444354739894 -1 -1 0
127 0 1 0 8.99141141521845 8.060962373117093 4.1163375316817925 -2 0 0
1163 0 2 0 7.184581368892214 -4.2183914860534175 13.239385977731676 -1 -1 0
1270 0 1 0 5.497052172131344 8.420195664670233 13.035826080437937 1 -1 0
373 0 1 0 2.810877036597346 4.545257454517644 9.483739406969375 2 2 0
27 0 2 0 6.156691287316287 14.155064382346007 11.48459570620986 1 2 0
1591 0 1 0 1.228536328874388 14.30504126148528 14.137183643606184 1 3 0
925 0 1 0 5.6007517703668706 4.329393189132638 9.453266941744726 1 0 0
420 0 2 0 -0.5249636815087415 16.679534572573836 10.798830326367332 -1 0 0
1102 0 1 0 4.2540934296189965 12.535093263564962 3.364947073878466 0 -1 0
920 0 2 0 5.882299154229159 2.754102410850447 6.6237349334089135 -1 -1 0
1025 0 2 0 10.640224809958882 2.2680085920366864 3.6733050026162903 -1 -1 0
539 0 2 0 7.101716665797734 13.042717790109256 1.682350586555239 2 -1 0
1483 0 1 0 2.4816394177892502 7.491965572170763 2.4529689801745858 1 0 0
1162 0 1 0 6.997363026837922 -3.2902751052085546 12.992796533691477 -1 -1 0
238 0 1 0 5.942526837781124 5.265898976421813 12.596504089865975 1 -2 0
872 0 2 0 1.4026292311374866 7.584100581471707 7.877878465116131 -1 -2 0
2551 0 1 0 1.5944191396552612 5.450394193738437 6.782210457550422 0 0 1
396 0 2 0 1.1844817974840196 9.02842281850765 15.428913081701062 0 -3 0
999 0 2 0 1.5915681348225632 10.252004321416587 4.090098241671959 0 0 0
2473 0 1 0 9.072425679812286 8.335645239502675 14.808805959363422 0 -1 0
677 0 2 0 -4.019451735811818 17.611085376912 7.863938509095544 3 3 0
486 0 2 0 -5.641672336493206 15.491680069061914 10.274118681830515 -1 2 0
989 0 2 0 5.332787275963612 15.320185434922687 4.04054624078932 -1 -2 0
645 0 2 0 4.648725272479765 6.056236035727619 15.246106867448141 2 1 0
346 0 1 0 0.9605070194418578 8.776368037734652 0.43784845657690785 0 1 0
931 0 1 0 -2.633363628961159 11.907907144502795 2.522565745555872 0 2 0
1119 0 2 0 -3.208611137186852 9.171595133367191 7.306239112141418 0 -1 0
1147 0 1 0 0.05178858308367462 5.757682072325102 14.596712875952502 0 3 0
60 0 2 0 -0.774613426002207 13.952381905513986 2.264265311048621 1 -1 0
272 0 2 0 3.3037734512347794 -4.0540662693296445 12.833161077328748 1 -1 0
311 0 2 0 -1.4773650623117 10.956692101883842 1.1967561207273765 1 0 0
1149 0 2 0 -0.6925811381667468 5.60043719291762 15.204688026236898 0 3 0
114 0 2 0 4.508569584491198 7.655776423057937 10.831530160549574 -1 -1 0
2229 0 2 0 10.076066087060742 8.90337695468366 9.532885433560583 0 -1 1
617 0 2 0 12.21357928866918 -1.906134417687313 14.664094157348172 2 2 0
1265 0 2 0 -3.85871965018766 17.097040980580697 10.647387757229371 1 -2 0
946 0 1 0 -2.6910494876324482 6.4206301714866285 5.016653671900957 0 -1 0
1055 0 2 0 -0.7754470649904563 18.17748661370612 2.3872701922982453 -2 -3 0
1134 0 2 0 -5.390585423281957 17.37947973627251 0.3008350849575476 1 2 0
321 0 2 0 0.33498927645785176 13.24066398896906 8.336308697033802 -1 0 0
266 0 2 0 -4.8002812264569785 14.720887738690628 1.1416781206356275 1 2 0
935 0 2 0 0.6888845587100648 -0.46391237465654367 10.25186830039873 2 2 0
906 0 2 0 10.564374040458617 6.291914583611504 -0.4003762126521786 -1 -2 0
936 0 2 0 0.2463114866285458 -1.931937084106656 10.293919603422887 2 2 0
921 0 2 0 5.619926257910105 3.648837063141799 7.8459232567107335 -1 -1 0
693 0 2 0 9.290947600848877 4.407366588342351 3.56951048411716 -1 1 0
542 0 2 0 3.5937674110385753 9.013482039492768 4.984858068739434 3 0 0
1244 0 2 0 13.697142318323861 -1.5388066369770788 7.061703028502319 2 -1 0
180 0 2 0 5.258601763660378 -0.8086421290435559 1.8801993543905446 1 -2 0
948 0 2 0 -2.67008641855125 7.293224690363537 5.463689410345497 0 -1 0
1073 0 2 0 2.319351105669034 11.868689921598344 0.6235486217998141 2 0 0
1257 0 2 0 8.736502919211311 6.689360976122124 0.5425236975001968 1 0 0
2449 0 1 0 9.093135345639798 -1.401614522206116 6.111986005910508 0 1 1
392 0 2 0 0.006836470059872979 4.136327741983823 11.988202640178939 3 -1 0
1047 0 2 0 10.475861940761298 1.8724252758863136 7.322078837251196 1 2 0
409 0 1 0 -6.699459346330796 19.118048394073362 2.764403676441991 -1 -1 0
112 0 1 0 4.486338048710335 6.700115410601402 10.77488145103126 -1 -1 0
584 0 2 0 -1.953910675849659 14.54264476025438 14.119038052413583 1 0 0
1235 0 2 0 10.275438946580488 0.9610650395637372 10.744697251560776 0 3 0
477 0 2 0 2.6730271001494246 3.907217213052344 14.248890473605314 -2 -2 0
1056 0 2 0 -1.87898328596854 17.774149886851667 1.3797047199278243 -2 -2 0
2552 0 2 0 2.3573672947005235 5.078766799844303 6.318493932928497 0 0 0
312 0 2 0 -0.32512354126466675 10.179500495674096 0.500115041571757 1 0 0
2269 0 1 0 12.177671700472132 1.3106775576146994 14.976795855618358 1 1 1
142 0 1 0 2.2111010733985106 14.97588021198798 1.6800775318792125 0 2 0
2193 0 2 0 3.871280900929669 12.349653950647205 13.511977183886392 -1 -1 1
2235 0 2 0 3.390432962603189 5.7703519740698646 0.5640098184133526 0 -1 0
871 0 1 0 2.077173892765193 8.152160550410251 7.400091890879981 -1 -2 0
558 0 2 0 11.645295892888289 3.840531059295759 12.084266815799388 2 5 0
1239 0 2 0 10.328183331897215 -0.9651743770468224 13.78907757318477 3 1 0
1049 0 2 0 3.2868874903584397 -0.5565942689896055 5.259709513833948 1 -1 0
987 0 2 0 1.7053217707806267 17.316909321209955 7.266356763693869 -1 -3 0
150 0 2 0 6.162086220877417 6.324915623444022 4.385685613370467 0 -1 0
2280 0 2 0 -0.27127166893529464 12.53024390548774 12.296174143368352 4 2 1
25 0 1 0 5.219102259715762 14.415886049791562 11.360727711112073 1 2 0
349 0 1 0 2.0532856865552236 12.78990480251338 10.559549808830955 1 -1 0
1194 0 2 0 0.3816650673144719 10.74892794793911 7.0322529057687255 0 -1 0
973 0 1 0 2.6592957020834307 2.7698623554484243 -0.5347826849435937 1 2 0
419 0 2 0 7.521429937399619 -3.6881079251705366 11.426778127144644 -1 1 0
638 0 2 0 1.7028953939511415 0.3900068173499238 1.4959512772796217 2 3 0
478 0 1 0 8.431752612454039 10.111646002941061 2.487225171041083 0 -3 0
264 0 2 0 4.58451058433885 2.129418790986739 9.986206590459854 3 3 0
2163 0 2 0 6.304910780301423 6.929991580499874 0.5428743556350093 0 -5 1
2257 0 1 0 3.3557809108434498 12.682331156544949 6.217175752255241 -1 1 0
668 0 2 0 5.167890268471046 4.951774290700132 6.094114588051794 2 0 0
1160 0 2 0 7.4729710818430295 11.147157172769592 15.04255847489556 5 1 0
2351 0 2 0 12.525476600018452 5.067114214604441 -0.028343048672043736 -1 2 1
676 0 1 0 -3.754840733863871 17.60977221293672 7.001131763517549 3 3 0
984 0 2 0 -1.0350146549989452 8.428109421014518 12.806544544445948 2 2 0
979 0 1 0 -2.9983767385983193 14.52587938080037 3.9078128065575752 0 1 0
1156 0 1 0 2.863299233455045 14.515468107944795 8.380342618749225 2 -3 0
2423 0 2 0 12.20684889540157 1.352429390110074 8.379680008561992 0 2 1
740 0 2 0 -4.1706444230670945 8.892179825033564 3.596921423655619 1 1 0
770 0 2 0 1.330232764229048 4.463532808774544 1.7640145410258135 0 0 0
434 0 2 0 6.87536914804404 10.876543098042216 3.3488354976021917 0 0 0
1078 0 1 0 -1.9896252573249174 11.150126626653446 12.315475294868616 -1 1 0
699 0 2 0 4.007228785353359 7.489104845669054 13.560216116334173 0 1 0
985 0 1 0 1.0461689182385334 17.46632660247811 7.98242378344246 -1 -3 0
1103 0 2 0 4.563254539698335 13.463927395071565 3.1132719033873295 0 -1 0
166 0 1 0 -3.290110540696847 13.236473551430292 14.491261080229906 2 2 0
2258 0 2 0 3.6041857174389977 12.631864531034918 5.337167827460736 -1 1 1
1051 0 1 0 8.852765479056359 3.2403474011216367 0.24656994660107023 0 3 0
659 0 2 0 0.90441732921046 20.542326384950243 0.7680808259668483 2 -1 0
179 0 2 0 -4.736694098326768 19.58739102560634 0.9589872876932508 1 -3 0
2259 0 2 0 3.783711138681719 12.064522684117112 6.8449091215092315 -1 1 0
698 0 2 0 2.813674425335042 7.556484270766294 14.551830457398614 0 1 0
351 0 2 0 2.3068858506449463 13.292524831195292 9.784177365791072 1 -1 0
721 0 1 0 13.153587479844566 0.05178120293454991 2.582057135355375 0 2 0
653 0 2 0 2.9117922049730116 4.183042716771561 3.3592081876589983 0 -2 0
543 0 2 0 2.291744536506129 8.539142341167636 5.669792126653512 3 0 0
148 0 1 0 6.664727284017709 6.237017577245509 3.534186965286068 0 -1 0
541 0 1 0 2.6402840259582243 8.853661080193108 4.800905489009103 3 0 0
772 0 1 0 0.09964474528376946 13.23966344021906 4.055456289994739 2 3 0
798 0 2 0 5.880292928813597 13.02429075813917 8.654941968581259 -3 -4 0
1233 0 2 0 1.1835323913379925 7.726726849890089 11.707574109817731 0 -3 0
205 0 1 0 0.2356498139451756 7.30919748830122 4.853443198397512 5 3 0
868 0 1 0 7.508588620168518 6.149382628455098 14.604435839607904 0 0 0
1605 0 2 0 4.313200768622306 15.443953481132045 -0.7825589964945224 -1 -1 0
1118 0 2 0 -1.686953213260432 9.164207951611104 7.20893096293802 0 -1 0
2403 0 2 0 9.969048546025956 -2.178447140717106 12.08839336363977 -1 -2 0
1293 0 2 0 3.8555584009525026 3.2177576327315167 12.103233619034576 0 -1 0
527 0 2 0 -4.2425145229853145 11.62974755029982 1.9145990269228528 0 -1 0
128 0 2 0 9.918895687210815 7.839058244773872 4.146898349387274 -2 0 0
640 0 1 0 -3.255598484220382 7.079658722733774 2.3355232158616164 3 3 0
2401 0 1 0 9.275552296429378 -1.5807740906637817 12.359892450350877 -1 -2 0
803 0 2 0 -0.7948462698069563 5.493854470622726 13.084463154493253 2 2 0
665 0 2 0 -4.67713810779987 17.896067087721864 5.106459923484665 -1 -5 0
1144 0 1 0 4.65855769321573 12.928873000974752 14.848807535115451 -4 -3 0
220 0 1 0 7.9148185049506115 -1.990538415199562 8.564712133717723 -1 2 0
2474 0 2 0 8.410212707649286 7.637617920815482 14.733728363388614 0 0 0
631 0 1 0 6.123330692633005 10.945600295264116 12.219265995559477 0 -4 0
431 0 2 0 -8.134670006523315 18.46242121170437 6.63951387527148 0 2 0
484 0 1 0 -5.955715617550889 14.567307014419173 10.16424973043058 0 2 0
669 0 2 0 4.261261490512177 5.524326530531361 5.023181185335801 2 0 0
248 0 2 0 7.429166675134203 10.20260706253471 9.033132484134814 0 0 0
2183 0 2 0 2.212301430061512 17.808540945627662 4.755281280236791 0 0 1
624 0 2 0 -2.8324029092793106 9.518826777633006 -0.3238920300570063 2 0 0
1130 0 2 0 -3.64524792030797 17.55850575500629 2.4625876341372868 2 1 0
1032 0 2 0 2.315839697507576 15.433279501722236 5.295108402440585 2 0 0
139 0 1 0 7.336353200573707 6.424583799458258 9.108919374269453 -1 -1 0
870 0 2 0 8.160178077968984 5.468226481123836 14.731774194384919 0 0 0
1237 0 1 0 10.555435571753337 -0.9229190502821147 14.725526613258666 3 1 0
750 0 2 0 9.45037078251781 2.067969325440412 15.231474353307355 -1 2 0
610 0 1 0 7.7908639186662105 13.542041990905055 11.853073315312066 1 0 0
387 0 2 0 6.706774538809908 1.9504754076686197 9.247467042753737 -1 -1 0
236 0 2 0 -4.816021551718763 11.777263932423008 5.83670397921658 0 -2 0
254 0 2 0 1.3388492194949828 1.6253006243295274 3.8898180384164656 -1 -2 0
281 0 2 0 -3.0923711936581997 5.3616247873451535 7.5603363305261 1 2 0
964 0 1 0 -4.5349283580489175 9.280283865451601 11.563266589063677 0 -4 0
642 0 2 0 -2.553467431600519 7.026086549951699 1.6699021449359104 3 3 0
555 0 2 0 -4.028831763480246 15.174065984257972 12.541958303057296 -1 -2 0
1232 0 2 0 0.6881817194139397 9.029501740726726 10.918688484565841 0 -3 0
26 0 2 0 5.194555615766994 14.97467688161211 10.613386007247358 1 2 0
554 0 2 0 -4.423917704609642 15.593411248366799 14.048567734720853 -1 -2 0