LAMMPS data file via write_data, version 23 Jun 2022, timestep = 23326000

2592 atoms
2 atom types

0 30.944 xlo xhi
0 21.33497 ylo yhi
-0.7040775379252757 31.676792565556994 zlo zhi
-9.144178 0.9770889123310647 -10.775468521339478 xy xz yz

Masses

1 1.008
2 15.999

Atoms # full

490 0 1 0 -4.047660126296084 13.331763620040002 13.212230737725513 0 -1 0
1257 0 2 0 9.902848046633977 7.386932161176373 13.947215586891218 0 0 0
1006 0 1 0 1.393634684494651 16.89139331267355 8.592525546995356 0 -1 0
713 0 2 0 9.49434913708024 10.310836756970183 12.656152580293506 0 0 0
906 0 2 0 -6.394744257616508 14.907365376364838 7.446691424519825 -1 -1 0
695 0 2 0 -1.6491902917815675 19.704451224937685 3.7717102036599623 1 0 0
1205 0 2 0 9.844615455754003 9.455635104271819 -0.5829199074443503 0 0 0
1521 0 2 0 3.542860094700543 11.619117853608923 6.471970594675126 0 1 0
640 0 1 0 -3.2384138335830635 8.571092712144143 0.9026993737561595 0 1 0
1051 0 1 0 11.930787000156235 3.315689473281865 3.33141195942754 -1 0 0
158 0 2 0 12.723085667576369 3.945547349226679 6.26362503647292 0 1 0
491 0 2 0 -4.619049018808901 13.823783687815734 13.8402048597765 0 -1 0
709 0 1 0 0.27749115903066723 13.954278799886922 11.329039769952692 0 -1 0
1111 0 1 0 5.800698912000445 1.3615759674380294 14.266209944200167 0 0 0
1077 0 2 0 7.73885430122104 12.817236946805812 0.12706036009031874 0 0 0
955 0 1 0 -0.7639443515455444 11.058433003954615 9.626056395099951 -1 -1 0
342 0 2 0 7.589114838485277 6.521833483798119 4.668953457555314 -1 0 0
1115 0 2 0 -3.1302987712504957 9.110044588761596 7.874196474039598 0 -1 0
143 0 2 0 0.09049244760907477 -0.6579447449719638 11.127335295840911 0 2 0
1163 0 2 0 2.5459650951401267 -3.2949568590089187 11.705510034417172 0 1 0
231 0 2 0 -0.3638031754304661 12.329817441547853 6.380270431988966 -1 0 0
1008 0 2 0 2.337136437722043 16.655835255097212 8.717580588435696 0 -1 0
786 0 2 0 3.099425833471034 -0.8353864541521476 8.291160772906416 0 1 0
644 0 2 0 -3.0376879290182304 13.38725243204316 9.65257637180635 1 -2 0
1224 0 2 0 6.9823547403560235 10.055689199793857 13.163005560540434 0 -1 0
31 0 1 0 -1.7696643113520396 8.497727826562071 8.627782649880022 -1 -1 0
309 0 2 0 9.135022201262316 5.094604042165853 5.8977053505228945 0 1 0
296 0 2 0 4.9464186570283415 18.661860051725043 2.1229963228211757 1 0 0
826 0 1 0 1.1698071307325217 13.84424695704309 6.174333377248089 0 -1 0
1048 0 1 0 4.221342944372351 4.609229392475961 13.449642227236511 0 0 0
874 0 1 0 4.963119341781364 4.878703572650165 9.12052883710883 1 0 0
88 0 1 0 9.7036806726963 2.5635510274528164 13.91858519559376 0 0 0
545 0 2 0 -5.092207270013504 13.628572912699184 0.5130138091716148 0 0 0
1035 0 2 0 -0.5373887457942064 15.572064016397318 13.735292368036664 0 -2 0
1007 0 2 0 1.3069374894185648 17.749381232287668 9.08177708194426 0 -1 0
332 0 2 0 8.405356682486834 2.2792442364089935 5.428982092571099 0 -1 0
1142 0 2 0 -3.8106870970011757 17.765938362376325 6.715676862071158 0 0 0
788 0 2 0 1.7602077323924843 7.7268244255627865 15.003271191286712 0 0 0
1128 0 2 0 2.635101815343863 1.6291111229763349 6.71145223499085 0 -1 1
1281 0 2 0 6.248582253194567 2.3267057377055624 3.8121565894480645 0 0 0
1243 0 1 0 0.04564303338200218 6.900945300746518 7.407917032078792 1 0 0
185 0 2 0 8.798888315799811 7.499571103546206 2.291920113055302 0 0 0
338 0 2 0 10.128314787976542 -1.316606205456214 9.738809312613213 0 -2 0
113 0 2 0 8.713328416299674 14.604982442245577 1.3382731640511074 0 0 0
896 0 2 0 9.780048995714846 1.4243993536409711 4.218852529528499 0 -1 0
1030 0 1 0 11.7519249914554 -0.7090714456208498 8.161890789291716 1 2 0
2330 0 2 0 -2.9159170660229092 15.075890983174888 1.0907890930396478 0 0 1
81 0 2 0 3.2274985888145626 0.0038347327518609697 1.981875110996449 0 0 0
162 0 2 0 5.681655622771833 7.187411130717324 13.73196891407527 -1 0 0
1593 0 2 0 3.6892143262624764 0.0682876951515361 6.3988347509069445 1 1 0
1141 0 1 0 -3.3833756070945857 17.68065758372005 5.8429241069788675 0 0 0
203 0 2 0 -0.22619702831594807 8.864669143159686 15.447181716280223 0 -1 0
1288 0 1 0 -3.57146956111383 12.088394688608862 6.571020814695395 1 -1 0
164 0 2 0 4.97539827701647 0.9659767353159223 12.877198105002899 -1 1 0
541 0 1 0 -2.2822873235262597 1.9587592446926045 14.352932350459144 0 0 0
144 0 2 0 1.4063806675926795 -0.5800138798501306 11.943640238408454 0 2 0
1085 0 2 0 0.3316931232464 13.073905069400903 1.9247900633029653 2 0 0
312 0 2 0 -0.24883621042931944 17.503540213737192 5.24078563389933 -1 -2 0
1156 0 1 0 4.718424485469219 9.246436151634871 11.784891928111827 1 0 0
828 0 2 0 1.1817564193502363 14.787607607884464 6.03916931490066 0 -1 0
471 0 2 0 -3.6689205424977587 10.979722302352503 12.415223576634807 1 0 0
2306 0 2 0 -0.5298591190964331 10.561115260524431 -0.44662968360324656 0 0 0
632 0 2 0 -0.40100262359680966 1.6936989004335596 1.4784856042404328 1 1 0
599 0 2 0 4.202950593775931 16.92189784379351 9.05015596429785 2 -1 0
98 0 2 0 10.356837552472967 1.4564006362292936 9.867696164944176 -1 -1 0
954 0 2 0 8.976782846018414 10.917052723365424 7.171452463971547 0 0 0
869 0 2 0 4.989424302511039 14.976239320176782 0.7157583887731909 1 0 0
86 0 2 0 1.7459527780952548 9.272663444230782 13.545977266610857 1 0 0
141 0 2 0 7.180018055620926 0.4036503273510741 5.7842425124310175 -1 1 0
1286 0 2 0 10.734575645976413 2.6421470696844374 6.098050735504583 1 2 0
430 0 1 0 6.934025927072992 12.97329248717965 13.482886675431018 0 0 0
161 0 2 0 5.226785254350122 8.513836332081349 13.509847937401211 -1 0 0
370 0 1 0 3.1994993185572507 5.781603149768134 11.279245934539 2 2 0
324 0 2 0 2.0232346132254224 5.144118003648591 10.182562764059544 1 0 0
1207 0 1 0 -7.767233110437445 15.736544164054465 14.683395309910267 0 -2 0
721 0 1 0 7.3902955495822615 3.7078953760524698 14.675698520666556 0 1 0
363 0 2 0 7.750799874510999 9.177143587921016 15.438999233446012 0 1 0
432 0 2 0 6.284330243033241 13.515458794480171 13.941015619252225 0 0 0
387 0 2 0 2.5274498556548144 1.6773312685535364 2.7707995702334065 0 1 0
1279 0 1 0 5.439160602522885 2.251281711340162 3.25444335262569 0 0 0
329 0 2 0 1.5204870410795093 10.05517372466383 3.5384625465152526 0 -1 0
1113 0 2 0 6.480078233315131 0.6495520099567242 14.461955708257541 0 0 0
1084 0 1 0 0.0062448185059018335 13.517103457964902 1.1116987234587017 2 0 0
90 0 2 0 10.157089279631453 2.032673011317539 14.592671176488363 0 0 0
1052 0 2 0 11.848195044000404 3.1708803472533633 2.4065269928756616 -1 0 0
622 0 1 0 0.8721204833378828 7.853849596239083 1.1744269999850483 1 0 0
323 0 2 0 1.0870014178084229 3.9068456468610315 10.01615403166465 1 0 0
1520 0 2 0 4.2645991175706355 12.944506259634188 6.633153674820317 0 1 0
807 0 2 0 2.385566200643871 2.6880880263017852 -0.44011517723754756 1 1 1
411 0 2 0 2.94913075064773 19.277513216970625 5.063221154728618 0 -1 0
1000 0 1 0 3.4947377683549647 6.379837510603673 1.0890863209871424 0 0 0
331 0 1 0 7.499501775858593 2.3507022247355502 5.078990361407444 0 0 0
288 0 2 0 1.4232076910672866 11.072365034977206 15.091414950620706 0 0 0
22 0 1 0 10.361833478053745 -3.3271577236178898 14.707091394142337 0 0 0
1143 0 2 0 -2.547434992738431 18.091273115061007 5.757201979870682 0 0 0
1064 0 2 0 -1.5721029768558596 2.4837844420595587 4.12651529053003 -1 0 0
1072 0 1 0 3.9923144861479556 13.40644804159238 13.424866323056335 1 0 0
134 0 2 0 7.600644227927063 -1.6424941950915892 15.053016190535049 1 0 0
1092 0 2 0 10.891935742451746 5.706096152467806 7.3071049653578495 -1 -1 0
607 0 1 0 5.583505496550009 15.840358174781297 12.418946810255225 1 -2 0
991 0 1 0 -0.2868510021356424 6.136837492984995 13.276812633410731 0 1 0
172 0 1 0 -2.0384966921151064 5.652469168935682 0.360664868000665 1 0 0
193 0 1 0 2.1745424634273784 16.056907233500343 12.063552219683537 0 -1 0
442 0 1 0 -3.683685279250218 12.918687237172595 3.513153572751772 0 0 0
774 0 2 0 4.0398375141356215 2.4199092895888725 9.342444322075837 1 1 0
359 0 2 0 5.30103341695656 1.8096158849430457 -0.2935441046007102 0 1 0
436 0 1 0 -5.956149772219872 16.938667784326263 0.943453494722591 1 1 0
107 0 2 0 6.014099615823761 11.93459526571182 4.490804430883018 0 -3 0
928 0 1 0 -7.167945803844775 17.515221331790173 3.9918825019046302 0 0 0
1265 0 2 0 6.340046824349067 11.168239863492515 2.3848314712310565 0 -1 0
1015 0 1 0 5.662647650537386 -4.180203014413867 14.588012680306067 0 0 0
787 0 1 0 2.213372100968282 7.479392653094277 14.176557166825855 0 0 0
2222 0 2 0 7.664966001099886 8.981343892031559 -0.06544113051362976 0 0 1
931 0 1 0 6.277208190761291 -0.225067367848085 10.421332756573687 0 1 0
1175 0 2 0 4.99910155035653 20.1224687604948 0.6063712943421995 0 0 0
18 0 2 0 10.634794524734476 4.229782993896174 4.069760391644849 0 0 0
349 0 1 0 7.030675058470669 5.959416573746165 13.096994192255648 0 -1 0
808 0 1 0 4.371731198558075 14.932544007739686 5.6755464119941665 0 1 0
347 0 2 0 2.129224552915567 16.672690566019426 4.683973215315719 0 1 0
195 0 2 0 2.806231871692639 15.430306665278476 11.716788795480912 0 -1 0
346 0 1 0 1.4795415574127897 16.49689500843268 5.388876264010439 0 1 0
101 0 2 0 -2.7819468919420496 20.509241672392648 1.7210909102033152 0 -1 0
95 0 2 0 5.857912568633035 7.961031972756061 9.701486527745566 0 1 0
1183 0 1 0 -3.719203776274174 16.1478383336349 -0.44490517260414514 1 0 1
1285 0 1 0 10.043105970982113 2.00398963432375 5.8836560570637495 1 1 0
897 0 2 0 9.25659490594067 1.69946895709754 2.8073496399475704 0 -1 0
903 0 2 0 9.130035067944135 4.338507251619127 1.4501800491876402 0 0 0
952 0 1 0 9.331560220065352 11.478174498264458 6.447860386371108 0 0 0
470 0 2 0 -2.8462097886525246 11.813296178096735 11.423721997913814 1 0 0
2221 0 1 0 6.7235416531642995 9.132490981594529 -0.40451640227785873 0 0 0
1039 0 1 0 2.554705824008814 8.152961359027834 8.44754127033245 1 0 0
813 0 2 0 2.285916563355308 5.296511995010251 5.648991700660453 1 2 0
122 0 2 0 12.920561300102612 -1.3056951693796224 12.385928945421991 0 1 0
645 0 2 0 -1.728244497816805 12.623771493284911 9.95181229296235 1 -2 0
633 0 2 0 0.8809395988574249 1.2033664407904014 0.7953806013469547 1 1 0
23 0 2 0 10.360389715426686 -2.672854287928564 14.045134798646274 0 0 0
1267 0 1 0 -0.5182735475907465 20.049213044666214 -0.009484907883867022 1 -1 0
1059 0 2 0 9.894817928655575 7.80179541379858 6.911874351889119 0 -1 0
773 0 2 0 3.2900540203644466 2.598218254612711 10.721343019596635 1 1 0
1139 0 2 0 11.018074347309557 1.0615030023440521 0.5462290028746966 0 2 0
606 0 2 0 1.5209542815752992 12.736152165540176 11.731710034906733 0 0 0
1090 0 1 0 11.341030236329942 6.345310892198908 6.730484696376795 -1 -1 0
358 0 1 0 5.229813790819084 2.6157514213049984 0.15530373000021602 0 1 0
1256 0 2 0 8.784350036187144 6.477985632938313 13.205404377304225 0 0 0
273 0 2 0 6.45863774433504 17.69436467631288 5.635160363391531 0 -1 0
97 0 1 0 9.850596605296603 2.2029015261076137 9.53926901298989 -1 -1 0
1082 0 2 0 2.314294361901612 8.253136408909663 10.158945574832675 0 0 0
570 0 2 0 2.9924455022226657 11.13914391303572 9.869905057255725 1 0 0
822 0 2 0 -3.1279870066759323 9.851427541096083 14.186631091162502 1 1 0
380 0 2 0 0.46298438909101136 8.552726875473201 6.6320117216670065 0 0 0
1073 0 2 0 3.1891528668320435 13.91598755384611 13.699161247935457 1 0 0
2185 0 1 0 -0.9637280218060873 8.810579253190983 -0.40716435517814015 0 0 0
1119 0 2 0 8.687188591298822 0.5022298701316714 15.148287770951924 0 0 0
1012 0 1 0 0.5149283604671097 6.802171736659259 3.6896419596519188 1 1 0
223 0 1 0 8.236901891083944 9.288954780709997 11.609125046153064 0 1 0
910 0 1 0 1.5069592990018703 18.977848333065236 2.3616148738965723 0 0 0
381 0 2 0 0.15594965579186548 10.123328613077721 6.671797043006473 0 0 0
65 0 2 0 2.5887512139942186 3.494225704918069 14.050699719560205 0 -1 0
723 0 2 0 8.22270898085895 3.2483720342092752 14.454731634511878 1 1 0
236 0 2 0 10.112117554312023 5.45080535872855 9.58124603471051 -1 0 0
56 0 2 0 14.604944708726233 -0.7429884588154837 3.1023625174374225 0 1 0
373 0 1 0 2.3395812830248675 -0.6449345830506923 13.63171359561333 2 2 0
123 0 2 0 12.598961057143205 -2.4507703640864404 13.491428075485198 0 1 0
426 0 2 0 12.050543462745885 0.139284247969655 10.197423470724175 -1 -1 0
487 0 1 0 -2.0806255672000593 17.250379674676708 2.843833622527381 1 0 0
691 0 1 0 5.041065959363384 8.933003482967763 1.7044990022636188 0 1 0
142 0 1 0 0.9837315871319139 -0.37936295834277844 11.100072198984213 0 2 0
2510 0 2 0 2.470289130420518 9.576434921830215 6.263372463123385 0 0 1
1017 0 2 0 5.638697060001236 -4.481003700154598 13.69459279420883 0 0 0
895 0 1 0 9.619093025845517 1.000343805821705 3.3824719713100064 0 -1 0
489 0 2 0 -2.9844592829496532 17.73034621105487 3.0063585716489096 1 0 0
374 0 2 0 3.104041458014942 -0.03761830305848424 13.289936149655048 2 2 0
294 0 2 0 6.216747264690664 -2.031554421659033 13.005245526742142 1 0 0
676 0 1 0 3.0483873851683887 12.694974742942536 0.217315796308291 1 1 0
27 0 2 0 5.518455265857053 -0.3511727829954723 4.653699351229982 0 2 0
1223 0 2 0 6.94772680066195 11.207810967334535 14.105193202720677 0 -1 0
1194 0 2 0 3.952755840754729 -2.2381467608117243 10.736790146108344 1 0 0
801 0 2 0 -5.016509992162318 18.18223828264158 1.854819955804035 1 -1 0
1269 0 2 0 -0.7758441567460588 19.1396553264227 0.2986551790898544 1 -1 0
1140 0 2 0 10.811329116630946 0.46176652475886837 2.0384421234458476 0 2 0
1075 0 1 0 7.790812310890643 13.096673685488962 1.069328154883325 0 0 0
272 0 2 0 6.925096915883675 16.768559794868658 4.521507845397327 0 -1 0
670 0 1 0 -5.355797485833879 14.41945768810093 15.426828951948735 1 1 0
722 0 2 0 6.694287865454343 3.0676804293694957 14.844165988280265 0 1 0
131 0 2 0 5.18705595150864 0.7347180228531927 8.837993241907371 0 0 0
391 0 1 0 13.233897997079076 -2.8871115003251893 9.935515718586178 0 -1 0
915 0 2 0 13.624418656767041 1.1718706812259845 4.2007645037214125 0 1 0
1417 0 1 0 -2.1888127301810454 7.921798663077993 4.764676407460532 0 0 0
1418 0 2 0 -2.472530716373413 7.703389184370124 5.636590780406743 0 0 0
698 0 2 0 -4.96347131904536 15.1017948371139 4.039491300181084 0 -1 0
799 0 1 0 -4.6111955769617925 18.461925544381735 2.6922182312420473 1 -1 0
862 0 1 0 6.188445603902132 11.74753671523696 11.187017627604334 0 0 0
37 0 1 0 1.368468023967339 1.5415069698619357 7.992067648827344 1 1 0
1112 0 2 0 5.063490913985297 1.2446351846491996 14.946043216972528 0 0 0
1248 0 2 0 7.052419973741677 6.621562767760453 1.488384393096092 -1 0 0
2509 0 1 0 3.349131142524204 9.941873467024408 6.2761599866154985 0 -1 0
322 0 1 0 1.3193012974722569 4.772259931400146 9.660553342837725 1 0 0
460 0 1 0 -2.4436461664920093 7.168503758072764 15.09156517299101 1 0 0
242 0 2 0 14.906636073479374 -3.685193200259908 12.820138146377401 0 1 0
985 0 1 0 -7.238806291994978 20.050978379853422 2.802975719040552 0 0 0
402 0 2 0 4.895792824477796 8.408678802102633 3.4157157888457945 1 -1 0
939 0 2 0 8.14052906024362 13.539976803453696 4.301005609827811 1 0 0
1062 0 2 0 10.45638481680107 7.187920201778495 11.654589592079725 0 0 0
1448 0 2 0 -0.12329762200987965 10.19349936880473 4.741318402651284 0 0 0
636 0 2 0 -4.9912045674151235 9.230683973891889 11.062613422503677 0 0 0
623 0 2 0 0.5274778223504237 8.310278375411801 0.39509535152177877 1 0 0
656 0 2 0 7.835743482692706 9.591221060606143 4.030947638774422 0 1 0
326 0 2 0 10.239848846277429 -0.7306579776981743 5.573434735782824 1 0 0
876 0 2 0 4.092570424836002 5.0573902711279235 9.566132884088582 1 0 0
657 0 2 0 6.640977372796353 9.08323620157954 4.722877536740831 0 1 0
812 0 2 0 2.1305733336533503 6.444565867424704 4.534896613569779 1 2 0
452 0 2 0 -1.1471688839881438 17.355934052729186 1.4683689646428402 -1 -1 0
229 0 1 0 -0.8538600628632645 11.60422607585281 6.738186617391063 0 0 0
121 0 1 0 12.437755181700815 -2.164623887721768 12.566782693140954 0 1 0
1222 0 1 0 6.99655910537846 10.228139355355111 14.120580249026805 0 -1 0
447 0 2 0 0.8345526037799247 13.381029631750543 9.567462383644218 0 -1 0
1591 0 1 0 3.64833539906204 -0.8706976366922419 6.650620221172398 1 1 0
1519 0 1 0 3.4555421101216974 12.473098423967036 6.901330297840546 0 1 0
820 0 1 0 -4.106109356061354 9.980859140391445 14.125505333507325 1 1 0
226 0 1 0 -1.0700978098497298 6.124771110852965 10.54226166423398 1 -1 0
308 0 2 0 8.790951000099465 6.137085219521364 6.955236902196692 0 1 0
1068 0 2 0 5.129472921078587 2.838467373386436 11.64007392388597 1 0 0
1104 0 2 0 1.7254915480411708 3.33825345506745 6.706651719947672 0 1 0
224 0 2 0 7.800565925538165 8.455597861259584 11.442733322094469 0 1 0
630 0 2 0 7.695630887692682 6.361773569132971 10.425842185411593 1 -1 0
445 0 1 0 1.2227843672032925 12.84332011595929 8.863439105032217 0 -1 0
987 0 2 0 1.0477253458436415 -1.0919082461421095 3.1939522236674294 0 1 0
1264 0 1 0 5.622283826183186 11.766025091429508 2.6234520319269894 0 -1 0
237 0 2 0 11.626525852510504 5.145102219818476 9.836161892168382 -1 0 0
1138 0 1 0 11.340301663911916 0.3463050070631626 1.2408091488003752 0 2 0
1184 0 2 0 -3.4813997954234916 17.10567488574482 -0.3001280122294828 1 0 1
400 0 1 0 4.792898314988238 8.305979760880277 4.380235369395124 1 -1 0
513 0 2 0 7.184911387286026 0.8628356747731034 0.7356603015461125 0 1 0
925 0 1 0 -1.1352681348872076 9.583574970724207 14.003348593461398 1 1 0
366 0 2 0 3.9671148573164365 -3.69590511801366 14.566731382443502 -1 1 0
863 0 2 0 5.630038620208435 10.960932642396237 11.328333066648336 0 0 0
351 0 2 0 7.068848442294023 5.713005690161594 12.148114817344439 0 -1 0
804 0 2 0 -5.962161967917473 14.506410107764793 10.407858408906973 1 -1 0
650 0 2 0 -0.38677589563606324 9.865328090005603 10.890215312381674 -1 -1 0
1176 0 2 0 12.976188665334336 -0.37454113678921935 1.3262539099503377 1 1 0
327 0 2 0 10.281585013227346 -0.7188230328873393 7.08064223071444 1 0 0
1221 0 2 0 -2.1696975418999225 16.442338395850793 9.708609832745895 1 -1 0
163 0 1 0 4.374186195398026 0.9400956731229302 12.093982745696557 -1 1 0
330 0 2 0 2.8815556521129064 9.51113842271885 3.802884029011765 0 -1 0
255 0 2 0 -5.965008934218435 15.497154379674244 2.0717521806833488 0 -1 0
413 0 2 0 -0.5991017810977584 4.230049180762755 3.12549195610404 1 -1 0
186 0 2 0 8.975291526462808 7.0846476165955945 0.9255507450500329 0 0 0
412 0 1 0 -1.3221713350522946 4.094593055962101 3.7851200534238902 1 -1 0
1013 0 2 0 -0.18254956099708122 7.018179639821123 4.303906472964716 0 1 0
770 0 2 0 0.4359949496118218 3.5794286803589106 14.65683611935414 0 0 0
672 0 2 0 -6.222925492853677 14.836864266554915 15.17524394141508 1 1 0
2163 0 2 0 2.889083123237151 5.2100193471415 -0.30876105420038524 0 0 1
1079 0 2 0 -3.0914632982882204 5.893989089785048 6.399232495187161 0 0 0
42 0 2 0 -3.069230044683171 3.9156213739303585 12.299411663506255 0 -1 0
352 0 1 0 -4.984923238367923 17.672171506624778 7.912640476343656 0 0 0
464 0 2 0 -2.9211056746134596 14.924946223461243 8.200789045102002 0 0 0
756 0 2 0 9.976649766963241 7.881689231226267 4.127251930263499 0 1 0
1002 0 2 0 4.266964791037234 6.904594590778626 1.3356694306765484 0 0 0
855 0 2 0 2.726775583860778 3.782261983227343 3.109830468821385 0 0 0
1033 0 1 0 -0.4980643154484286 15.168910202923168 14.571511424355105 0 -3 0
1041 0 2 0 3.374860665348014 7.693662524639009 8.095758328278606 1 0 0
69 0 2 0 5.164205262540543 10.742070807793215 14.497585329465705 0 -1 0
438 0 2 0 -6.784401207609665 17.296751654765814 0.577841667771305 1 1 0
986 0 2 0 -6.915048033233658 19.222283699135243 3.2703988935460995 0 0 0
601 0 1 0 3.9005721095194845 18.47930219295065 6.471646891107015 1 0 0
616 0 1 0 6.663320043853059 16.996554037393768 7.624416760336683 1 1 0
835 0 1 0 12.697948117334471 -4.332234339548865 14.340279041198912 0 0 0
694 0 1 0 7.766133705086967 -1.1490366182810638 2.994414958439277 1 1 0
409 0 1 0 11.729783711833502 -1.3009827405647802 4.580331258942016 0 0 0
1247 0 2 0 6.326017987269432 5.971785856099974 2.692649279590417 -1 0 0
1067 0 2 0 6.639389755863265 2.8361748427112374 11.499608031023351 1 0 0
1295 0 2 0 -1.4266051838450247 4.401868132492962 11.2151037701351 1 0 0
109 0 1 0 5.451751900017374 3.964092576673985 6.331362496170501 1 1 0
427 0 1 0 -7.746283529888773 18.859647600079057 6.323524228182095 0 -1 0
1244 0 2 0 0.9648092582243687 6.792694522166595 7.661853938821151 1 0 0
771 0 2 0 -0.5476656084199736 4.654850448010069 14.163792253428532 0 0 0
1114 0 1 0 -4.018085314682403 9.369833765852109 7.705520917273347 0 -1 0
211 0 1 0 4.519177646276097 6.836433273272117 7.059613095473548 0 0 0
111 0 2 0 5.424607407023657 3.6684677171979407 7.274766547685238 1 1 0
932 0 2 0 6.728513824445249 -0.75121924044808 9.718817583057318 0 1 0
108 0 2 0 6.6056167485412525 10.987659611665894 5.522364040390984 0 -2 0
990 0 2 0 -0.219845099953257 12.384413427148964 3.856312204467729 0 0 0
968 0 2 0 13.210532048508364 1.6162594587522676 6.594007288496929 0 1 0
428 0 2 0 -7.481789982742361 18.326800293693417 5.572459398621108 0 -1 0
350 0 2 0 6.963587674837352 5.126884138448115 13.594381060875259 0 -1 0
68 0 2 0 3.6267253322034785 10.54683968119652 14.240793642954053 0 -1 0
1447 0 1 0 -0.24565049220232882 10.658294362034068 3.8391909744949366 0 0 0
462 0 2 0 -1.546880743493474 7.157203860261429 14.71275623822649 1 0 0
663 0 2 0 2.384981505010485 12.353095760623246 3.1990665395606492 0 0 0
384 0 2 0 1.144025479862615 2.5548859081965185 12.720271466465283 0 -1 0
401 0 2 0 5.341289964484163 7.548442335552478 4.563927095645674 1 -1 0
2511 0 2 0 3.8450108392717253 9.19197337641678 5.840521612305404 0 -1 0
165 0 2 0 4.674358837373705 0.1902565276705559 11.617111374718526 -1 1 0
1126 0 1 0 3.2944847178481482 1.7479046369464153 5.990776187894652 0 -1 1
893 0 2 0 6.297275398851929 12.56570755288768 7.000055779667722 0 0 0
905 0 2 0 -6.096651987904206 15.835026100074936 6.280184212021901 -1 -1 0
902 0 2 0 7.717882679825555 4.6434377392360675 1.8668086954880376 0 0 0
328 0 1 0 2.452590214361225 10.24495524912661 3.369431065312347 0 -1 0
389 0 2 0 6.459485562093085 17.09967271452322 1.0233912076460392 1 1 0
1074 0 2 0 4.063983476027575 12.626874456959305 14.006073609624767 1 0 0
911 0 2 0 0.5529006710404587 19.15767391380167 2.5765912856736852 0 0 0
1197 0 2 0 2.6252525426720035 16.00930445677695 2.5778853937925 -1 -1 0
9 0 2 0 0.45782107247721393 -3.1431819859633063 12.065337886881684 1 1 0
39 0 2 0 0.7678087225633514 0.8101690112531195 8.328616412642218 1 1 0
579 0 2 0 2.2610861532081863 9.72789973944583 1.300520820661454 0 0 1
581 0 2 0 -3.239691317739104 11.113822004850604 3.031195584253132 1 0 0
988 0 1 0 -0.16856515684243262 13.36573733027413 3.887412184052626 0 0 0
1157 0 2 0 5.045231856412082 8.436043867881445 11.423411017209753 1 0 0
339 0 2 0 8.810907912172782 -2.011105129838228 9.516493389954519 0 -2 0
388 0 1 0 7.190231336636104 16.99586731612555 0.40660747437138967 1 1 0
810 0 2 0 4.235270461635447 15.109444813951338 6.63522963284503 0 1 0
1253 0 2 0 6.073769590160921 14.99689172084954 4.491801714378811 0 0 0
900 0 2 0 -1.4938731703173764 3.981803961319874 7.124945133634379 1 0 0
1220 0 2 0 -3.512786983100016 16.881684316458447 9.261351666829459 1 -1 0
1254 0 2 0 6.446148721548719 14.87792114022759 3.0211407525896203 0 0 0
838 0 1 0 10.575586350584999 9.61963996470789 4.912012338673072 0 0 0
1103 0 2 0 1.5233315294863865 4.349768747031687 7.812637415228272 0 1 0
1182 0 2 0 7.646509459303152 14.075694630671988 7.024209296795761 0 0 0
410 0 2 0 2.2190768418985027 19.63007729651447 3.737804801847778 1 -1 0
1255 0 1 0 9.75321307153248 6.695199908708612 13.305088459939377 0 0 0
693 0 2 0 5.81127801970316 8.988343772229946 1.122615057112943 0 1 0
1206 0 2 0 9.78386342169251 10.950861378803971 -0.038290669333713834 0 0 0
194 0 2 0 2.6587536774275695 16.306741070061605 12.837048168084936 0 -1 0
25 0 1 0 5.017457768186663 -0.3740349408054706 3.867938491854881 0 2 0
1280 0 2 0 5.004931686690388 3.0526447295761003 3.17267471183741 0 0 0
1592 0 2 0 4.314450468062872 -1.3573208217207025 6.163305034132723 1 1 0
212 0 2 0 3.952939323286502 6.634642815081994 6.271454823846093 0 0 0
809 0 2 0 3.6173839727234087 15.27392441204617 5.221315658950037 0 1 0
913 0 1 0 12.808440833633163 1.251410382801216 4.711774482783058 0 1 0
1049 0 2 0 4.364989701021921 4.811627957216377 14.373161552726314 0 0 0
85 0 1 0 2.117160927076961 10.173289325169115 13.59528058875192 1 0 0
853 0 1 0 3.3786881237519366 4.5554098149305995 3.0245461726598277 0 0 0
434 0 2 0 0.1756129550019218 16.891757487325382 11.685387091546847 0 -1 0
467 0 2 0 9.538358094499197 -1.3754091613966355 12.011017374910386 1 1 0
159 0 2 0 12.419367369665768 3.6611618586281134 7.741534739851852 0 1 0
168 0 2 0 -1.1809711659789788 15.257792029983635 7.073479541815478 1 0 0
160 0 1 0 5.051975003304097 7.848947386192203 14.171321168053916 -1 0 0
1026 0 2 0 12.828386699006147 4.673306716638257 -0.15831951152927481 0 0 0
542 0 2 0 -1.435477224989852 1.4940307913378916 14.520740793937534 0 0 0
325 0 1 0 9.657341721177321 -0.8302515003163145 6.359716175743685 1 0 0
1057 0 1 0 8.936624809008327 7.9959689432962335 7.121912008571166 0 -1 0
488 0 2 0 -1.4857101104761778 17.548259737970128 3.5559047228528184 1 0 0
1034 0 2 0 -1.2793435569842937 15.45510491299406 15.132179804096872 0 -3 0
393 0 2 0 12.805929045705236 -2.783974937300858 10.803703828448404 0 -1 0
2186 0 2 0 -1.7106701891608709 8.32469204859031 -0.06220745273312611 0 0 1
337 0 1 0 9.624505463746296 -2.1159481865955443 10.029537079091321 0 -2 0
64 0 1 0 2.0782433545944974 2.718738138691932 14.233749000252482 0 -1 0
321 0 2 0 9.081821298390818 1.7107294385144762 -0.3698829909965193 -1 -1 0
769 0 1 0 -0.44035147164764094 3.9990235474709177 14.839363336187205 0 0 0
660 0 2 0 1.053362659983096 16.538675239986752 0.9885303021172827 1 -1 0
2331 0 2 0 -2.0482265590199655 15.58141466293739 2.2817384608731888 0 0 0
673 0 1 0 7.819105122794036 3.703543427513437 8.530885944487924 1 0 0
333 0 2 0 6.962630595183596 2.964394915154559 5.585018084405147 0 0 0
1189 0 1 0 -8.110747794661933 19.7399594436098 0.07233116282038743 1 0 0
674 0 2 0 8.588227929343914 3.3191089284139426 8.900336933397806 1 0 0
466 0 1 0 9.855599154894314 -1.1573443957332366 12.89477712584248 1 1 0
520 0 1 0 15.07746809754078 -1.0963341589954685 6.465199342870363 1 0 0
368 0 2 0 6.944207577321679 -2.3927298254948766 8.232107535706204 0 0 0
864 0 2 0 6.378872263047279 12.147638197948075 12.032067401725783 0 0 0
2402 0 2 0 3.5075559688461673 13.087595197120564 10.015091119184302 0 0 1
230 0 2 0 -1.774940966957073 11.935286162248048 6.856369407874979 0 0 0
538 0 1 0 7.926981569482396 1.8964216557147484 11.67952603925665 0 0 0
1268 0 2 0 -0.731173690923251 20.655792446034866 0.7132046460817272 1 -1 0
662 0 2 0 2.8238180320370216 13.869447621646817 3.3707649459564486 0 0 0
1162 0 1 0 1.813207065927294 -3.6761685327739344 11.186213350222078 0 1 0
67 0 1 0 4.264710140443443 11.017984356174782 14.773495295641307 0 -1 0
62 0 2 0 -3.200302092575545 7.023471347933983 13.382701283413487 1 0 0
659 0 2 0 1.2628294417307724 15.019476717696758 1.1010834418245063 1 -1 0
1245 0 2 0 -0.2692618671144575 6.099042741499976 6.9381040733424495 1 0 0
1078 0 1 0 -3.609846823783506 6.641237046833175 6.732679871823354 0 0 0
1146 0 2 0 -1.8263154849832197 15.7572152452901 5.069411585577639 -1 0 0
1226 0 2 0 7.53769453878072 9.949965074792125 8.58182559454203 1 0 0
967 0 1 0 13.626334312571732 1.0660781224555174 7.291594257204602 0 1 0
1180 0 1 0 8.175121226678257 14.823512906586453 6.805214947438611 0 0 0
1627 0 1 0 0.6902435557311762 4.339033652795743 1.9697299893729703 0 0 0
383 0 2 0 0.9606681942278624 1.5693461290411959 11.434301567674432 0 -1 0
317 0 2 0 8.300411936656559 11.399883878775853 2.063267643647708 -1 0 0
24 0 2 0 9.604718162027531 -3.8843016138075477 14.608976691621564 0 0 0
868 0 1 0 5.538832459842124 14.428939407275934 1.3821070777272153 1 0 0
102 0 2 0 5.084829363274775 -0.207618152756682 1.0335833250309396 0 0 0
424 0 1 0 11.39809326206939 0.35578176640080317 10.880056243405003 -1 -1 0
307 0 1 0 8.497435512074844 5.320655620652536 6.520735424441678 0 1 0
382 0 1 0 0.8041540059722133 2.484688625497956 11.785745098944474 0 -1 0
598 0 1 0 4.1783701393182655 16.1112354457212 8.464155165969062 2 -1 0
618 0 2 0 7.35297115443568 16.32097362428309 7.448981340951862 1 1 0
830 0 2 0 -3.1256714989873515 9.378855828752393 11.068856768455351 0 -1 0
167 0 2 0 -0.36648779627701844 15.614894658998676 8.456307591593372 1 0 0
697 0 1 0 -5.072965628241898 15.7319689553631 4.726688071551754 0 -1 0
956 0 2 0 -1.1664055532480546 10.57900086168727 8.895573264814317 -1 -1 0
629 0 2 0 7.937289701501981 4.9786564840367795 9.901872571214826 1 -1 0
772 0 1 0 3.185413624005131 2.4382713029461103 9.79097539104527 1 1 0
651 0 2 0 -0.8226656133998029 8.42021604491643 10.856078271156056 -1 -1 0
1102 0 1 0 1.4619636207165874 4.265039599483857 6.854414940112136 0 1 0
340 0 1 0 6.670753505047262 6.154684454255292 4.514200795222007 -1 0 0
348 0 2 0 1.8268214209158207 16.991406052885694 6.134723405445231 0 1 0
836 0 2 0 13.14395519935474 -4.794473596689667 15.035439312855095 0 0 0
87 0 2 0 1.684485030616695 10.88717083221066 13.138269276954636 1 0 0
386 0 2 0 1.1799599210491307 2.3529303688070824 3.180905852113274 0 1 0
661 0 1 0 2.550683890032578 13.206029660350927 2.789031902440506 0 0 0
692 0 2 0 4.286412743322914 9.191082796693676 1.161578257263419 0 1 0
443 0 2 0 -4.410367583573164 13.233731101058241 2.9745787270212953 0 0 0
821 0 2 0 -4.535233243924492 9.218490443649237 13.795589643702442 1 1 0
2366 0 2 0 3.119608150722741 15.825096908676684 0.15386181850982816 0 0 1
933 0 2 0 6.8892192258435765 0.4889320367041443 10.563250136589454 0 1 0
1196 0 2 0 3.9074283807339016 16.74271185717311 2.988216471466015 -1 -1 0
1628 0 2 0 0.5192879394302216 4.158403337173268 1.0319617930806306 0 0 0
1246 0 1 0 6.349429040581853 5.990488251625494 1.7437677440961479 -1 0 0
511 0 1 0 7.993091190474238 1.3909964402208896 0.8337085887446081 0 1 0
1118 0 2 0 8.755951063615884 -0.4319661309065106 13.892409475494103 0 0 0
888 0 2 0 -1.235301748729834 3.0076906315622964 9.07528904520598 0 0 0