LAMMPS data file via write_data, version 23 Jun 2022, timestep = 95685000

2592 atoms
2 atom types

0 30.944 xlo xhi
0 21.33497 ylo yhi
-0.7469105642341827 31.719625588671576 zlo zhi
-9.144178 0.9796738752964025 -10.803975842113577 xy xz yz

Masses

1 1.008
2 15.999

Atoms # full

952 0 1 0 10.898634341788975 0.033018786248943055 6.253932644501164 1 -1 0
447 0 2 0 5.922950067142442 10.742652177689848 6.473645541782881 1 1 0
870 0 2 0 11.35644204367301 -1.6171417607642073 11.416357386642932 -1 1 0
731 0 2 0 -0.12428382606348806 14.806527601382443 5.0673473466336345 0 -1 0
2510 0 2 0 7.458675410174201 0.4454789944363935 3.3001057769354762 1 4 1
342 0 2 0 5.351492299176367 1.2547260367348327 0.4706150663183979 -2 -1 0
406 0 1 0 0.3401831343278194 7.254132328485696 5.710061632556407 -2 -1 0
770 0 2 0 5.776560689120916 18.026752957813525 6.59223431090188 0 -1 0
104 0 2 0 6.974085053045452 17.005768110631884 2.55263641746507 0 -1 0
680 0 2 0 3.274772004675918 2.3771404191261194 3.354893046286878 1 0 0
606 0 2 0 1.9266934138650995 7.921164173135785 8.56070118608698 -1 0 0
201 0 2 0 9.961121104536124 1.1686483581294047 1.7629260148171646 -1 -1 0
2192 0 2 0 -5.676027047579277 15.525552482090651 5.585227824578703 1 1 0
555 0 2 0 7.531964480603844 13.093674527033972 8.187685067275249 0 -2 0
799 0 1 0 6.599110103898652 8.367841462681929 8.134969581117222 1 -2 0
446 0 2 0 6.228759767365326 10.184782372865705 7.7810010303508825 1 1 0
965 0 2 0 -2.6325531896516403 11.653682828557658 9.211837834003692 0 -2 0
824 0 2 0 0.14721533648637747 10.22130670488564 12.002493009361302 1 3 0
798 0 2 0 2.171900275318377 3.311749890989957 13.646570832015176 -1 -1 0
861 0 2 0 10.669448934893975 -2.3863296213360936 15.174066871627993 -1 -3 0
1157 0 2 0 2.1975567729757035 14.15616244326156 6.907575229795564 2 -2 0
118 0 1 0 -0.2975004867633173 8.64910145853702 1.4088018800971147 0 -1 0
752 0 2 0 -2.387002922614168 14.374604845000551 8.458995999163196 2 1 0
271 0 1 0 10.118575145777564 6.294841895115515 0.6396524196374396 1 -1 0
1142 0 2 0 0.4683287750889515 9.208153631771866 5.5475482668558636 0 0 0
537 0 2 0 -0.7856701901139826 11.59610613948764 13.713693393858724 -1 -1 0
800 0 2 0 5.940866215707786 8.119073856101346 7.4432083099008945 1 -2 0
187 0 1 0 9.805414965525744 -1.2866447912761347 13.80900659401645 1 -2 0
225 0 2 0 11.938287742786448 3.6148749169587693 7.275887558055977 -1 1 0
200 0 2 0 10.707153467092738 2.350639608278744 1.1227092402553263 -1 -1 0
24 0 2 0 -1.5604713631680052 1.3694509565890352 10.223555985485527 1 2 0
280 0 1 0 -3.792757306298678 12.651319680400839 13.899682360765203 0 2 0
826 0 1 0 2.3638125011577222 5.61843520410934 0.31218593255542326 0 -1 0
1083 0 2 0 7.153956175766239 -1.7423753743261088 12.1544167080548 0 2 0
1148 0 2 0 12.939633027823014 1.4314669196329866 10.14643694841611 -1 2 0
604 0 1 0 2.0363553568342447 8.174720647176986 7.5954974707917415 -1 0 0
954 0 2 0 10.61432702276708 -0.4704370594838583 7.082633419284546 1 -1 0
210 0 2 0 5.235577882313811 4.483304160798368 4.4866285420004575 1 2 0
640 0 1 0 -1.1373052052977264 16.717370508809505 2.123481926220612 1 1 0
1215 0 2 0 13.579817286354633 0.37955399833084047 -0.1907953618709084 0 2 0
1720 0 1 0 2.0337806172321504 -1.3498149610097836 13.726184385963837 0 0 0
1267 0 1 0 5.7405993593844045 16.844896927649256 11.480002556978633 0 -1 0
761 0 2 0 4.594232876400223 7.511644703209968 15.435861051979865 1 1 0
1225 0 1 0 7.297217432112759 8.600043468063252 1.0926507240545493 0 0 0
995 0 2 0 4.233239913280817 2.0713263108935482 5.828318517781253 0 3 0
753 0 2 0 -3.781034716374167 13.823028164985576 8.764119082233625 2 1 0
307 0 1 0 -0.4547622596465707 1.957464650010794 1.9955686916452802 0 -1 0
561 0 2 0 4.087709749857275 10.44449679733205 12.67448209567668 1 -1 0
1135 0 1 0 -0.13010881023097176 16.83462697778642 10.365396353296807 2 2 1
360 0 2 0 9.081364410860274 5.342105000446564 12.040207250269118 0 -1 0
1013 0 2 0 5.046408279223764 5.895281883590985 1.7774214242278688 -1 -1 0
937 0 1 0 2.66048726403085 -1.4603711645848816 5.235394511543417 0 0 0
224 0 2 0 11.354407062444182 4.640924843538247 8.474393168394712 -1 1 0
918 0 2 0 -7.4252993768511715 16.52930320820886 11.975337020536397 -1 -1 0
605 0 2 0 2.3477730429443517 9.074020633137433 7.476442710901974 -1 0 0
1033 0 1 0 6.631621474035212 -0.9514666519910446 8.314428883472626 1 -1 0
586 0 1 0 9.9912541520954 -0.8969762754760886 10.733571524734591 -1 1 0
568 0 1 0 -1.5274757671854913 16.73592235121654 6.474422542138862 1 0 0
1149 0 2 0 12.678553917333218 1.495702672181141 8.572356650694882 -1 2 0
2198 0 2 0 10.18091680809162 0.9935726613465479 -0.44800010207780877 0 0 0
1072 0 1 0 10.415283747405423 4.696655204860621 14.743065937079317 0 -1 0
1051 0 1 0 2.781040119096326 4.712759367175923 14.630821949601273 0 2 0
635 0 2 0 3.702588958367267 12.945222662026984 5.117695593447541 0 1 0
564 0 2 0 12.270427020062717 -2.2249370669840993 8.633244961319551 2 3 0
255 0 2 0 8.583504880159246 -0.3846966112769108 14.27811069689482 -1 -2 0
847 0 1 0 1.4935574598207577 7.308808853412808 13.206372672643631 -2 -1 0
963 0 2 0 -2.703954460875617 6.121734381309647 5.5378787553931375 0 0 0
484 0 1 0 4.001694052638706 16.40927607490185 0.963957400281565 0 1 0
331 0 1 0 0.514145018024281 -3.8368830518827264 14.865510732715572 0 -1 0
679 0 1 0 3.4301917851218304 3.007369770518089 2.602921481570343 1 0 0
184 0 1 0 5.055871425324267 9.891637220770287 1.3614003271388624 1 -1 0
423 0 2 0 -1.714367355312006 7.4509418821289595 1.7353276056184144 1 -3 0
644 0 2 0 6.064317348921578 5.94630185120093 13.891049401811392 2 1 0
2371 0 1 0 6.00156825029492 9.9000756780633 4.627891281670198 1 0 1
507 0 2 0 2.6558235610896226 13.42083696616087 2.505461148867322 0 0 0
99 0 2 0 8.36859610662208 11.20849519638578 11.321775057175666 -1 -2 0
964 0 1 0 -2.5326604657023566 11.988503115485168 10.118598888748833 0 -2 0
967 0 1 0 5.8321533400041226 -1.5091052734664028 14.472103669735999 0 1 0
451 0 1 0 -4.867597798243503 11.86425410873533 11.341120066916032 -1 -1 0
880 0 1 0 -1.911981297982959 13.148566129099843 3.250959152275987 -1 -1 0
983 0 2 0 9.20689400100655 5.7356565838880975 8.070351665480151 0 1 0
1209 0 2 0 7.932490015603043 6.7064848434892825 13.29956212043893 0 -1 0
1100 0 2 0 0.3366935167373835 -0.6527203361378238 13.974141358134917 -1 1 0
189 0 2 0 9.36139018542251 -1.876557444586132 13.201279539374742 1 -2 0
2331 0 2 0 0.13196214124161876 2.5606009326682027 5.555955002919021 1 0 0
1286 0 2 0 -2.837231717517127 16.077122726517374 1.6725605646482236 2 1 0
2278 0 1 0 9.616715073037337 1.9434988578575374 8.398078268582175 2 1 1
617 0 2 0 7.428332980172758 1.6151008218093794 -0.4560216068939873 2 2 0
58 0 1 0 3.445694615660576 5.711606224542196 11.466077786177173 0 0 0
250 0 1 0 1.4413025473718517 7.806276129469074 10.289623436720007 0 1 0
1052 0 2 0 3.506592372444102 4.160216963648828 15.01670076816048 0 2 0
486 0 2 0 4.910446668742901 16.594465710814635 1.3419949687814285 -1 1 0
2403 0 2 0 -2.518792415532316 3.8309250284642125 9.32954377023323 -1 -1 0
1605 0 2 0 0.8768942721521833 12.35765633534375 2.804536133884103 0 0 0
403 0 1 0 6.727872920271151 4.882448230907317 11.033316040022106 -1 4 0
1254 0 2 0 5.630648669674553 18.24845267865397 3.9002141525693483 0 2 0
1053 0 2 0 2.111631605439272 4.727011350984076 15.34075506411281 0 1 0
475 0 1 0 9.051485506355172 8.187082165135976 10.355396575065265 -2 -2 0
901 0 1 0 12.670722467914754 3.0230775308718116 1.1853323699571523 0 2 0
477 0 2 0 9.105094088427016 7.688739655011993 9.550460671934868 -2 -2 0
458 0 2 0 3.257700955394109 18.65092225917457 4.180379291872813 -2 -1 0
879 0 2 0 -6.341657562840474 18.048360856006372 0.7086779966723735 -3 -2 0
1034 0 2 0 5.763061304061811 -0.9403638424727239 7.829154331674141 1 -1 0
1169 0 2 0 5.4592718590790525 3.7600157715436113 2.4070404870791067 0 3 0
681 0 2 0 2.6109935563707944 3.555172544115295 2.479264658585696 1 0 0
1012 0 1 0 4.854755059917863 5.137559075555794 1.1540576944181484 0 -1 0
1505 0 2 0 -3.866092258138842 7.188805241491581 7.1269094460830855 0 -1 0
2193 0 2 0 -6.4950892408996905 16.234117364530302 4.412168921762168 1 1 1
213 0 2 0 4.309026461368236 0.7604225814183625 15.240327643016826 1 2 0
688 0 1 0 3.8376977482163395 11.535643495183031 -0.4968209599643501 -1 0 0
881 0 2 0 -1.447901624977571 13.75260596202549 3.8442861397108956 -1 -1 0
935 0 2 0 5.895688897290939 4.989762112377168 6.822540476717984 1 3 0
1241 0 2 0 3.125115049281449 20.12204946431013 1.389621100147434 0 0 0
823 0 1 0 1.0117050555698601 9.775405015931415 12.104828092706848 1 3 0
570 0 2 0 -0.590212296787633 17.0406903374507 6.5559118637897305 1 0 0
1701 0 2 0 7.322224684430573 6.307736163130574 5.61655882060995 0 -1 0
953 0 2 0 10.152339141226047 0.28476640617014626 5.714454839571028 1 -1 0
1073 0 2 0 11.107383213163486 3.994376471855152 14.900186563414586 0 -1 0
785 0 2 0 0.5972212515431866 0.5336647306857722 3.9279427656604895 1 0 0
575 0 2 0 9.640845776526925 -1.4777985569022831 9.028707557156686 0 -2 0
59 0 2 0 4.171840029053716 6.296365204822977 11.60775265048116 0 0 0
541 0 1 0 7.502372519169298 15.054931283636336 10.058849531791996 2 -1 0
585 0 2 0 -6.918848131502072 17.852140556510033 2.6458310500368984 1 0 0
820 0 1 0 9.9311239905284 4.544905892148729 5.153142306043969 1 0 0
1180 0 1 0 12.274020501807737 3.5349497254023863 3.775142437657613 0 -1 0
2377 0 1 0 -3.9821246164621154 11.99220914538508 -0.6817863365822828 0 0 0
2486 0 2 0 4.280521309646894 15.192047783447485 -0.6543607919708753 0 0 0
2351 0 2 0 -6.372806661124798 14.300709970241376 14.983172092399645 1 2 1
1245 0 2 0 6.390622519450491 0.5836186125494986 11.15322932554899 2 -2 0
962 0 2 0 -2.1045561767116 6.650905699704012 4.211451973770297 0 0 0
8 0 2 0 10.084694823341312 11.305530020931185 3.317471061929531 2 -1 0
300 0 2 0 -1.5000711358333334 19.382447744585722 -0.19893950486321965 -1 -2 0
876 0 2 0 7.737142236129556 10.600334690552137 14.687769462266282 2 0 0
425 0 2 0 4.756832642307906 3.1471967461662436 13.47168244262326 0 0 0
11 0 2 0 2.1984084131047523 11.790967944494447 0.8639565539762437 0 0 0
2438 0 2 0 1.2752418983987752 7.006878699722483 4.287078985376153 1 1 0
119 0 2 0 -0.08970800244651146 9.230327581144966 0.6257341243850849 0 -1 0
583 0 1 0 -7.280484273315556 17.87232567494746 3.549351336266951 1 0 0
144 0 2 0 4.2348121821750535 -0.9627274363305496 5.837507063106605 0 2 0
96 0 2 0 -2.0620364802844207 10.359532281513971 12.494711545098731 2 2 0
803 0 2 0 -3.9149852361937545 15.360735861801368 6.945648236924455 1 0 0
432 0 2 0 12.242365513214665 2.215878213255589 15.381248886410782 0 1 0
1208 0 2 0 8.205233998060098 7.545711981771905 12.041635408707377 0 -1 0
2330 0 2 0 0.21502054641810045 1.5051549498400836 6.641917821672234 1 0 1
645 0 2 0 7.22650069993103 4.966246945028127 13.32960980261107 2 1 0
830 0 2 0 2.557634792037093 10.465258670945339 14.973023181789673 -1 -1 0
449 0 2 0 7.886862630314161 12.737044152207954 0.19146533394254484 1 -1 0
2472 0 2 0 -0.4407069719587047 14.699371913071255 0.03868385296856669 0 0 1
394 0 1 0 -2.143661202591807 4.864617678581738 12.080307450549386 0 -1 0
924 0 2 0 -5.29195490309912 14.443522557866158 3.8110605807946003 3 1 0
1101 0 2 0 -0.7141712763696084 0.46970516260522643 13.42627462141782 -1 1 0
404 0 2 0 5.867338725649056 4.512561536675458 10.934874048532627 -1 4 0
821 0 2 0 10.308662997345799 4.660868085465953 6.043675826212353 1 0 0
599 0 2 0 3.618904036027023 5.7268763233850075 9.571152828212595 2 0 0
801 0 2 0 7.432390840668343 7.890049727090069 7.908352207224544 1 -2 0
506 0 2 0 4.057215636949744 13.201360234676002 2.150899322059736 0 0 0
982 0 1 0 9.124738763044556 6.611073353594788 7.687300456569762 0 2 0
769 0 1 0 4.8689032360042885 17.727359869835354 6.64556580655891 0 -1 0
1255 0 1 0 7.4250783386116606 1.9064886564014496 10.351650584290878 0 1 0
2495 0 2 0 -3.1669015309991217 10.695122540722402 7.168683982654526 1 1 1
834 0 2 0 3.7429069259584433 7.951458153733612 7.202085864812475 0 1 0
1107 0 2 0 11.537822019047695 1.1201986814511349 12.41243819834997 0 1 0
1284 0 2 0 0.42644141245784417 16.90874558682297 12.141864061523629 1 -1 0
1712 0 2 0 10.479075661186265 5.130626540910375 10.831536920553024 -2 0 0
2402 0 2 0 -1.9711232656317421 4.959205169374738 8.379969509540697 -1 -1 1
407 0 2 0 0.8168302270764674 7.375011615153768 6.584713690036131 -2 -1 0
143 0 2 0 5.633765660031098 -0.33078676342826996 5.469373995740073 0 2 0
2191 0 1 0 -6.4896746949334085 15.48719934952462 5.025643648513773 1 1 1
1102 0 1 0 2.563001078943727 2.100089727115508 10.570572686814256 0 0 0
610 0 1 0 0.07745537839197025 13.546740471547318 11.463850118037126 0 -1 0
875 0 2 0 7.110835836559424 11.739114367006453 13.845347494759837 2 0 0
814 0 1 0 -7.544410329957624 16.25106029958297 8.303020968412051 1 1 0
1296 0 2 0 1.8968630012400391 9.645918738638091 1.8396851584997096 0 -1 0
10 0 1 0 1.3355036862420553 11.461986836591866 1.1427035174390572 0 0 0
182 0 2 0 -2.053603056793936 17.724628170249098 5.145203700541943 2 3 0
343 0 1 0 7.672507152286705 2.5568281042070016 13.149480095171699 -1 -2 0
917 0 2 0 -6.620778216867212 15.617340885013405 13.058323663445718 -1 -1 0
672 0 2 0 8.489261151812698 -3.7211026246750873 14.44200593676843 1 2 0
874 0 1 0 6.892534367247651 10.885574693640363 14.299966591577485 2 0 0
1295 0 2 0 1.9968178354301032 8.232218510329808 2.294271497055622 0 -1 0
1604 0 2 0 1.5778249693513602 12.466584988396452 4.164900399852474 0 0 0
1143 0 2 0 1.767577876422411 9.820956417964462 4.943189023187671 0 0 0
175 0 1 0 4.756186924021511 2.858195057733228 9.50440913715541 2 1 0
563 0 2 0 12.751524279608283 -0.7699589347220517 9.038825105689948 2 3 0
239 0 2 0 12.856028450258684 1.761176320985907 4.16054940260554 0 -2 0
298 0 1 0 -2.2837896523700105 19.707670546610135 0.24416215377083017 -1 -2 0
1154 0 2 0 11.569953928240906 0.2735222345677535 14.933624985766535 0 0 0
1699 0 1 0 7.22333718600121 7.1269304094727985 5.093219022298773 0 -1 0
922 0 1 0 -4.8445656295829265 13.911612028350042 3.1634083386709997 3 1 0
702 0 2 0 1.7534741508068787 16.6278914831088 7.185823824829575 -1 -1 0
886 0 1 0 14.166247370210717 -0.5290587226139993 6.278431746168641 1 2 0
328 0 1 0 2.657661192514836 14.161729383346055 10.9909596012523 -2 -4 0
1057 0 1 0 5.415308000374967 9.223524560340625 12.979135397131637 -1 -2 0
833 0 2 0 4.471677384470841 6.889507006838281 6.391017828350356 0 1 0
26 0 2 0 -3.1592575788505783 19.215454290777505 1.510887477788637 1 2 0
611 0 2 0 1.0367112731429704 13.813061974416279 11.584646891302388 0 -1 0
1026 0 2 0 4.25693044098606 10.724464964959886 7.883820159306733 0 0 0
636 0 2 0 3.0233432715926614 11.997331000772895 6.042052697940712 0 0 0
148 0 1 0 -0.36353043024855347 19.213339273396343 3.088112937964138 0 -2 0
559 0 1 0 3.435276814324703 11.250177991830274 12.59018421118754 1 -1 0
903 0 2 0 12.680577868253048 3.6873039337244458 0.5684995115300209 0 2 0
107 0 2 0 8.855133504346941 7.61364749087104 14.853425380297436 -1 -3 0
97 0 1 0 7.70058154263702 10.761638492312281 10.768109727542416 -1 -2 0
281 0 2 0 -3.0798189982339856 13.185278455830018 13.483542704180643 0 2 0
1240 0 1 0 3.7997963629243503 19.948066358886603 0.7068316962559971 0 0 0
996 0 2 0 5.485174543588728 2.258035125899033 6.585241808243849 0 3 0
1020 0 2 0 -2.2757087636991233 9.411091861448075 4.017382605225727 2 2 0
389 0 2 0 3.886274616321832 16.392892268053213 3.268433963915907 2 3 0
707 0 2 0 0.02839269612132231 -0.5551832642303962 7.157715644863138 1 1 0
577 0 1 0 11.280795503352993 7.165323666881853 4.821373747018994 0 1 1
816 0 2 0 -6.756531022081922 16.84083564124488 8.134908014563946 1 1 0
1722 0 2 0 2.8011008245562525 -1.0292263385461036 13.254783813837921 0 0 0
1077 0 2 0 3.1983583604051655 -2.605053571083581 7.125941519398529 1 0 0
495 0 2 0 7.971416776594381 6.693886793681084 3.739371991596493 2 2 0
1294 0 1 0 2.55509064527917 8.959408476278467 2.0782452629196784 0 -1 0
2424 0 2 0 -4.953606513032927 20.12923196913899 2.556029927046498 1 0 1
628 0 1 0 -2.2398299549669796 17.769993084161733 8.97985388276504 2 0 0
1158 0 2 0 2.639798089946499 14.42283265441746 8.375671449529072 2 -2 0
358 0 1 0 9.455467682212486 4.464574170891258 12.11125079172878 0 -1 0
6 0 2 0 2.4753479580436415 5.220219302679762 7.322312289965252 1 0 0
994 0 1 0 4.543112911326283 2.543205261348873 6.600499000921834 0 3 0
473 0 2 0 11.992074977435587 -4.316534475078795 13.557046058384033 1 0 0
878 0 2 0 -5.120771372406892 17.946079975112895 1.63251798590721 -3 -2 0
867 0 2 0 5.2598468116419745 12.983533071555785 7.694484484632833 1 3 0
14 0 2 0 0.17721845620135807 14.270474749198439 8.414018393625296 -1 -1 0
1243 0 1 0 5.880110609715561 -0.14089058907459506 11.55070327392404 2 -2 0
273 0 2 0 9.492171108636882 6.1233419380484975 1.3992356863817483 1 -1 0
483 0 2 0 6.158765492759721 12.808410368289708 1.6004320117998505 0 2 0
395 0 2 0 -1.36190430062429 4.985783676746835 11.479247172635967 0 -1 0
1468 0 1 0 5.422217587329952 7.433278392197846 11.078570420717215 1 -1 0
553 0 1 0 8.141919761584836 12.797133197811286 8.867651919513182 0 -2 0
618 0 2 0 7.562416209711449 1.3159286260625753 1.0661482938469689 2 2 0
366 0 2 0 3.724521413187884 13.33360290511476 14.557842947040596 -2 0 0
1721 0 2 0 2.3728628324845364 -1.8509045435585643 14.479218590977856 0 0 0
170 0 2 0 12.947085996767294 -2.3653547759143287 14.83372789641141 -2 0 0
787 0 1 0 -4.8857812530534455 10.85892770855068 3.431926959455553 0 1 0
1106 0 2 0 12.693553670580147 0.14229920793401885 12.504523434635098 0 1 0
714 0 2 0 4.476339966882779 12.144794921341703 11.126680829291361 2 0 0
670 0 1 0 7.908614624253362 -3.5763029979177765 15.191676959084477 1 2 0
180 0 2 0 9.001091532972897 3.4056145787020973 1.561997056074583 1 -1 0
797 0 2 0 1.0296252171148117 2.387359305063921 13.349872069962444 -1 -1 0
482 0 2 0 5.3802347837459115 11.54293480591332 2.239755597856254 0 2 0
1287 0 2 0 -4.2390215121079615 16.26993792605001 1.2305840934702954 2 1 0
1676 0 2 0 -4.671408936212677 8.969414496317166 9.600799890880772 1 1 0
630 0 2 0 -2.083733678120223 17.251410480165003 8.22449329887698 2 0 0
576 0 2 0 8.51343897115016 -1.5535833109996031 8.063875674188258 0 -2 0
421 0 1 0 -2.2387146282950825 6.689480964864097 2.0298535004864515 1 -3 0
984 0 2 0 9.998780223191392 7.001429670816966 7.621054909758676 0 2 0
896 0 2 0 6.906377456106083 0.7171920327273549 7.327797006364204 0 -1 0
105 0 2 0 6.579992687253872 18.147295197955238 1.4514457842376953 0 -1 0
974 0 2 0 5.719913275515765 13.472271885821367 3.897359258343714 1 2 0
499 0 1 0 8.189708548317588 13.661720054275657 3.5352202187995427 -2 1 0
603 0 2 0 5.443444626721193 11.602248815879902 15.193264440301263 1 0 0
802 0 1 0 -4.306551376736491 16.002572407284944 6.278478640049515 1 0 0
1123 0 1 0 -1.0940839526522221 10.595546959225373 3.382167104582396 -1 -2 0
1087 0 1 0 6.490912995043075 19.9653643883028 0.8851611322708592 1 1 0
1520 0 2 0 4.001355002510986 -2.590267047644428 9.526034969729292 0 0 0
649 0 1 0 2.157112598125082 -0.333917600672911 9.798098858344467 -1 0 0
1063 0 1 0 -3.6139937943961673 9.493839472190086 12.925076139579595 -1 -1 0
264 0 2 0 6.206578326825164 1.790109442919874 3.6507501172660684 2 3 0
1256 0 2 0 7.657595445334803 2.28893719184201 11.246728234781614 0 1 0
146 0 2 0 8.740053729122875 3.5715846204983652 8.994716720736216 -2 -1 0
1396 0 1 0 0.2612219513832952 4.131888972382339 4.964849752036592 0 2 0
969 0 2 0 6.545913785250208 -2.092241444313683 14.75526734743369 0 1 0
408 0 2 0 -0.5309683207656442 6.893534470168454 5.9461022064084315 -2 -1 0
1124 0 2 0 -1.5537821780776655 11.48346472008189 3.4278674407898357 -1 -2 0
275 0 2 0 0.6973521770792839 11.821531694893697 9.887102065999178 1 0 0
95 0 2 0 -1.6768893893844503 11.37120027932567 11.42145466916224 2 2 0
642 0 2 0 -0.6554415585085559 16.351780468199994 2.915141491166375 1 1 0
2280 0 2 0 8.846406984068878 1.7521117671796218 7.8238236435037525 2 1 1
1058 0 2 0 6.084613373547166 9.851513622474455 13.320053131153735 -1 -2 0
238 0 1 0 13.004217992000715 0.812432608263584 4.0654536886247845 0 -2 0
223 0 1 0 11.604426753902755 4.510547288113443 7.517797266149534 -1 1 0
1521 0 2 0 3.5045382464264043 -1.2939937096366347 10.11201871630895 0 0 0
909 0 2 0 11.891571641012701 -0.04374798994309348 3.0573508757205037 1 2 0
448 0 1 0 6.972147654218774 13.109828506931496 0.10210688847218752 1 -1 0
2470 0 1 0 -0.32236893726913746 15.663743426362036 -0.17041124520629114 0 0 1
456 0 2 0 -0.4486774227485508 7.10524978995716 8.932987881709861 1 1 0
412 0 1 0 0.22687594709195666 19.088812644501413 -0.6896925185932979 2 -3 0
450 0 2 0 7.115760361331759 14.062941003841127 -0.11859716825029376 1 -1 0
2494 0 1 0 -2.769537898195363 11.559286456830058 7.324026419239969 1 1 1
631 0 1 0 4.8288633553277664 6.965351462607778 3.1056579411064793 0 -3 0
385 0 1 0 0.8628188961966606 15.652724181180101 4.1742705301327465 0 -1 0
500 0 2 0 7.97088068677083 12.747920674896463 3.307356309226903 -2 1 0
1137 0 2 0 -0.28587192525420524 15.924515178141446 10.012812965550953 2 2 1
1002 0 2 0 12.005444154515198 1.3200798933909228 6.445335000356284 0 0 0
253 0 1 0 7.886542880420534 0.2842239630482153 14.475458277179754 -1 -2 0
846 0 2 0 -0.686941446943553 2.5537352639486164 11.87848497983691 2 3 0
115 0 1 0 -3.6311545176951268 15.995933443716257 10.889046683833591 -1 0 0
92 0 2 0 -1.3567783367804238 12.905888732950928 1.3449471467704641 0 0 0
199 0 1 0 9.845789966292704 1.861280949910526 1.0890302564792769 -1 -1 0
716 0 2 0 8.237354771962618 10.499546664351017 2.288510834329858 -1 -1 0
2279 0 2 0 10.399234480212947 1.9329914502663001 7.884158464600057 2 1 1
424 0 1 0 4.795222858815574 3.3874352164465433 12.519436120054586 0 1 0
274 0 1 0 0.7853527461185578 11.146755772968113 9.191086128408077 1 0 0
579 0 2 0 11.608718664603039 6.937001946251417 3.930324802803253 0 1 1
849 0 2 0 0.7937571372047956 6.695397759540405 13.472529829714919 -2 -1 0
1125 0 2 0 -0.36938441699181307 10.643240602844898 4.080472556537914 -1 -2 0
549 0 2 0 8.967490171174974 9.653685719656867 4.55262200153772 0 1 0
1261 0 1 0 2.343279446100979 17.452949147741137 9.696493312640301 -1 -1 0
900 0 2 0 -1.9201226487154957 9.193852621826025 9.92383014660537 -1 -1 0
1677 0 2 0 -4.272844946101806 9.251846371385987 11.115745406678169 1 1 0
265 0 1 0 10.339458828210038 2.0151462751273646 11.234060520178605 1 2 0
2372 0 2 0 5.016487117944177 9.885727932327029 4.509431427513408 1 0 1
1555 0 1 0 0.7555527908379496 -1.986928166426579 11.222275959118809 0 3 0
938 0 2 0 1.80451608994336 -1.2332759774593467 5.710342094544782 0 0 0
276 0 2 0 0.3738511010287572 11.563416938569071 8.410869393373696 1 0 0
179 0 2 0 8.086683039780034 4.0853370088556415 0.539255412312909 1 -1 0
387 0 2 0 1.7146308143936035 15.957561430218849 4.504415798533009 0 -1 0
1397 0 2 0 -0.4856889032206425 4.6227272827057595 4.628736529904028 0 2 0
2387 0 2 0 1.3503139433999585 2.320728119269454 9.164009207144515 1 0 1
975 0 2 0 5.901949014344845 14.035828015551072 5.337407843054401 1 2 0
186 0 2 0 5.829667770533926 9.369565803136556 1.0383088429742584 1 -1 0
961 0 1 0 -2.0909226053639967 5.89511977964373 4.845348166221714 0 0 0
98 0 2 0 6.860070097711152 11.224079566683516 10.809087606119036 -1 -2 0
61 0 1 0 10.662114311212557 8.838943209076277 -0.19191994873808094 2 2 0
634 0 1 0 2.832954204870037 12.801815372045997 5.540641760004148 0 0 0
1156 0 1 0 1.9068234642613309 14.572806550043548 7.759376280206347 2 -2 0
1270 0 1 0 6.6233417935104715 13.350405907540495 13.378001852041399 1 -1 0
1263 0 2 0 11.81765970457874 -3.3709431478549945 10.416060859500176 -1 0 0
181 0 1 0 -2.3613171803416986 18.54647607849933 4.7266206813599805 2 3 0
27 0 2 0 -3.116382271763107 18.690462064015136 2.9377210315638616 1 2 0
472 0 1 0 3.5635448233284226 16.554011074509223 13.17999438651716 1 -1 0
1165 0 1 0 4.450625758260774 -3.1121979425324358 12.73959686021069 1 0 0
546 0 2 0 7.523794906809852 15.99648145260407 0.43984210487776254 -1 0 0
481 0 1 0 5.714181639638979 12.477319863972351 2.3978995901724565 0 2 0
322 0 1 0 4.631666948384829 16.16921984768747 8.905043607183527 1 0 0
1133 0 2 0 0.4056144715727795 5.6491906333259205 10.262787669130859 0 1 0
788 0 2 0 -4.140641154924578 10.369150634656751 3.0635057494477214 0 1 0
1025 0 2 0 2.9045464021058507 11.017121140312435 8.384186341012017 0 0 0
120 0 2 0 -0.6747653451337977 9.170192174962569 2.1534941753222454 0 -1 0
1103 0 2 0 3.27627992240547 2.5731982125365107 10.168626165676107 0 0 0
677 0 2 0 0.21231747397696304 11.375415271889434 6.364798049730694 1 2 0
4 0 1 0 1.563246379692114 4.87737928349458 7.271931423120996 1 0 0
503 0 2 0 9.722779889099904 11.76032166268131 0.4615330393528436 -1 0 0
1271 0 2 0 6.110299344527093 13.923687687626806 13.98713160432047 1 -1 0
1711 0 1 0 11.290638839582567 5.165567840746764 10.242600654961166 -2 0 0
1040 0 2 0 0.16563983575997765 3.5578786359350154 2.2002314180065077 3 1 0
766 0 1 0 2.953065655942171 1.3524839326573248 4.8724955637475444 0 1 0
858 0 2 0 -1.7662489584623742 4.117310720695183 0.3493091376935855 2 2 0
1181 0 2 0 11.46877097894934 4.019552394630047 4.077434579839457 0 -1 0
1065 0 2 0 -3.4154653336073957 8.793998539791325 13.500896932448585 -1 -1 0
887 0 2 0 13.754769987688649 -1.0238640527436509 7.00391323158143 1 2 0
339 0 2 0 3.3687081071346516 1.165323708453272 13.145413288298643 0 -2 0
659 0 2 0 14.427904245447763 -1.9699720171004926 9.10159836703596 1 0 0
145 0 1 0 8.348964538157025 4.452724348140504 9.012321062075106 -2 -1 0
584 0 2 0 -8.099117684873123 18.371511215230903 3.486949985777354 1 0 0
1170 0 2 0 6.950441381982111 3.6824757009030966 2.5480632619835335 0 3 0
1422 0 2 0 3.5824473891288378 8.784124556399453 5.261788397810497 0 0 0
505 0 1 0 3.252619412944382 13.597355123051084 1.803482405553344 0 0 0
2326 0 1 0 -3.1979927371870094 10.13774194581182 1.3766045280099752 0 0 1
337 0 1 0 4.122970249677721 0.580202424299344 13.47971214610454 0 -2 0
1556 0 2 0 0.5729603076352965 -2.9100281427329078 10.981245137108788 0 3 0
251 0 2 0 1.1854703524253598 8.573319028904177 10.770619258322998 0 1 0
1184 0 2 0 -3.1215265938816876 14.811297939469892 -0.4273941029987658 1 0 1
5 0 2 0 1.2139471926659395 4.802113029228948 6.393272093423862 1 0 0
142 0 1 0 5.159619881501712 -0.8383034394734605 6.1311900878919205 0 2 0
2350 0 1 0 -6.26992997587737 13.9892071217675 14.110834365773375 1 2 1
845 0 2 0 -1.3024972265229997 3.019627555586018 13.180554001147755 2 3 0
386 0 2 0 1.0543819227219242 14.873384090187406 3.6528962753741894 0 -1 0
344 0 2 0 6.953627937927827 2.9641422213583697 13.64926812801491 -1 -2 0
815 0 2 0 -7.1701912999910915 15.356802788669803 8.228396404642124 1 1 0
1213 0 1 0 13.593809382155314 1.2551968236536026 -0.609899326559012 0 2 0
1420 0 1 0 3.296096090062701 9.422649185182637 4.6322775174568775 0 0 0
22 0 1 0 -1.2543919893513467 2.2738269597723604 10.25386806152333 1 2 0
248 0 2 0 -1.0135747468126644 5.3652491617451625 13.436074884541805 1 1 0
1075 0 1 0 -5.642054188976067 18.024690284252845 7.766427052370169 1 -1 0
476 0 2 0 8.656985291836031 9.023947388897849 10.053398798579343 -2 -2 0
457 0 1 0 2.3222644539316697 18.631181776558414 4.178701503564902 -2 -1 0
405 0 2 0 6.53685980177252 5.83735056866994 11.110080130308083 -1 4 0
547 0 1 0 9.277668871582149 9.050494824719467 5.234882055803476 0 1 0
614 0 2 0 -5.320298276319009 13.357294825535675 10.384652895774174 0 0 0
494 0 2 0 7.870826409015187 5.762190153981473 2.5117611328495264 2 2 0
1064 0 2 0 -4.101246962610024 10.1211728274661 13.491773456803868 -1 -1 0
1557 0 2 0 1.1584986651039055 -2.001696856009437 12.096250589004143 0 3 0
263 0 2 0 5.157463129185335 0.6504023839471713 3.427584316373201 2 3 0
600 0 2 0 4.761740441703687 5.70191765013276 8.591799292222284 2 0 0
147 0 2 0 7.787870052698724 4.428909909274256 9.782319799756822 -2 -1 0
613 0 1 0 -5.59557209952909 14.238708585034468 10.105817158650524 0 0 0
1024 0 1 0 3.3498503776583446 10.607776670248851 7.66818042475885 0 0 0
1136 0 2 0 0.7773538045287294 17.079767991928467 10.070254463507485 2 2 1
12 0 2 0 0.8038949718892822 12.08455939014707 0.7267251806781065 0 0 0
2423 0 2 0 3.7543073969100376 -0.16073565987825145 1.5745086605668672 1 1 1
324 0 2 0 5.153252963764761 16.696688385210546 9.494649888942176 1 0 0
247 0 1 0 -0.5954593496827694 5.804480088588827 14.1651706379695 1 1 0
1134 0 2 0 1.3477331232646672 5.1048055369069045 11.378842588285968 0 1 0
341 0 2 0 4.0657125853055955 1.9017359882287708 1.0972690684440476 -2 -1 0
1257 0 2 0 8.241813349164342 1.5492505550886917 9.982313407290873 0 1 0
786 0 2 0 1.839744503148261 -0.0777254310444826 3.087275960318585 0 0 0
382 0 1 0 7.246253064929833 14.14553120678039 6.745025155960238 1 -1 0
1095 0 2 0 -2.660126666074431 8.819940780598555 6.226217498239364 -1 -2 0
902 0 2 0 13.239211150764236 2.302674969704024 0.9380127672925456 0 2 0
1675 0 1 0 -3.941022895225586 8.918025652078004 10.211745121595687 1 1 0
587 0 2 0 10.084514345680166 0.03642388349679537 10.758069914033186 -1 1 0
700 0 1 0 1.3620198756444153 17.38517636089657 6.681522388894827 -1 -1 0
1232 0 2 0 9.049336406245052 2.9524197703573187 4.7813460763441284 0 -2 0
1272 0 2 0 6.094481697159837 13.119300394006112 12.597467372014375 1 -1 0
1132 0 1 0 0.4887491439496073 5.055117604212668 11.012885334356518 0 1 0
1253 0 2 0 14.184827167043473 -1.768010271842426 4.721758613317495 0 3 0
2327 0 2 0 -3.1388938633915062 11.027465733391235 0.8687843038743233 0 0 1
844 0 1 0 -0.5859634007678517 2.4787038480987373 12.854249530601619 2 3 0
560 0 2 0 2.6333938995584183 10.866632646863241 12.223540819737524 1 -1 0
455 0 2 0 0.2638251305886853 5.910860430118765 8.134509701886032 1 1 0
650 0 2 0 1.554832548896609 -0.8038330034472181 10.437762949216847 -1 0 0
2328 0 2 0 -2.344466323586368 10.2132655628705 1.8050445045243677 0 0 1
784 0 1 0 0.871393380970376 -0.07018688717984767 3.2063799399205717 0 0 0
827 0 2 0 2.422715828186066 6.4578211085838175 -0.27758300162796506 0 -1 0
1398 0 2 0 0.825821650394298 3.985477626039819 4.129011703808934 0 2 0