LAMMPS data file via write_data, version 23 Jun 2022, timestep = 26000000

2592 atoms
2 atom types

0 30.944 xlo xhi
0 21.33497 ylo yhi
-0.9144758611770349 31.887190881418167 zlo zhi
-9.144178 0.9897864011989056 -10.915498143894142 xy xz yz

Masses

1 1.008
2 15.999

Atoms # full

490 0 1 0 -6.120058659622332 15.674715059889312 11.899650664481472 0 -1 0
781 0 1 0 2.76479075739157 -0.8911973281813061 8.072516711913298 1 -1 0
1006 0 1 0 4.606927579940943 -0.8806765285385008 13.292678523904451 0 0 0
1039 0 1 0 -1.2038413736801146 15.720423288846261 5.202319583232714 1 -1 0
1193 0 2 0 -3.3882323914751833 12.102202089403189 3.500094618411662 0 -1 0
695 0 2 0 -2.3905801586472735 16.323498905718626 2.3005880111016905 1 0 0
8 0 2 0 -4.996255943547158 13.277577938686505 13.617371881161423 1 0 0
605 0 2 0 -3.074154620612641 12.87301041687287 5.765682898928981 0 0 0
649 0 1 0 -4.7456907425316865 12.15487559957375 10.413699109116406 -1 -1 0
1034 0 2 0 8.215296785886881 -3.7665750632364516 12.761734831388301 0 -2 0
122 0 2 0 11.880367660956408 -0.3106372768811583 11.487687517669347 0 1 0
491 0 2 0 -6.380157658518233 16.18499184726678 11.131941449117297 0 -1 0
1 0 1 0 0.4095716654667021 -1.9397114236503268 7.217781030224092 1 1 0
547 0 1 0 5.965746147201919 5.254106187118602 -0.29593206609873857 0 1 0
451 0 1 0 -0.4274261677486202 16.896788885102453 0.26641378657825365 -1 -1 0
1223 0 2 0 4.37826566348687 7.877376261416587 15.04345381432244 0 -1 0
342 0 2 0 12.045579231443165 0.12007850795476527 1.4381779352761739 -1 0 0
1267 0 1 0 -0.10437157875797391 19.806811124146627 -0.25055620322399896 1 -1 0
910 0 1 0 5.275178383788047 11.734706901464836 11.731696683003936 0 0 0
805 0 1 0 2.113196106021485 1.9039575460536353 -0.7119365000481861 1 1 1
231 0 2 0 -0.13799496132855013 5.478851262448951 4.8902209917307475 -1 0 0
1008 0 2 0 5.027144419692846 -0.1884442325614204 13.926449616313395 0 0 0
240 0 2 0 -6.576355939620651 17.098027367659675 7.2271290297899515 1 -1 0
644 0 2 0 5.3228982398548 7.3657514386052085 8.544819601866314 1 -2 0
214 0 1 0 -0.9084456763562584 8.877666064033278 6.360010914325738 1 0 0
685 0 1 0 7.652309073207954 1.6155741445050156 5.551479644451629 0 0 0
2222 0 2 0 4.512631599411821 7.01701774550404 0.750504430723745 0 0 1
513 0 2 0 6.224188269823383 19.571082546242952 3.832330859103384 0 0 0
826 0 1 0 8.810524517258633 -0.6591817114090213 8.804778770623967 0 -1 0
283 0 1 0 2.402863702902087 13.701029510693452 10.861668373919075 0 -1 0
874 0 1 0 8.449049991908685 1.7242742115218848 12.32036951340084 1 0 0
88 0 1 0 9.912764763466013 2.6016907131961347 14.448636609651672 0 0 0
163 0 1 0 3.8495082939782104 5.488498656436172 12.880837526857427 -1 1 0
1035 0 2 0 7.308341677251284 -2.549350906822888 12.996257563020698 0 -1 0
1007 0 2 0 3.8800319340598444 -1.3407407624425036 13.73252633262764 0 0 0
1261 0 1 0 9.918391614917553 4.752819866590416 8.690708763384935 0 0 0
1079 0 2 0 -2.067127541182887 17.556481076400118 7.532937052252862 0 0 0
1050 0 2 0 12.752255360679015 3.0208687412871122 10.455825319047818 0 0 0
589 0 1 0 1.4304497141248944 4.676182539498107 9.85476850063136 2 0 0
912 0 2 0 4.458379136708799 11.227881495705812 11.796260158954182 0 0 0
164 0 2 0 3.797628918733537 4.875377482200584 12.089148717897924 -1 1 0
185 0 2 0 7.762827416035941 7.698316181540392 0.32025389276475447 0 0 0
1196 0 2 0 2.395877545987321 15.006619926242978 0.44519077966642984 -1 -1 0
492 0 2 0 -5.119767930524417 15.809088550596233 11.871860819931168 0 -1 0
663 0 2 0 6.433765729163228 17.867420146138517 2.0910444137231927 0 0 0
521 0 2 0 10.469018210697817 2.144775037997255 4.0043412771821725 1 0 0
2330 0 2 0 -3.5204061700122917 14.722586211778978 0.80590729381787 0 0 1
81 0 2 0 4.577797682909954 -0.09027373656574972 0.634902932282359 0 0 0
1017 0 2 0 5.789839295206492 -4.1170345869976686 13.845491219990327 0 0 0
1593 0 2 0 -1.508323986785356 4.059801194971804 11.582798859072476 1 1 0
318 0 2 0 3.607783535263901 8.962904395130792 0.5089472601770269 -1 0 0
241 0 1 0 10.875560722529698 0.44765628075852826 10.377980529075362 0 1 0
710 0 2 0 10.574559627460191 4.170386255897927 7.094417068316853 0 0 0
772 0 1 0 2.243342207814892 -2.195378538336679 12.405487209233204 1 1 0
121 0 1 0 12.417695024748976 -0.4806479288787959 12.275373325502738 0 1 0
788 0 2 0 9.119029106342976 8.5542255925881 3.9938502349130633 0 0 0
1085 0 2 0 0.4290702694182179 13.577720706234501 0.8639534369769457 2 0 0
1252 0 1 0 10.664704324480066 7.586890559834983 6.617880196606022 0 1 0
39 0 2 0 2.533654689739385 3.1522832740348807 2.2191252832412363 1 1 0
828 0 2 0 7.946852485709474 -0.4861166592459174 8.381224319606073 0 -1 0
722 0 2 0 7.2306223271777705 3.451540650316737 14.27040196720273 0 1 0
956 0 2 0 -0.3886910720657206 8.014632873306066 4.097603204338473 -1 -1 0
550 0 1 0 3.578558344366667 1.2765217397820838 6.494501687265895 1 0 0
443 0 2 0 -7.272105753058039 16.825019390466178 0.4138680080615422 0 0 0
983 0 2 0 11.16896813787205 5.497352805966205 1.5905497354110159 0 0 0
446 0 2 0 7.208177927971721 -2.9061723143653118 9.645526369997455 0 0 0
869 0 2 0 3.5941424048755297 15.897861578848667 8.428379448649045 1 0 0
86 0 2 0 -0.5881744008357819 12.071325210849672 11.192833796775997 1 0 0
527 0 2 0 2.383747763114211 3.9777592890647684 5.431443076826008 1 0 0
444 0 2 0 -5.813303877400734 16.489543271841654 0.0649975684413795 0 0 0
810 0 2 0 6.732289022436849 16.47636499779023 -0.2889918547258925 0 1 0
1222 0 1 0 5.248481358072603 7.431261195516742 15.18352265103669 0 -1 0
370 0 1 0 4.846755753971416 7.897896174179783 11.772745927001528 2 2 0
1048 0 1 0 11.9684078151437 2.8980060882228864 10.983997586171961 0 0 0
481 0 1 0 3.6893974198806467 0.14705636902193042 3.608928527392494 0 1 0
9 0 2 0 -4.740198035965844 12.514837790313674 12.31596216087621 1 0 0
518 0 2 0 2.042585856386402 16.57438330217267 11.844987650660261 0 -1 0
1189 0 1 0 -8.112450594975924 19.28082314682143 -0.7281744106581681 1 0 0
1629 0 2 0 -3.608961523011383 9.308791359470309 -0.5164074123186384 0 0 0
393 0 2 0 6.912864407398318 14.934509611366803 12.719168556746924 0 -2 0
329 0 2 0 0.1632293267978705 10.74263879469421 1.4959035150091005 0 -1 0
316 0 1 0 2.7613758166198754 9.484596240989166 0.2918585155842115 -1 0 0
1084 0 1 0 -0.316729599974312 13.00170744167656 1.0611153730776197 2 0 0
1157 0 2 0 2.021041731552488 18.458168060779542 7.091880383887659 1 0 0
904 0 1 0 -2.6192007098332417 14.045630596761324 9.7513140366858 -1 -1 0
622 0 1 0 0.6559963304098769 7.2914437516170505 1.7857548504494027 1 0 0
2365 0 1 0 3.681570844966958 15.682969908382532 -0.5826245474583982 0 0 0
820 0 1 0 -3.2464157762707395 10.531486658991604 14.503538511602223 1 1 0
2402 0 2 0 -0.6230661819869021 2.03250294639885 11.186575210049883 0 0 1
2186 0 2 0 -1.2701759627326354 8.844673646029817 -0.06361863638851117 0 0 1
50 0 2 0 14.595541157863803 -0.5132230192457793 1.3604400924743012 1 0 0
1283 0 2 0 -4.452640341797429 9.524298575163058 10.208289753441873 1 0 0
366 0 2 0 2.1621884020341424 -4.019971495588564 14.77122972304899 -1 1 0
398 0 2 0 9.32292280220066 -1.7595593159142955 5.9416059610085386 1 0 0
1221 0 2 0 -1.6112710760948241 3.622316644235189 3.2987905854702264 1 0 0
927 0 2 0 -0.005247809689417293 10.16502711797093 14.073613805458857 1 1 0
533 0 2 0 0.4135518669994589 -0.28222591664449226 14.376843558033622 1 0 0
1032 0 2 0 4.95140098432015 17.64072545318222 9.446066688109942 1 1 0
635 0 2 0 1.9966940931172898 8.15177952156658 13.728640097631787 0 1 0
284 0 2 0 2.5076798552351667 14.641189235504598 10.951122445371606 0 -1 0
991 0 1 0 -1.1653979610874068 10.585488919746954 10.322159818825519 0 1 0
280 0 1 0 7.569396660883991 1.5882050432898849 0.7211453990334407 0 1 0
193 0 1 0 1.3862583130941304 11.295777305292777 13.472292471274748 0 -1 0
315 0 2 0 -3.945844189936286 14.609725574569298 7.170356047552412 1 0 0
319 0 1 0 9.878516612441874 1.616770966837939 -0.42783316017808065 -1 -1 0
179 0 2 0 -2.573017047624398 5.930536549065184 2.8698654010570612 1 -1 0
2223 0 2 0 5.467330400576398 8.165176516026968 0.07469697350787008 0 0 0
822 0 2 0 -3.3777020404462332 11.18914297812951 13.83754818877549 1 1 0
760 0 1 0 4.77359877480978 11.228265670012297 14.938355082338042 0 0 0
458 0 2 0 4.761533533333858 10.98747674950915 4.187730941536889 0 0 0
1015 0 1 0 5.131943780102677 -4.750458431913432 14.191096551509798 0 0 0
44 0 2 0 8.200443000141668 0.028614165507390155 11.874343001427578 1 2 0
1253 0 2 0 10.996086419179901 8.01419838922271 7.408973105790926 0 1 0
520 0 1 0 10.349471373265882 1.8774246852826364 4.89237617233437 1 0 0
506 0 2 0 11.4138671099566 5.596736534348548 9.47515273596476 0 0 0
676 0 1 0 2.5904152498455204 12.254053625286389 -0.36215090047219145 1 1 0
349 0 1 0 7.750209671707009 12.13339238929371 10.220537090754457 0 -1 0
928 0 1 0 -1.9491152707153856 13.089507281016663 4.270581023740071 0 0 0
320 0 2 0 8.970073265030244 1.3998153703832847 -0.08434375794493054 -1 -1 0
195 0 2 0 2.017970968045672 10.716336799490527 13.055355839654709 0 -1 0
1219 0 1 0 -1.8248602489717538 3.007078311653461 4.009703078862119 1 0 0
101 0 2 0 8.737292632126135 -0.7759118192307674 3.157039147471248 0 0 0
95 0 2 0 1.4243033946583297 14.594325641424128 6.505133260738196 0 0 0
976 0 1 0 4.008010560659469 17.391011568131276 2.7183603137524432 1 0 0
1262 0 2 0 9.22155150540372 5.35658011585858 9.026033160307975 0 0 0
586 0 1 0 -3.7735849243870243 7.90487400539626 7.226317906801496 0 -1 0
594 0 2 0 8.861436420141633 7.685699106111684 7.0766182206764725 -1 0 0
634 0 1 0 1.6528964030685822 7.474786006441687 13.105860811677386 0 0 0
587 0 2 0 -3.0975571204058854 8.223412099578 6.583953068092406 0 -1 0
1418 0 2 0 2.199147963082434 14.928137049627242 4.2907816280612305 0 0 0
242 0 2 0 10.00702548377632 -0.004552498051179743 10.531344798292277 0 1 0
1067 0 2 0 -0.722579083019781 5.632626164484196 -0.7032462029066919 1 0 0
243 0 2 0 11.181119869903945 0.1923803192000979 9.461254198743534 0 1 0
645 0 2 0 5.668904823261541 5.830937943942432 9.137819948254382 1 -2 0
421 0 1 0 8.365987718076491 13.365049932994168 4.124275278798614 -1 -2 0
23 0 2 0 10.207318185421693 -2.9219967229013286 14.350467170110603 0 0 0
341 0 2 0 11.230241710365823 1.3405924795981807 1.1348889523113987 -1 0 0
462 0 2 0 -1.8993694812130433 7.31206961166757 15.09677954926914 1 0 0
141 0 2 0 0.5929601870862075 1.0317431653500415 3.479956285989254 -1 1 0
132 0 2 0 0.5084875171431115 2.0160794295051567 1.6710845190017518 0 0 0
606 0 2 0 -4.194186587769049 12.135064331815578 6.510090158478123 0 0 0
650 0 2 0 -4.704966404870657 11.350300904849426 9.866118792434406 -1 -1 0
671 0 2 0 -6.664962429656313 14.549251178609303 14.550631083404287 1 1 0
45 0 2 0 7.8896950289251455 -1.2479565039270284 11.04863291640145 1 2 0
1214 0 2 0 7.093425591969671 5.271250278727236 11.910145696922935 1 2 0
140 0 2 0 0.5204265981235299 0.4755191825913212 4.965909209047762 -1 1 0
686 0 2 0 8.598954813026655 1.8448126278530483 5.579225296944836 0 0 0
1063 0 1 0 -0.1896347445586642 2.6390834146626494 7.521726766958652 -1 0 0
617 0 2 0 6.977671764692919 10.805966150001462 6.117255085899756 1 2 0
380 0 2 0 5.822505695624998 4.057382133143424 5.845092517894855 0 0 0
579 0 2 0 1.0894227643378127 11.736121053542801 5.061665673351531 0 0 1
519 0 2 0 3.3134409864522514 16.563519560337486 12.669992812192984 0 -1 0
482 0 2 0 3.5306908324383444 -0.048842594062380895 2.695863339640346 0 1 0
123 0 2 0 13.268846636757884 -0.8147361342757757 11.879933106397264 0 1 0
1041 0 2 0 -1.8080883111926447 16.195074733520137 5.789558159125611 1 -1 0
98 0 2 0 13.727357724577331 1.8281182509023188 4.27461610326458 -1 -1 0
381 0 2 0 7.125081294214024 4.914740820617596 6.015825433976308 0 0 0
282 0 2 0 7.939812737891428 2.029703558175955 1.4974068910704594 0 1 0
1520 0 2 0 0.34600188203804855 6.767109559465135 8.481632460733017 0 1 0
236 0 2 0 -2.7753065380430737 19.981194153796196 1.8998928789129548 -1 -1 0
984 0 2 0 10.901687448262626 4.526837386887383 0.43218632436300286 0 1 0
373 0 1 0 1.6779803967319102 0.48271194824538277 13.019031591880005 2 2 0
1113 0 2 0 6.598895203466917 0.7569957886504604 14.977048053101624 0 0 0
632 0 2 0 5.189915337613808 6.804014797218233 4.90663896448297 1 1 0
487 0 1 0 2.4927854938719034 10.8752164187311 5.958438331487691 1 0 0
691 0 1 0 4.272590534112907 5.653543881408635 3.884797931189752 0 1 0
213 0 2 0 1.3131720232293502 -1.165178368694841 2.749080431169188 0 0 0
2510 0 2 0 3.4669034412566018 9.245498442064966 8.465567504168515 0 0 1
921 0 2 0 10.554509684652649 4.510864938993312 11.164441608697986 -1 0 0
197 0 2 0 6.984431026147714 4.651591379902653 3.100797315266382 1 0 0
489 0 2 0 3.2302084510559443 10.817807391519443 5.301227306710759 1 0 0
374 0 2 0 2.232383584642627 1.1259777067317271 13.41945997710956 2 2 0
288 0 2 0 1.607000221348604 11.67589378714444 15.210927089902253 0 0 0
238 0 1 0 -6.194783675683813 16.775906724670683 6.406533197171472 1 -1 0
895 0 1 0 7.34639819617857 9.552814141408067 10.983442989903892 0 -1 0
1295 0 2 0 -0.7188007233091454 4.2835368652878 8.14408338134709 1 0 0
1174 0 1 0 1.6727247735234976 18.783671094428016 3.771956766672286 0 0 0
801 0 2 0 5.087441822479282 -0.160489217332612 11.251517092212113 1 0 0
1213 0 1 0 7.235562070045537 4.3702676840048875 11.51900443215549 1 2 0
397 0 1 0 9.61724321426936 -2.183156994192089 6.7688609846461745 1 0 0
573 0 2 0 0.14539081606502252 16.032990931686488 11.037772129007537 1 1 0
216 0 2 0 -1.1010406408789657 9.701775772992919 6.79887025696614 1 0 0
498 0 2 0 4.996375360585175 13.599052718875912 1.325363957687256 -1 -1 0
91 0 1 0 -4.881826309046962 8.172478198945846 14.210722964408347 0 0 0
2307 0 2 0 0.05456385702453792 11.757517402113463 -0.5954387507653179 0 0 1
783 0 2 0 1.9584968864521342 -1.2773406012400583 7.657124005760069 1 -1 0
901 0 1 0 5.977156728903444 3.049001352287694 3.9185945535905127 0 0 0
1140 0 2 0 9.525903955295979 9.62653394495105 -0.628154948409809 0 2 0
457 0 1 0 3.887925943467094 10.669428376961093 3.90762433461589 0 0 0
1030 0 1 0 4.028943970816482 17.579478504816628 9.505744933748794 1 1 0
799 0 1 0 5.4024908286790065 0.5900638332906323 10.791807389165898 1 0 0
309 0 2 0 2.9530697774119536 9.950052544433628 11.017911422735661 0 1 0
99 0 2 0 12.826672659928107 1.1693131044540304 3.211039285464744 -1 -1 0
661 0 1 0 6.903187868461537 18.327302092113623 2.8083705493865083 0 0 0
957 0 2 0 -0.3905060209500607 8.994722704225204 2.9595516194021014 -1 -1 0
2509 0 1 0 2.711054783686533 9.48437465247308 9.045058604081838 0 -1 0
322 0 1 0 2.6071474127874668 2.5554288889084686 14.515173472664223 1 0 0
1077 0 2 0 8.898041828853065 10.371441000703204 5.0932994177515765 0 0 0
364 0 1 0 2.9716975873071463 -3.4235607330552322 14.699729153569558 -1 1 0
985 0 1 0 -6.704568162591901 16.874077402203767 9.397826818239562 0 0 0
338 0 2 0 7.780335230957476 -0.1394227390643592 4.959691493132094 0 -2 0
89 0 2 0 10.235533841204534 2.1194891197385477 15.27877475944463 0 0 0
636 0 2 0 2.351690252043298 6.822446034009881 12.91952904851864 0 0 0
1448 0 2 0 -3.445201324877576 9.119671359368256 1.9102788184903083 0 0 0
582 0 2 0 5.535803757543069 8.679867345482942 2.36406344415241 1 0 0
623 0 2 0 0.8848364104419448 7.870702856207744 1.0475655845671883 1 0 0
656 0 2 0 5.0406631619079745 8.479209067386995 6.861397543518135 0 1 0
552 0 2 0 3.752976339848031 1.1497350865946183 5.534461073407859 0 0 0
876 0 2 0 8.738690459854487 2.064155152315151 11.465605166764467 1 0 0
657 0 2 0 5.619820811583524 9.604485318636925 7.843148804973664 0 1 0
1191 0 2 0 -7.816427471958379 18.909019364525854 0.08749046934282734 1 0 0
652 0 1 0 4.94267661463766 4.845339012703075 15.421699833365544 0 -1 0
229 0 1 0 -0.4645700132312023 6.3342767151534 5.01995748352958 0 0 0
755 0 2 0 12.891804119395212 -0.9146696260765208 8.192509222169113 0 1 0
525 0 2 0 14.047559115827301 1.6900135463942207 -0.5654899365109087 -1 0 0
2450 0 2 0 -3.157981577083818 19.4105074040017 -0.6362751714792834 0 0 0
1591 0 1 0 -1.2496824427749662 3.6576478657259752 10.763104235184475 1 1 0
787 0 1 0 9.112930788514122 7.634876607124429 3.6753875191597594 0 0 0
1088 0 2 0 -0.8177900673225463 15.313429101633467 15.388411333597006 1 0 0
226 0 1 0 -0.9056309906373945 6.5665306617989065 13.962912391215502 1 -1 0
497 0 2 0 5.782858251931631 14.73190767009212 1.9657263732747792 -1 -1 0
363 0 2 0 7.92393552960881 8.718778236131651 15.393960536519149 0 1 0
1104 0 2 0 -2.7154141406043637 15.638676975679214 12.261491479639743 0 0 0
1012 0 1 0 -5.570898255332271 18.67014442258356 4.407264323314587 1 1 0
157 0 1 0 11.59489426682346 7.01851467391872 2.8080543497703165 0 1 0
37 0 1 0 3.459595780871676 3.362835438024204 2.0047093665863014 1 1 0
1013 0 2 0 3.5535484422751042 -1.6942913556570243 4.227561346775942 0 2 0
250 0 1 0 4.018073682056813 13.767626248327538 13.631343542669077 0 -1 0
237 0 2 0 6.8049596536426735 -0.02517699329123002 1.1415950172184246 -1 0 0
102 0 2 0 9.739273959703665 0.02455303876310211 2.268425030800481 0 0 0
602 0 2 0 4.180437421392477 14.29613919164133 5.101556994565929 1 0 0
22 0 1 0 10.307143879826327 -3.662885756285671 15.010565691548639 0 0 0
253 0 1 0 5.625647476759001 -1.9677576815901747 7.268913933448699 0 0 0
925 0 1 0 -0.6603818469595655 9.505985400248305 14.422125768624465 1 1 0
1254 0 2 0 10.793818372159029 8.22694774667672 5.89497400614213 0 1 0
1243 0 1 0 0.016544147171324575 8.071703607154117 11.30362626323454 1 0 0
351 0 2 0 7.808266358463546 11.179404540131408 10.443659899608862 0 -1 0
423 0 2 0 9.038422334428901 12.998967235201755 3.565822722319494 -1 -2 0
436 0 1 0 -2.888523887409978 19.04526455291343 3.402914627515325 1 1 0
1519 0 1 0 0.2762504706512979 7.7233716663265835 8.67006342048552 0 1 0
827 0 2 0 9.162084323036185 -1.2611507875281047 8.142143217301104 0 -1 0
1208 0 2 0 -8.159070371308221 15.894559635846141 13.422341516803254 0 -2 0
774 0 2 0 2.904938927917056 -2.2739317548989266 11.725788400540912 1 1 0
330 0 2 0 0.8304366134094953 11.047143890106488 2.8501834861918067 0 -1 0
427 0 1 0 -4.5900971647420015 15.537762593063933 4.1090600172936655 0 -1 0
1181 0 2 0 2.446081199086327 7.745174863158937 4.330050074354361 0 0 0
186 0 2 0 9.101383875812996 7.439044249021761 1.0343920568536336 0 0 0
1284 0 2 0 -4.103938597856516 9.130323936634186 8.697589660061874 1 0 0
882 0 2 0 5.768752075741355 1.0513190818422653 8.633224250242504 -1 -2 0
476 0 2 0 12.19997581741926 5.392413801099471 5.855679732948607 0 0 0
130 0 1 0 0.9153901642335456 2.448382889186644 2.418545071456896 0 0 0
721 0 1 0 7.781048205436328 4.224505338149608 14.600118827701655 0 1 0
360 0 2 0 4.440806660276097 2.499719191288834 0.8307187593885814 0 1 0
1200 0 2 0 -1.982336249805624 12.003697923532501 7.166168724412961 1 1 0
601 0 1 0 4.789128371668014 14.173059549701774 5.848617322122705 1 0 0
308 0 2 0 3.8808662641961247 9.292190865394764 12.097163201679674 0 1 0
314 0 2 0 -4.151432936829696 16.10367459195896 7.300201995464006 1 0 0
365 0 2 0 3.734669346744267 -3.9646652986006634 14.413412029803627 -1 1 0
1001 0 2 0 6.413895255721447 11.81152944320602 9.0341344621001 0 0 0
1033 0 1 0 7.597843234775785 -3.359687603495435 13.387569319308437 0 -2 0
302 0 2 0 11.393352001575732 -1.2212785380711237 4.701190934541161 0 0 0
548 0 2 0 6.145266645340187 5.3520446184656185 0.6322421894763108 0 0 0
182 0 2 0 4.9342085694751106 -2.3273255149197967 10.185029105933717 0 1 0
986 0 2 0 -7.660121261201545 17.134218192293297 9.455015627751559 0 0 0
1244 0 2 0 0.794972582643609 7.783095223325431 11.756541738433771 1 0 0
118 0 1 0 -3.291131396421504 17.172155601699917 5.952229801908062 1 0 0
835 0 1 0 12.888386876196257 -4.347324112544758 14.654730849216808 0 0 0
694 0 1 0 -1.6648496424666959 16.798285988987274 2.7507299242144008 1 0 0
1305 0 2 0 0.5679250425901892 14.933267184448924 9.08239516868084 0 -1 0
807 0 2 0 1.240757352087748 1.6167460370645332 -0.37067629858404016 1 1 1
438 0 2 0 -2.392682701488868 18.242083860619104 3.1983240143631546 1 1 0
252 0 2 0 4.778408203775653 14.24336832423991 13.29222647385649 0 -1 0
109 0 1 0 8.85831019556014 5.220992870407434 5.025357330244667 1 1 0
1521 0 2 0 -0.20344230019097836 8.221058319241406 8.00638607831985 0 1 0
1142 0 2 0 0.7299795435637348 -2.389289325420385 11.927215750325265 0 1 0
1087 0 1 0 -0.125212071905983 15.25157411162295 14.733250553528956 1 1 0
161 0 2 0 -2.9042664072043474 8.08986384425872 11.502877265676517 -1 0 0
211 0 1 0 -7.566335696453599 19.36260013614721 2.31644114720538 0 -1 0
111 0 2 0 9.64663588468931 5.25613787071107 5.602745257873444 1 1 0
616 0 1 0 7.8057219416164605 10.380571460628925 6.3764380937753975 1 2 0
678 0 2 0 2.533704845852374 11.267388160851711 -0.43907664837821087 1 1 0
618 0 2 0 8.249431775058154 10.884440198194879 7.097481600356309 1 2 0
90 0 2 0 10.812380593742077 2.8137443056699727 14.14534956585649 0 0 0
756 0 2 0 12.055997827562766 -0.45782081490885984 7.041606798516842 0 1 0
410 0 2 0 10.263966347049248 8.093342654251384 12.619475918055123 1 0 0
1192 0 1 0 -4.127467034251328 12.06274138661941 2.897490773209374 0 -1 0
1447 0 1 0 -3.3546398609818238 9.417837350418875 2.8016331414716156 0 0 0
988 0 1 0 6.96144201639351 13.886478039990742 7.921549945227927 0 0 0
452 0 2 0 -0.8393964911191479 17.025405248672183 1.1228510920982284 -1 -1 0
384 0 2 0 5.251055004012475 3.7788748151559557 9.167185931867376 0 -1 0
307 0 1 0 3.3084212850234027 10.105159108859937 11.883695379361514 0 1 0
2511 0 2 0 1.9834141873563798 8.828539296598514 8.998186415931857 0 -1 0
131 0 2 0 0.34060118638213066 3.2758964972480227 2.459512969018921 0 0 0
929 0 2 0 -1.838206274329232 14.04511148843161 4.448109347194671 0 0 0
563 0 2 0 3.4002548887440907 2.467081596437928 9.92379587611895 1 1 0
633 0 2 0 6.466339799953359 7.318049976277714 5.686406359308475 1 1 0
97 0 1 0 13.43029121349381 0.9763321685430311 3.9307693894633706 -1 -1 0
328 0 1 0 0.6834699274981302 10.326452568822292 2.220645045992137 0 -1 0
1176 0 2 0 1.136847914206607 19.236788554705786 3.139556146364292 1 0 0
428 0 2 0 -4.292823581397861 14.979345584884454 3.369323970103104 0 -1 0
2401 0 1 0 -0.2978160481747819 1.1040490402517533 11.074545024686689 0 0 0
1197 0 2 0 1.0369238251678459 15.731846619640002 0.5606274946336767 -1 -1 0
181 0 1 0 3.997909743927704 -2.105022891079596 10.2947934404003 0 1 0
212 0 2 0 -7.0578615523084105 19.668134393827668 1.5818116688563388 0 -1 0
317 0 2 0 2.229420997276953 9.60759038367855 1.1353053221768787 -1 0 0
990 0 2 0 6.98260943542869 14.563564711719646 7.203918785685781 0 0 0
902 0 2 0 5.197684451062271 2.802453837071413 3.345733427924813 0 0 0
493 0 1 0 3.1594964541843833 12.136620061277949 8.616610799112465 0 0 0
409 0 1 0 9.537613789947592 7.713711272597281 12.122996026895594 0 0 0
837 0 2 0 11.910386879567383 -4.318168499712776 14.86862421578609 0 0 0
903 0 2 0 6.385059523516303 2.2653772513682497 4.350634613880735 0 0 0
350 0 2 0 8.401477666751788 12.214760177344441 9.44337685324765 0 -1 0
948 0 2 0 -0.40486697955591655 5.834313510236163 2.27333307284 0 0 0
621 0 2 0 13.448853366477788 1.2190294379208781 8.102315137494015 0 1 0
578 0 2 0 1.091270008669421 12.926270561099386 4.02983997570071 0 0 1
116 0 2 0 7.555367706061955 5.773024263800383 13.914794257641608 0 0 0
1103 0 2 0 -3.24272048976023 15.298500905605914 10.886636207792373 0 0 0
1627 0 1 0 -2.9842327604012286 8.668864546264668 -0.0673624720996312 0 0 0
1180 0 1 0 2.809601878103412 7.930766942325677 3.4490811778060513 0 0 0
285 0 2 0 1.496357688724041 13.451934514895992 11.113105486336588 0 -1 0
693 0 2 0 5.005630994589846 5.381948538582009 3.323667729702093 0 1 0
977 0 2 0 3.7717053011116852 16.480026185490086 2.555901211492898 1 0 0
194 0 2 0 0.9516135819582034 11.91244661348344 12.82450566755751 0 -1 0
445 0 1 0 6.70641192661062 -2.682401943261593 10.445517630304716 0 0 0
1141 0 1 0 -0.2600087533354345 -2.714708501162719 11.97461496085845 0 1 0
1592 0 2 0 -0.45739103262890424 4.152119518101433 10.434622243777389 1 1 0
978 0 2 0 4.2300942954592715 17.571934196288733 3.628644410391977 1 0 0
581 0 2 0 6.137763175134198 8.640191863644167 3.7639209035918793 1 0 0
495 0 2 0 3.1111654504602773 12.9046937867226 9.238014906573161 0 0 0
391 0 1 0 6.054293688328146 15.315218545179539 12.495640395847003 0 -2 0
85 0 1 0 -0.03377027759359941 12.807710731740823 11.587515138769216 1 0 0
598 0 1 0 6.704173468029673 17.41920034757891 9.199820981484102 2 -1 0
434 0 2 0 -1.8152012562864601 13.933959200716739 13.903857160290766 0 -1 0
467 0 2 0 1.6916290244072192 12.902061957827753 8.092519973428443 1 0 0
401 0 2 0 4.118649188424655 18.92330073372237 1.7022955499230257 1 -2 0
168 0 2 0 3.6166148313390734 5.980272003696058 8.239093014326727 1 1 0
1016 0 2 0 -3.5893252028077693 15.971097746683991 14.871823050705693 0 -1 0
1194 0 2 0 -4.1729148906097215 11.12003199827695 2.622560620754125 1 -1 0
906 0 2 0 -3.0068660390373942 13.181712272268417 9.886030170034678 -1 -1 0
1023 0 2 0 13.016542278849036 0.22649903092995594 13.789003250295355 0 -1 0
1198 0 1 0 -1.2050094792090016 11.57714236812756 7.499213101798144 1 1 0
488 0 2 0 2.8322186325282646 11.088454674337282 6.870203833207109 1 0 0
517 0 1 0 2.9843524768035925 16.35487608019087 11.779284028912704 0 -1 0
2185 0 1 0 -0.3103495521986246 8.989857158656884 -0.2405047272414994 0 0 0
773 0 2 0 2.4595152844993518 -2.793692963892844 13.150984230576714 1 1 0
599 0 2 0 7.045006910985821 16.965405326234933 8.412613403707637 2 -1 0
64 0 1 0 5.319393902385353 2.7870430037319425 12.862299612335711 0 -1 0
504 0 2 0 -6.141396201575529 11.393345374620438 14.66853540013043 0 -1 0
2 0 2 0 -8.703415903726494 18.898191469856453 6.39572123731963 1 0 0
660 0 2 0 5.1221645165035135 18.803223944868577 5.302489004907709 1 -1 0
2331 0 2 0 -3.4538901082892677 13.445317961095824 1.714630432078657 0 0 0
673 0 1 0 9.322705630533834 3.2064290815433387 2.7120550549105635 1 0 0
591 0 2 0 2.194367873626766 4.176555446358041 10.044934288262557 2 1 0
115 0 1 0 7.270967698457813 6.600672932784974 13.53720079028268 0 0 0
674 0 2 0 9.833239568223847 3.859016934203817 2.235970548952312 1 0 0
466 0 1 0 0.958572526006535 13.301126145014525 7.673365474492236 1 0 0
937 0 1 0 1.842002938183914 1.4930991998965282 9.318846648235217 0 0 0
453 0 2 0 -0.965652285826268 16.257812551493178 -0.21313474797344656 -1 -1 0
1117 0 1 0 8.180819659869483 0.08492148899659302 15.425837957417858 0 0 0
2351 0 2 0 6.994727685583452 13.39634136448943 0.7371405975418392 0 0 1
230 0 2 0 -0.862976111821933 6.355072500565252 5.890001015224059 0 0 0
538 0 1 0 10.045347486823172 -1.2720269008955234 13.73805468654922 0 0 0
1268 0 2 0 -0.3533103429819869 20.235463207158453 0.5965734032072578 1 -1 0
459 0 2 0 3.9965336685736403 9.680778471868855 3.82409380183313 0 0 0
946 0 1 0 -1.084998248565032 5.142729380643316 2.114166511275259 0 0 0
646 0 1 0 -6.928050238069024 16.662324422891274 3.2096204291485106 1 -1 1
400 0 1 0 4.081379653384927 19.677361501713417 1.1722417773843592 1 -2 0
659 0 2 0 4.035093624528543 17.99519474566026 5.961235654166144 1 -1 0
496 0 1 0 5.561395837902633 14.310362020271803 1.124949593379423 -1 -1 0
542 0 2 0 -1.1528613613378536 1.1732417827034851 14.56076027196068 0 0 0
551 0 2 0 3.3769245306118827 2.230265515559981 6.5981018382331165 1 0 0
530 0 2 0 6.134991342377385 13.968197841956588 9.590305052453393 -1 0 0
198 0 2 0 7.371688126034568 5.832996872721122 2.195890459586746 1 0 0
165 0 2 0 4.371022559068188 5.099372769688872 13.574977141604245 -1 1 0
580 0 1 0 5.943248978516964 9.249105568670764 3.0073315695721092 1 0 0
383 0 2 0 6.144728661043469 4.299464557470347 7.968409947810539 0 -1 0
162 0 2 0 -1.7179827317336118 7.20308584414328 11.866746106182898 -1 0 0
67 0 1 0 3.0794299374631207 9.10125488096355 15.0847843933061 0 -1 0
868 0 1 0 3.7585034125467534 14.968355799003918 8.222084744217723 1 0 0
92 0 2 0 -3.9778539131770563 8.081690702268777 14.530432252601866 0 0 0
880 0 1 0 5.990315655955919 0.8405664942442224 7.7348726762230235 -1 -2 0
836 0 2 0 13.097330382253629 -3.4359831232573494 14.413431120722965 0 0 0
382 0 1 0 6.158902965973613 3.933950903649195 8.858410757582867 0 -1 0
923 0 2 0 -2.3626580259800134 5.505899791385688 12.856374528147008 1 0 0
447 0 2 0 6.522984617949251 -3.56167997439068 10.863690129927354 0 0 0
830 0 2 0 0.9273333239504937 7.891338268800066 6.249593778257434 0 -1 0
167 0 2 0 2.603669984884959 6.605576475367505 7.307995025760652 1 1 0
1102 0 1 0 -3.2232931951210473 16.032352227556167 11.522834848083958 0 0 0
1040 0 2 0 -0.3606618751834482 15.562924825421145 5.658448791306561 1 -1 0
18 0 2 0 6.596584738528558 16.466489875594114 3.4409723924650297 0 0 0
17 0 2 0 6.1937829193289735 15.39298377828054 4.4928564260539305 0 0 0
326 0 2 0 -5.449083552866231 13.611188675385009 6.171149537936284 1 -1 0
303 0 2 0 12.499781835481429 -0.24481347334579628 4.966648806842216 0 0 0
340 0 1 0 11.534115272406787 0.7929344382832568 1.8660909901535443 -1 0 0
269 0 2 0 15.258413801256637 -4.262661984203668 12.710957954393242 0 0 0
239 0 2 0 -6.185435825656908 17.51800524689113 5.812254574816511 1 -1 0
87 0 2 0 -0.689967377335859 13.408611699409896 12.070153837138696 1 0 0
272 0 2 0 6.979351878053126 12.187722881425 4.640798065370254 0 -1 0
847 0 1 0 -5.038836493316626 10.582557980494894 6.207169495400818 0 0 0
692 0 2 0 4.106417363330966 4.902175892706836 4.48602013009653 0 1 0
549 0 2 0 5.536322051561172 4.3770879138711205 -0.2593723189021777 0 1 0
762 0 2 0 4.623194102181638 12.024412424483351 14.473945479532853 0 0 0
66 0 2 0 5.582104405812811 2.1207575007716457 13.55290340399536 0 -1 0
38 0 2 0 3.4839162753079624 4.329788900083215 1.9855295279212308 1 1 0
16 0 1 0 6.705097890730036 15.488848821811168 3.634573017139079 0 0 0
572 0 2 0 -0.0723735053365821 15.632803413741215 12.558666007088979 1 1 0
392 0 2 0 5.833886113387412 14.922013508065891 11.633000667901479 0 -2 0
897 0 2 0 6.537136210965496 9.14471585542204 11.320784183565126 0 -1 0
1118 0 2 0 8.890541225249253 -0.2531325444412378 14.826638847935639 0 0 0
571 0 1 0 0.15402421718110315 16.35120385570857 11.94896319158503 1 1 0