LAMMPS data file via write_data, version 23 Jun 2022, timestep = 120802000

2592 atoms
2 atom types

0 30.944 xlo xhi
0 21.33497 ylo yhi
-0.8335603901467739 31.806275378764916 zlo zhi
-9.144178 0.9849031717240584 -10.861645229554352 xy xz yz

Masses

1 1.008
2 15.999

Atoms # full

2280 0 2 0 1.7063277785047193 11.995881006004861 7.794148738018345 3 1 1
1231 0 1 0 7.004562369517243 3.7028062817776752 8.532387596727112 0 -2 0
445 0 1 0 -4.632560644669883 16.056283990306927 6.766105492501861 1 0 0
575 0 2 0 -3.590616288308341 12.657777874092451 9.081832801243563 0 -2 0
358 0 1 0 4.95397023214259 -1.7926774446429665 5.428945934095291 -1 -1 0
2424 0 2 0 11.96010902501482 -0.919839534066932 4.455266307124835 1 2 1
1083 0 2 0 -4.623584401768664 17.357378973948702 0.7557975417263827 0 0 0
1104 0 2 0 -6.134088566307409 20.61053117714241 -0.3992216546207627 1 -1 0
2350 0 1 0 8.599884435799908 -0.9416870744871979 5.249748499302605 0 3 1
217 0 1 0 5.416274948052714 11.980816206241036 5.610540867920135 -2 -2 0
946 0 1 0 -3.068709822045761 19.272824992241862 2.924446209838968 0 -2 0
380 0 2 0 -0.24815606111088412 10.341470871193618 2.0821803958872347 2 0 0
116 0 2 0 -5.011667063581137 18.05951367363084 8.750049694388204 -1 0 0
1011 0 2 0 1.365391002162258 -0.07280228792359633 5.760379194038895 -1 0 0
469 0 1 0 4.995663577226201 0.6308890147127335 2.47791854074187 -2 -2 0
685 0 1 0 10.223116786943807 10.019058632145002 1.6824882750525645 0 -1 0
146 0 2 0 -3.2123784718749384 9.267080086654676 0.8690550277186713 -1 -2 0
2495 0 2 0 6.192550974967562 2.3291674776992495 8.945579848687997 0 0 1
975 0 2 0 7.563057394757894 15.833024995480091 6.0449598411267935 0 1 0
2403 0 2 0 -4.5363212380567255 8.08995826012029 10.048650668623416 0 -1 0
130 0 1 0 9.46491113434716 6.714389824651733 15.034499613323412 0 0 0
718 0 1 0 0.5039166747660875 0.5806294530563592 9.358847604691073 0 1 0
657 0 2 0 8.84515663196034 7.1195376951551035 11.376787590535812 1 4 0
1060 0 1 0 8.642322075063841 10.432965887970052 12.402694479354992 -2 -1 0
1117 0 1 0 5.148723131888433 8.946898166903429 0.7522264327030352 0 0 0
271 0 1 0 3.901607587986115 16.8581978245266 8.486626764425788 1 -3 0
1612 0 1 0 12.30326420565699 -0.5073513422217006 14.58794473235355 0 0 0
2545 0 1 0 -7.885814661658326 19.51126091796128 2.47433785827855 1 -4 0
186 0 2 0 2.066232202146481 14.919577653695356 10.103966394460917 1 -2 0
907 0 1 0 6.24708281397568 7.168745983112251 13.192485165400592 1 3 0
915 0 2 0 5.887994312960952 -2.481053263024318 12.655126698849427 2 0 0
612 0 2 0 5.183754643184114 2.303586718659499 12.501152919945866 0 0 0
1262 0 2 0 -6.730228220736463 15.905544166063088 1.2229414777070975 -1 -1 0
321 0 2 0 0.6024617481987222 19.59965038399785 1.0247395802336108 -1 -2 0
168 0 2 0 -2.034730371692649 11.093136771094574 14.62544133658696 2 2 0
932 0 2 0 0.37287226039423244 13.43674199453384 14.181928902579116 -1 0 0
491 0 2 0 3.5818205550542275 5.102932209625974 -0.10802750112097947 0 -1 0
218 0 2 0 6.084982277516821 12.052967407182411 4.9073673363438415 -2 -2 0
631 0 1 0 13.681901807263348 -1.5174806142026307 7.857617063046327 1 -2 0
1281 0 2 0 -1.1273516334935563 7.677890675259853 9.452372985200437 0 0 0
1271 0 2 0 5.309101430228876 10.220432524751768 11.431086836725907 1 -2 0
2422 0 1 0 11.15747288252015 -0.4996229922260256 4.064718234694845 1 2 1
909 0 2 0 6.940006943071993 6.818988836101129 12.60376725757853 1 3 0
244 0 1 0 0.7010441307502391 15.027619606321421 7.483491377791015 -1 1 0
182 0 2 0 3.0828179391275783 15.07257600540732 12.589818986162578 2 4 0
1043 0 2 0 5.295889980800099 2.825289735476132 5.165402680807385 0 1 0
368 0 2 0 6.889111329797941 -4.7636915390774295 13.594179172320759 1 1 0
795 0 2 0 0.24172269573947752 -1.4665326155721408 13.508024037116945 0 4 0
743 0 2 0 -3.2107093562715905 13.793401149694706 3.610512592968097 0 0 0
1305 0 2 0 4.114174840934945 4.850712003069686 4.3206572377715435 2 1 0
981 0 2 0 12.73497993092585 6.11544986345126 -0.7195080802577941 0 1 0
847 0 1 0 0.07924752215082623 15.58921201034327 3.7531981937690375 -2 0 0
1149 0 2 0 -0.09467138196676078 4.457629863508061 13.795372910079609 0 3 0
614 0 2 0 -2.8051351928578008 12.596786858462607 11.384174875397841 -1 -1 0
81 0 2 0 0.6364215321422644 8.801210678462121 0.15739383992672729 -1 1 0
1700 0 2 0 11.427967870275154 0.7375549647200295 2.69386856313586 0 -1 0
1058 0 2 0 3.7171417598094854 10.51358726769534 8.271334620464742 -1 -2 0
366 0 2 0 -2.2543195058110057 8.80589493979786 12.300804055649257 -2 1 0
1267 0 1 0 14.410483800047665 -1.9476117679672265 11.497090025411367 -1 -1 0
882 0 2 0 -5.292583883013057 17.32112917031174 4.273805553517945 -1 -1 0
919 0 1 0 -3.4352702267527064 11.383668599306178 5.647179285220972 -1 -1 0
517 0 1 0 3.0002535182764283 1.6639024268623812 3.989214619849549 1 1 0
801 0 2 0 6.349941092100669 -1.4694925063060578 10.408722206989196 1 -2 0
319 0 1 0 1.308420049308224 19.61856679041017 0.36415139833180743 -1 -2 0
428 0 2 0 6.8042923533305935 13.826704314793348 15.232201623602728 -1 -1 0
2306 0 2 0 -2.675090141978561 7.575400878915407 -0.5150301461838358 0 0 0
85 0 1 0 -1.872867346125926 14.971255561991935 6.268067508168737 1 -1 0
568 0 1 0 7.842405782064487 10.768747092846478 8.8220982363115 1 0 0
525 0 2 0 2.127625628524289 -0.8718650983619627 12.620769794231517 -1 0 0
421 0 1 0 -0.2095096569875708 17.270605724767062 1.3310598252031172 1 -3 0
881 0 2 0 -5.037862335451866 15.96631403309047 3.6114405350087413 -1 -1 0
1280 0 2 0 -0.39298073731352096 8.896787044249937 8.98171560716466 0 0 0
917 0 2 0 -0.08131855091121765 14.274401450296997 10.502524704739841 -1 -2 0
1160 0 2 0 4.16986379237848 11.807869191090028 14.823334406865204 5 1 0
117 0 2 0 -3.9113442395954277 17.007359928892438 9.185393900443234 -1 0 0
1210 0 1 0 8.612460676123773 9.214934788934174 5.879222970003968 2 2 0
913 0 1 0 5.619478460696728 -2.4295788594096313 11.74646202155863 2 0 0
272 0 2 0 3.9409127146422747 16.543045662690595 9.41725965448736 1 -3 0
817 0 1 0 -1.3877112999524062 10.837096148826069 7.277877978379037 -2 0 0
587 0 2 0 7.137697449806546 14.300022580792191 11.685294933279346 -1 -1 0
1109 0 2 0 -6.100834296379045 12.226419842888502 15.065804984623515 3 2 0
454 0 1 0 -1.4495610814634363 7.349272269454376 6.412833967814699 2 2 0
844 0 1 0 6.865244155859735 9.564056819650759 3.631498956262819 1 1 0
873 0 2 0 4.422554818442883 -0.9761735355748868 14.241855996974715 -1 -1 0
2460 0 2 0 3.98325473127173 7.854129292018417 5.6451843004363065 0 1 1
1614 0 2 0 12.35492561728757 0.07080777838698804 13.816193563278807 0 0 0
2523 0 2 0 9.470150155115732 13.205872121632133 -0.7813264141179702 0 0 1
1159 0 1 0 5.0194755267658175 11.768035502048441 14.3285294432781 5 1 0
641 0 2 0 7.013240189671867 3.8776963719625064 12.616560785337441 1 2 0
1215 0 2 0 12.025259557403203 0.9540585684934882 -0.56666755315057 0 2 0
39 0 2 0 1.1456376985482586 -4.0743396352005865 12.46351369726593 2 2 0
78 0 2 0 8.200962363349836 4.439720263154145 9.351040467139649 -2 1 0
1095 0 2 0 8.431640424882058 7.36245007851922 2.2550038822725478 -1 -2 0
1222 0 1 0 7.713532405455715 6.77614798501728 7.043570988984435 -1 0 0
610 0 1 0 4.409424925487813 1.8525085413841555 12.897724636869183 0 0 0
212 0 2 0 2.727406420539936 2.3314672758387918 2.3889481626752644 1 2 0
992 0 2 0 3.0120309213818848 -4.104097197722873 11.6971190823784 0 1 0
1118 0 2 0 5.201290274762307 8.335707489138647 -0.01612893710537555 0 0 0
1076 0 2 0 12.156011737086967 1.2928939042990746 8.899689639776566 1 0 0
1182 0 2 0 1.248095138855811 6.561789363232741 10.09656699606105 0 -3 0
128 0 2 0 -2.1846397951149896 16.30001499907453 10.12739762152965 -2 -1 0
93 0 2 0 1.571066234120123 5.4134326196585665 0.7021320279581433 0 0 0
1103 0 2 0 -6.881992822891203 20.022959646873986 0.8002887785887707 1 -1 0
723 0 2 0 -0.8471582627667967 0.8095228166848583 6.878509471319061 1 1 0
823 0 1 0 11.135285530219837 6.749622292376712 9.758155831804254 0 3 0
308 0 2 0 -2.725026620366465 5.8310610314410125 2.4327959949089197 0 0 0
2185 0 1 0 11.558024507841292 5.285364367952509 11.826093949687218 -1 0 0
1148 0 2 0 1.194335997036665 3.997109863510648 14.364444216888305 0 3 0
36 0 2 0 10.076973702470372 -0.579711310553713 6.372292311719832 -2 1 0
665 0 2 0 12.263610119838265 3.6733081123179487 8.175769950700806 -1 -3 0
576 0 2 0 -4.743437803755597 13.515102101633559 9.537132471184663 0 -2 0
2494 0 1 0 5.96088164924233 1.3905342877870797 8.978908244098454 0 0 1
705 0 2 0 6.358402210896624 20.14293469448728 -0.7843131430277394 0 -1 0
149 0 2 0 1.4746197517181998 12.638673516005747 1.9289630138138274 0 -2 0
76 0 1 0 9.086965845432774 4.607827422437403 9.73374501266608 -2 1 0
832 0 1 0 -1.0140925872757616 17.529364704702125 9.239363399067864 0 0 0
65 0 2 0 6.2741885221927784 18.679818490601424 3.6309289418385626 -1 -2 0
839 0 2 0 10.496398775106934 -3.698593528044028 12.888936994046347 0 1 0
1044 0 2 0 4.754475750327408 3.6413582054450604 6.298638247813948 0 1 0
974 0 2 0 6.580540995460497 16.854922696130657 5.467269722138879 0 1 0
1304 0 2 0 4.31862350267921 5.545083649811511 3.007013184702349 2 1 0
122 0 2 0 0.6000829482099581 -2.6843403847579714 15.054421712331285 -1 2 0
1101 0 2 0 4.362450503597292 1.5066191245528961 9.831806982734278 -1 2 0
478 0 1 0 -2.8814287698190877 12.790068177340476 0.5695211789040151 0 -3 0
731 0 2 0 13.018470111087284 2.4434011711901342 1.6408418704036833 -1 -1 0
625 0 1 0 9.01356538252022 11.40505716068864 -0.33997043726522175 1 0 0
1146 0 2 0 6.377856607644698 10.6037282632895 14.593188070977524 -4 -3 0
825 0 2 0 10.545299822163946 7.471826322040806 9.966417938586105 0 3 0
534 0 2 0 0.6610884586352508 6.499960050451239 3.658813570285205 2 2 0
2438 0 2 0 2.052494568063129 6.846657623365915 7.441869368609822 2 2 0
818 0 2 0 -1.0489182311676295 10.031833036811953 6.770904537362755 -2 0 0
849 0 2 0 0.7768329605877856 15.431783960426824 3.170400560909955 -2 0 0
234 0 2 0 -7.460199549941921 15.443591799214687 8.326409195585574 3 -2 0
514 0 1 0 12.305874107336471 4.418251845579002 -0.35171785886298135 -1 1 0
450 0 2 0 4.550166841565963 4.924148235263308 8.504604994442508 1 -1 0
840 0 2 0 9.227250167773901 -4.398227753484361 12.653282833623262 0 1 0
941 0 2 0 4.179242079725245 -1.4085414085428307 11.403957173628795 -1 -2 0
2269 0 1 0 13.626243707252044 -4.05401267578906 15.253510652887092 1 1 1
414 0 2 0 -2.6360061265274806 18.319702342925563 -0.20449675913611476 2 -3 0
626 0 2 0 9.465004205869825 10.712417594912147 0.18884753262405796 1 0 0
367 0 1 0 -1.7138091784494212 15.954520244711368 13.053128566720389 1 0 0
280 0 1 0 2.3461802877877806 -2.787486483712568 8.98783351974572 1 3 0
71 0 2 0 12.43043357913783 1.9994685366566523 5.895602913372182 2 1 0
379 0 1 0 -0.4609465959080051 10.53629648075607 1.1564516402817633 2 0 0
397 0 1 0 9.623256275916017 3.9926506713331897 0.3871752458954205 2 -1 0
752 0 2 0 10.961261621180043 3.322970314285995 3.173855752164342 1 1 0
2327 0 2 0 8.401412987880763 0.09108026781155165 2.2398654815079415 -1 1 1
184 0 1 0 1.1645609485775383 15.285947451513021 10.260094467801983 1 -2 0
59 0 2 0 8.264377192397927 2.2667358285053694 4.0342109525388565 1 0 0
496 0 1 0 0.9025901714891098 18.393857219544245 3.817998300277722 -1 -2 0
408 0 2 0 2.436182253699084 10.568435739921295 1.3016092388666838 -2 -1 0
349 0 1 0 -1.763317142667928 18.288624486200575 6.578789037355829 1 0 0
744 0 2 0 -2.6459783044038048 12.637611619055361 4.273483105631577 0 0 0
1075 0 1 0 12.729748113090334 0.73615631791345 9.400090699603755 1 0 0
245 0 2 0 -0.21293134354244264 15.192658550258308 7.185844760717709 -1 1 0
516 0 2 0 12.65708146568737 3.758077097149019 0.2711575465943459 -1 1 0
725 0 2 0 -4.081822367013309 5.609012965649245 14.320551938036774 0 0 0
538 0 1 0 5.7225022302947455 -4.3314998740398964 15.28849291747697 1 -1 0
276 0 2 0 -1.447554779380845 4.045440492642033 6.863923538888357 1 -1 0
2470 0 1 0 -3.0707183959000073 15.6151585294135 -0.03771080612358213 0 0 1
211 0 1 0 2.649713248790021 2.617082647994963 1.4339714856924668 1 2 0
1036 0 1 0 -0.30164387242227847 11.20247984951581 11.916272084577335 1 1 0
246 0 2 0 0.6874997044631734 15.383531011773842 8.40770782749118 -1 1 0
1249 0 1 0 4.3970549770266585 13.032945370379585 0.5138965568195459 1 0 0
1054 0 1 0 3.993464315655868 19.76499673737899 1.3261550913627196 0 0 0
570 0 2 0 7.325735508795926 10.516553705164789 9.565354087820483 1 0 0
1286 0 2 0 -2.7219621618671654 8.229649456814382 5.188934847022921 2 1 0
1181 0 2 0 0.066602645963029 5.518629237981282 10.085973582651773 0 -3 0
955 0 1 0 2.8121940515627526 4.403900606107615 11.849266133410321 0 -2 0
611 0 2 0 3.8745435112698523 1.6135590126370545 12.109057821274215 0 0 0
632 0 2 0 13.216035687563922 -0.9266976268706104 8.437244953686783 1 -2 0
163 0 1 0 6.606535408910492 11.26674760742684 1.0237711317349087 1 2 0
2264 0 2 0 4.9092311964205715 18.787961711792242 0.0343652303492481 0 -1 0
172 0 1 0 5.294238317483258 9.922751404580307 7.354857528639812 2 -1 0
110 0 2 0 6.855829648814386 12.312897547502683 2.5856282468382754 2 2 0
343 0 1 0 1.9266933524600238 15.607276155936026 1.3909794738084682 -1 -2 0
274 0 1 0 -2.263720833861331 4.501288359835158 6.723662429233674 1 -1 0
1270 0 1 0 5.891405206154893 10.936070510200473 11.317326422424244 1 -2 0
179 0 2 0 0.7518720507415173 12.43438232310053 5.764979872009042 1 -2 0
574 0 1 0 -3.9274032986718326 13.535866993685195 8.947849310421507 0 -2 0
398 0 2 0 9.381207524129994 3.679987344492209 -0.547565378615839 2 -1 0
183 0 2 0 2.6292064936089 13.586058522208159 13.151451122915864 2 4 0
523 0 1 0 1.6381331969018869 -0.1677786574683049 13.17087856464599 -1 0 0
2373 0 2 0 0.4117668046477159 2.6402410706141364 12.181103787258 1 0 1
1296 0 2 0 3.2568659138010916 -2.7184860036986005 13.619956398100744 0 0 0
1432 0 1 0 5.6655130094128525 14.962043868969648 3.3095529663386163 -1 -1 0
1279 0 1 0 -1.192443650410727 8.379031184011254 8.808697202173635 0 0 0
542 0 2 0 7.124978679095794 7.687456242318303 10.119309516045904 2 0 0
350 0 2 0 7.972333304041524 -2.3186611251589007 6.4386456619945 1 1 0
1010 0 2 0 0.5628982478763003 0.43542756895940005 4.6529810656390636 -1 0 0
1105 0 1 0 -0.21400733949252482 5.763536019972722 0.350721736793401 0 1 0
962 0 2 0 -1.6662483848535172 3.2860747570906046 12.672835570713586 0 0 0
233 0 2 0 -6.47891556257019 15.755935066996171 7.053936630355428 2 -2 0
964 0 1 0 5.533688969463281 6.395455838922212 2.1859388731032343 0 -3 0
793 0 1 0 -0.4745238201666152 -1.9873005471160812 13.964498197464103 0 4 0
309 0 2 0 -2.259181549253214 7.292582394636633 1.9615432465621487 0 0 0
432 0 2 0 0.9879121644023555 1.9801288046832126 1.0322735985642144 0 1 0
672 0 2 0 2.4976358820533537 13.809569797857186 4.155510158065017 1 1 0
2458 0 1 0 4.113285331220027 7.568362627691876 6.5495544652352775 0 1 1
77 0 2 0 9.5241118542419 5.287126806015067 9.214578395362446 -2 1 0
1037 0 2 0 -0.558628856791005 12.092303253868511 11.56340176268573 1 1 0
702 0 2 0 4.861048408285946 16.957492960988304 2.7379556130580034 -1 -1 0
870 0 2 0 8.350419509145969 3.879100112099221 14.53829426959222 0 0 0
1276 0 1 0 4.328975952839318 5.529690083450399 13.989904894879626 2 2 1
2486 0 2 0 1.8490266003914166 14.660070591378636 -0.0001333074871432416 0 0 0
374 0 2 0 4.7169660403478915 13.84308452116528 11.994311980194603 2 3 0
1294 0 1 0 3.682252818611123 -2.4617065200867425 14.434243409295036 0 0 0
519 0 2 0 2.235909357796659 1.0501572978260678 4.270304310430827 1 1 0
441 0 2 0 -0.3355896720464522 6.878653529329665 12.672949759727997 -1 -1 0
111 0 2 0 7.89035802080124 12.395667595801315 3.7707536596179603 2 2 0
871 0 1 0 5.156665052141649 -0.34725918254295873 14.410778751799528 -1 -1 0
1077 0 2 0 12.436607756157366 0.7067942269907186 10.28490760084798 1 0 0
205 0 1 0 -7.429318382842814 15.005957195878437 10.171066662067563 4 1 0
712 0 1 0 4.5376633357094525 14.227924667042952 7.021112856665953 3 0 0
899 0 2 0 2.5776054492758527 11.236568002274922 4.356323457500896 -1 0 0
969 0 2 0 8.817338784099 1.7459721313318064 6.087098392203048 0 1 0
131 0 2 0 8.759765758088847 6.083647313547477 14.836298215767789 0 0 0
449 0 2 0 4.717302620395644 5.944175346186839 7.302851460534637 1 -1 0
388 0 1 0 4.553637248673711 0.4686758652807961 6.8489853213161895 2 2 0
213 0 2 0 2.7884124186097545 3.579158423128578 1.3891001473756992 1 2 0
668 0 2 0 8.767830388803628 0.044037095308393504 12.091820402296015 2 1 0
730 0 1 0 13.705329829295295 3.0586465177965843 1.417958044686399 -1 0 0
480 0 2 0 -3.1470285070648876 13.57142354611678 0.10390716074855022 0 -3 0
670 0 1 0 3.0345747272712935 14.534062749571707 4.400220612885707 1 1 0
682 0 1 0 1.850210667731881 6.837122778140401 14.33174610087511 -2 1 0
490 0 1 0 4.407899060936778 4.864792866216131 -0.643127188283443 0 -1 0
880 0 1 0 -4.581339697526158 16.660471029082494 4.104996567369926 -1 -1 0
634 0 1 0 -5.542380925498956 13.346824830823518 5.987877914319763 -1 0 0
933 0 2 0 0.6946066622466064 12.213187829081964 13.271200147838831 -1 0 0
2487 0 2 0 1.378583452957719 13.32264179162754 -0.7412658460725376 0 0 1
900 0 2 0 3.963620665913172 11.039830796957522 5.032568934072471 -1 0 0
594 0 2 0 -0.003294732763946151 9.504320030456306 4.511004900916495 -1 1 0
2423 0 2 0 10.711684870898683 -1.3059889091498422 3.734799022843533 1 2 1
1676 0 2 0 2.8543868997069386 7.428841780026763 3.2303364047548575 2 1 0
1102 0 1 0 -6.433124427142773 19.77509473310281 0.011655037549014535 1 -1 0
2244 0 2 0 12.318720189030486 -1.4876390496994887 11.441585168270969 2 2 1
819 0 2 0 -0.5741783034276728 11.392740397618496 7.4871020907147585 -2 0 0
543 0 2 0 5.698401872965673 7.860147003019565 9.571317281935677 2 0 0
411 0 2 0 -3.465707445077015 6.353637964088177 10.599438786575933 0 1 0
66 0 2 0 5.0015661636073485 18.357335369670523 4.5445418939317035 -1 -2 0
10 0 1 0 6.412764644622552 3.414793276693924 3.808743256658838 0 0 0
430 0 1 0 0.17754744905765896 1.4957198613433573 0.7211119580101353 0 1 0
799 0 1 0 6.4355574978646475 -1.2146492678782752 9.51624467763717 1 -2 0
158 0 2 0 -0.6927625617660098 7.4079116218667505 14.93977188162461 0 1 0
193 0 1 0 -0.8721295424131468 1.1496303356142819 4.189131562358345 0 -1 0
963 0 2 0 -1.266469524788382 4.435882132566353 11.762418931882266 0 0 0
796 0 1 0 3.3947002708875496 1.0055987745532224 -0.6354558621285726 -2 -2 0
540 0 2 0 5.049038129178595 -3.9161124777718825 14.758384904575097 1 -1 0
552 0 2 0 7.624445257659035 6.856051643028211 -0.5725541916300756 0 0 0
544 0 1 0 4.796515635711679 15.46983325007516 -0.2961315394193078 -1 0 0
1085 0 2 0 0.502262343079316 2.90881461164864 7.397942214023393 2 1 0
965 0 2 0 5.209619634303696 7.225119454310365 1.785852499772063 0 -3 0
423 0 2 0 -1.0491739860515445 16.88870810958844 1.712100830657445 1 -3 0
400 0 1 0 3.5295793115251604 13.418280057252487 9.504021853958907 4 1 0
1287 0 2 0 -3.8623102744246536 8.390988421445613 4.235752950190756 2 1 0
916 0 1 0 -0.689456663432471 13.46900061150324 10.633035720902441 -1 -2 0
541 0 1 0 6.592022622441016 8.114025229569691 9.419640889700704 2 0 0
2459 0 2 0 4.510702978674948 8.303228748651353 6.994422694362524 0 1 1
1591 0 1 0 3.9001613644985262 16.474624353683673 11.468215174133645 1 3 0
742 0 1 0 -2.356037845864807 13.482772110612691 3.952279479928877 0 0 0
171 0 2 0 9.656477381436073 -0.19880211474641918 14.798135765295463 -2 0 0
532 0 1 0 -0.04860725546361544 6.301764753353082 4.249845785536193 2 2 0
109 0 1 0 6.990547201757152 12.587133644831273 3.4876337112419176 2 2 0
1396 0 1 0 -4.965778803809981 13.430318181125156 2.661547038805784 1 3 0
127 0 1 0 -3.0192029269887835 15.883674820830487 10.418867555887537 -2 -1 0
232 0 1 0 -7.392600176773886 15.621409636518745 7.401290369542908 2 -2 0
524 0 2 0 1.5535983574218815 0.63648399539285 12.609165357719098 -1 0 0
1277 0 2 0 4.941050289639225 5.9666466438690176 13.4505320382029 2 2 0
2193 0 2 0 10.941497091554504 -1.914248140068115 8.181418404026761 -1 0 1
429 0 2 0 5.940370324283658 13.171702624229985 14.29070552776893 -1 -1 0
546 0 2 0 4.838361985498069 16.026146677402366 0.4922730535672184 -1 0 0
686 0 2 0 9.556744859099377 9.293055916992051 1.9006336869715699 0 -1 0
750 0 2 0 9.63451259056249 2.042149909594226 15.30325208795171 -1 2 0
227 0 2 0 -1.6899629149648812 15.820182497201971 3.1818767218446844 0 0 0
606 0 2 0 -2.8218601658841806 10.352414446810302 10.146881915906992 -1 -1 0
498 0 2 0 1.130998686724484 17.657270700888326 4.411845605170544 -1 -2 0
1272 0 2 0 6.726084914471101 10.72580035748116 11.754513209212513 1 -2 0
1042 0 1 0 4.5162288925068665 2.883042829088903 5.755158563542306 0 1 0
1239 0 2 0 12.938233683655719 -2.062507297748903 6.343688950227864 3 1 0
1261 0 1 0 -5.803565290126918 15.894934018449351 0.9803794677995805 -1 -1 0
1398 0 2 0 -5.4542092003788545 14.207223736148594 2.457059948107517 1 3 0
72 0 2 0 11.18674211615512 1.5555961133307583 5.040645191483002 2 1 0
1593 0 2 0 4.786198532389494 16.547704449042065 11.882852862623565 1 3 0
1100 0 2 0 3.330676332658717 0.4401405773146405 10.33537141291573 -1 2 0
991 0 1 0 -5.438689612289902 16.61751527315026 11.365836151249091 0 0 0
1263 0 2 0 -5.657824544937867 15.261071605906675 0.29502924203379677 -1 -1 0
820 0 1 0 7.250139886417413 5.499574217237187 0.359462280949822 1 0 0
1180 0 1 0 0.5458819123727954 6.207764311564855 10.66629658957232 0 -3 0
401 0 2 0 4.366694501321878 13.487584198640125 10.000098866438096 4 1 0
2326 0 1 0 8.614562557174962 -0.8562049396879864 2.4369895383884344 -1 1 1
80 0 2 0 0.37339766373542255 7.297112062278289 -0.24112154301186273 -1 1 0
679 0 1 0 0.6636581807126412 3.47491011944319 4.252031983456178 0 0 0
848 0 2 0 0.16615680723234597 15.085939874018743 4.547621190142419 -2 0 1
592 0 1 0 -0.5242069010982331 10.090109285199413 3.911213189963828 -1 1 0
681 0 2 0 0.36688422271902643 4.382581208862925 4.0915193349605445 0 0 0
342 0 2 0 1.1296421658692313 8.662366831400139 6.809979741326133 -2 -1 0
1070 0 2 0 9.383583489173247 -0.6563173241287479 8.788409169135138 1 1 0
273 0 2 0 4.036059086275896 16.07713170049967 7.9608013812388165 1 -3 0
2589 0 2 0 10.112627560811028 2.7258282453132328 13.167771677508405 -1 0 1
680 0 2 0 1.5139055324294388 3.464603221080965 3.8794988637372763 0 0 0
1106 0 2 0 -0.7385977481362027 6.107042527852669 1.0645363032928872 0 1 0
2191 0 1 0 10.764301081811555 -2.5893601008128306 8.858074952027204 -1 0 1
364 0 1 0 -2.6874404607886118 9.61633014887461 12.04672344311161 -2 1 0
618 0 2 0 14.090794398828406 -1.2185733201059437 14.45974535559796 2 2 0
1059 0 2 0 3.28617646317401 11.607280745046076 9.1928188399116 -1 -2 0
46 0 1 0 -4.975521668259695 14.75138204266463 13.270833987291242 2 0 0
708 0 2 0 2.4235487899774295 15.861287396696826 5.291936732078359 1 0 0
1519 0 1 0 4.013161159673375 7.320898982465028 9.825050427685207 0 0 0
70 0 1 0 11.464469283990612 1.858602315972023 5.912535663675555 2 1 0
2439 0 2 0 2.3752230823353355 7.624534565536553 8.759835000679486 2 2 0
584 0 2 0 -1.570258595842684 14.770240858718939 14.170312877119207 1 0 0
1223 0 2 0 7.009875489462964 6.937940666334114 7.7236454667515115 -1 0 0
426 0 2 0 6.8757925274748395 13.809840996532822 7.90775249705008 1 2 0
2587 0 1 0 10.619191246392873 2.729516868881187 12.332005330003208 -1 0 1
1071 0 2 0 7.893392749103677 -0.7161294240278426 9.293417120805922 1 1 0
2242 0 1 0 11.336856072089605 -1.480353477065635 11.350975566098231 2 2 1
2352 0 2 0 8.43181273421587 -0.17485436210332872 4.713862533007422 0 3 1
173 0 2 0 6.134390703189562 9.796560418012488 7.8062592991840205 2 -1 0
593 0 2 0 -1.4105957269798413 9.665888043242887 3.8744420332923166 0 1 0
115 0 1 0 -4.118405137031301 17.746537657444073 8.582296737234518 -1 0 0
405 0 2 0 1.810193956376218 8.307880484387601 13.197858772577957 0 4 0
940 0 1 0 3.211557059357365 -1.212370475939248 11.171727143118083 -1 -2 0
714 0 2 0 5.34669890466655 14.685940166775561 6.765794387279412 3 0 0
505 0 1 0 14.767298563059542 0.0825923525702501 3.018974176700588 0 1 0
275 0 2 0 -1.9844716798942357 5.410496843560649 6.495172979223625 1 -1 0
422 0 2 0 -0.5600467302691774 17.51308755163195 0.4290456395458411 1 -3 0
2371 0 1 0 1.0779398481362106 2.021216779952405 11.811266218499956 1 0 1
2328 0 2 0 -1.3857677101796892 20.01709158455192 2.5479252184118395 -1 0 1
872 0 2 0 5.045455330195133 0.3628694067911544 13.743375698204135 -1 -1 0
648 0 2 0 -5.457901147297158 12.093137797523593 3.5324923327057407 2 0 1
1224 0 2 0 8.200807403253092 7.606100813051347 6.9236251404098565 -1 0 0
60 0 2 0 9.521023163219203 1.729285437908623 3.363236359902393 1 0 0
2192 0 2 0 2.2273776168618213 17.97665182018531 8.764409338958805 -1 -1 0
973 0 1 0 6.6307438854369165 15.97008941311859 5.894785499759632 0 1 0
2295 0 2 0 6.57819594917795 -1.4612343561232866 14.332388674301582 1 0 0
740 0 2 0 10.115660513911912 3.420619992004196 9.011203053273162 0 1 0
11 0 2 0 6.512905834218767 4.341188853716916 4.125972526413426 0 0 0
87 0 2 0 -2.1249360944504763 14.338148262049955 5.603152412068419 1 -1 0
455 0 2 0 -1.0564779385118468 7.737943568392717 7.200464224023845 2 2 0
2471 0 2 0 -2.9822472110518845 15.792690460857237 0.9329792714606768 0 0 1
957 0 2 0 2.127655741210413 5.1012830165409735 11.775580805249565 0 -2 0
61 0 1 0 6.636118019050533 5.99392323850504 4.652717339039009 3 4 0
700 0 1 0 4.165818936065501 16.993775543858398 1.9958596635084613 -1 -1 0
719 0 2 0 -0.4227612472146657 0.7629918347894007 9.047994144226966 0 1 0
180 0 2 0 0.09221675743784036 11.836997146326736 4.506567832042115 1 -2 0
982 0 1 0 -0.12185778073300008 3.8161080423575333 9.290049546698437 1 2 0
91 0 1 0 2.5012741610516445 5.391671657915088 1.034977615201893 0 0 0
407 0 2 0 3.456107390702233 9.482441518787203 1.0579921194542952 -2 -1 0
642 0 2 0 7.118460393547725 3.1196027409615734 11.275727178690557 1 2 0
529 0 1 0 8.551800028175549 1.6128526642151662 11.028899293567118 -1 0 0
393 0 2 0 -5.769572596576203 18.97562570002701 5.287890022001493 2 -1 0
448 0 1 0 4.770473980607495 4.9790532527208455 7.540170284907319 1 -1 0
35 0 2 0 11.189266820273014 0.14475850057147754 6.782663710788289 -2 1 0
219 0 2 0 5.714566657964213 12.5843450015075 6.301373316588746 -2 -2 0
838 0 1 0 10.047565641297046 -4.2570160569211595 12.174175764795539 0 1 0
1123 0 1 0 -5.350959085402807 9.288998389330121 13.246691025228396 0 -2 0
1232 0 2 0 7.565317815152328 3.2721768309941974 7.82890169231443 0 -2 0
947 0 2 0 -3.525463434440357 19.353490334449894 3.7693786806065868 0 -2 0
669 0 2 0 9.758220216089914 -1.1753459006537184 12.246826709611598 2 1 0
1675 0 1 0 2.123590214866355 7.543735288615583 2.632172223780897 2 1 0
344 0 2 0 1.3141717790092422 16.33893230281844 1.2284985364911964 -1 -2 0
1244 0 2 0 5.312562999797717 8.823440546581974 3.6851243973398065 2 -2 0
746 0 2 0 12.120504540275387 -3.5700209346016862 14.615745368720953 -1 -1 0
845 0 2 0 7.375325259747624 9.045800554542517 2.9806132654040725 1 1 0
2278 0 1 0 0.835500968975132 12.368281240528633 7.36073856767254 3 1 1
683 0 2 0 1.875134781044908 7.395466635602892 15.147388611556662 -2 1 0
1264 0 1 0 -0.43080400616431097 13.243710146519248 1.6186174150906325 1 -1 0
615 0 2 0 -3.6771528797808135 13.481579015132283 12.315992498207068 -1 -1 0
640 0 1 0 6.4786423436018055 3.6100642716121554 11.843798912002828 1 2 0
918 0 2 0 -0.7511416110207962 13.084228853990757 9.748809635231163 -1 -2 0
477 0 2 0 2.502246866520027 2.250918110519466 15.42933061556945 -2 -2 0
706 0 1 0 2.190793909227655 16.731180974373807 5.679438881099346 1 0 0
635 0 2 0 -5.015457639903421 12.563084617817708 5.717558168815303 -1 1 0
1278 0 2 0 3.677188075938774 6.246046762817835 14.260242426305492 2 2 1
1081 0 1 0 -4.24526147507224 18.231328906986132 0.6247281526964921 0 0 0
97 0 1 0 0.10467807621721154 -1.7105766149147286 10.869800194833077 0 -2 0
998 0 2 0 3.801047174135106 9.048298006221797 12.611322247270442 0 1 0
150 0 2 0 2.9617027473374393 12.651669675078919 1.4909107829365014 0 -2 0
106 0 1 0 12.73953468215072 1.0413723857703268 12.457469349959776 -1 -2 0
684 0 2 0 1.237413041604881 6.077365779694548 14.507689026509421 -2 1 0
129 0 2 0 -3.1979756228807097 15.190008222908538 9.846711879301111 -2 -1 0
1521 0 2 0 3.984616368841843 7.74316857529796 10.72583153509464 0 0 0
440 0 2 0 -1.8431014119789866 6.492902885968772 13.100311456112962 -1 -1 0
753 0 2 0 10.80226725384685 4.234962688719406 4.391659830267413 1 1 0
689 0 2 0 0.8988099645308263 10.93520525802591 -0.2573049122120411 -1 0 0
2351 0 2 0 9.024151165854212 -1.5757584076801887 4.639308166438781 0 3 1
1107 0 2 0 -0.7304511216337917 5.052645560874018 -0.0035801469410934317 0 1 0
822 0 2 0 6.87973689583552 4.79047822073274 -0.19249604768264073 1 0 0
1056 0 2 0 4.345171640840578 20.322536246370873 2.081632457220674 0 0 0
425 0 2 0 7.565512116224996 12.498137614172869 8.020184682458694 1 1 0
1251 0 2 0 4.2413619794085555 12.523305071464307 -0.35708870786221397 1 0 0
920 0 2 0 -3.320154263228161 10.65019375577946 4.970683651724594 -1 -1 0
834 0 2 0 -0.12866838588078883 17.813289772869037 9.261373880910902 0 0 0
569 0 2 0 8.492620449197199 10.042203867845807 8.862097679895372 1 0 0
656 0 2 0 8.42636012855861 5.786903906223671 10.811806240553832 1 4 0
1677 0 2 0 2.226927043917037 8.446967706446982 2.2539404190300063 2 1 0
359 0 2 0 -3.412081399756804 19.053158603413383 5.8057410268386445 -1 -2 0
1220 0 2 0 5.369447369109979 1.9320310906803455 1.0255538866195375 1 -1 0
38 0 2 0 1.1213220968418198 -2.658594936665475 11.7528125730869 2 2 0
578 0 2 0 0.23837430983210378 9.968675620081061 14.115058390133632 0 1 1
1485 0 2 0 2.7306673291445813 2.2928362868186967 8.98502984672086 1 1 0
148 0 1 0 2.356052486369171 12.21214457134141 2.1022355571841356 0 -2 0
2496 0 2 0 6.651585359366201 0.9766449639160175 9.43080952362049 0 0 1
1397 0 2 0 -4.479995493130475 13.145676242545873 1.8536410921877815 1 3 0
531 0 2 0 8.727650598588339 1.003183142626308 10.282750990087793 -1 0 0
655 0 1 0 8.02544366892219 6.598125503312368 11.20959543633761 1 4 0
1250 0 2 0 4.396346940175285 13.98902538137653 0.1529577542041085 1 0 0
577 0 1 0 -0.3533092658463643 10.14743366951952 14.886935728584398 0 1 1