LAMMPS (23 Jun 2022)
include procedure.lmp
echo both
include		in.partitions
variable        pid world 0
include		in.temp
variable	temperature equal 255
variable        tempDamp equal 0.100 # this is 0.1 ps
include		in.pressure
variable        pressure equal 6079.5
variable        pressureDamp equal 1.0 #this is 1ps

variable	barostat string	   tri
variable	direction string   z
variable	direction_x_bool equal 0
variable	direction_y_bool equal 0
variable	direction_z_bool equal 1

include		in.seed
variable        seed world 745823

units           metal
atom_style	full
box tilt large
read_restart 	restart.lmp.${pid}
read_restart 	restart.lmp.0
Reading restart file ...
  restart file = 23 Jun 2022, LAMMPS = 23 Jun 2022
  restoring atom style full from restart
  triclinic box = (0 0 -0.83356039) to (30.944 21.33497 31.806275) with tilt (-9.144178 0.98490317 -10.861645)
WARNING: Triclinic box skew is large (../domain.cpp:224)
  2 by 1 by 2 MPI processor grid
Summary of lammps deepmd module ...
  >>> Info of deepmd-kit:
  installed to:       /u/sigbjobo/software/DEEPMD_FROM_SOURCE/deepmd-kit/install
  source:             v2.1.3
  source branch:       master
  source commit:      5a32c49
  source commit at:   2022-07-01 09:52:58 +0800
  surpport model ver.:1.1 
  build float prec:   double
  build with tf inc:  /u/sigbjobo/software/DEEPMD_FROM_SOURCE/tensorflow/install/include;/u/sigbjobo/software/DEEPMD_FROM_SOURCE/tensorflow/install/include
  build with tf lib:  /u/sigbjobo/software/DEEPMD_FROM_SOURCE/tensorflow/install/lib/libtensorflow_cc.so;/u/sigbjobo/software/DEEPMD_FROM_SOURCE/tensorflow/install/lib/libtensorflow_framework.so
  set tf intra_op_parallelism_threads: 0
  set tf inter_op_parallelism_threads: 0
  >>> Info of lammps module:
  use deepmd-kit at:  /u/sigbjobo/software/DEEPMD_FROM_SOURCE/deepmd-kit/install
  source:             v2.1.3
  source branch:      master
  source commit:      5a32c49
  source commit at:   2022-07-01 09:52:58 +0800
  build float prec:   double
  build with tf inc:  /u/sigbjobo/software/DEEPMD_FROM_SOURCE/tensorflow/install/include;/u/sigbjobo/software/DEEPMD_FROM_SOURCE/tensorflow/install/include
  build with tf lib:  /u/sigbjobo/software/DEEPMD_FROM_SOURCE/tensorflow/install/lib/libtensorflow_cc.so;/u/sigbjobo/software/DEEPMD_FROM_SOURCE/tensorflow/install/lib/libtensorflow_framework.so
  restoring pair style deepmd from restart
  2592 atoms
Finding 1-2 1-3 1-4 neighbors ...
  special bond factors lj:    0        0        0       
  special bond factors coul:  0        0        0       
     0 = max # of 1-2 neighbors
     0 = max # of 1-3 neighbors
     0 = max # of 1-4 neighbors
     1 = max # of special neighbors
  special bonds CPU = 0.001 seconds
  read_restart CPU = 0.052 seconds
include 	in.setup
variable	out_freq equal 2000
variable	out_freq2 equal 2000

timestep        0.0005

neigh_modify    delay 7 every 1

include         in.deepmd
# This is deepMD model

# create groups ###
#group ox type 2
#group hy type 1

mass 2 15.999
mass 1 1.008

pair_style      deepmd ../graph.pb
pair_coeff      * *

bond_style      none
angle_style     none
dihedral_style  none
improper_style  none
neigh_modify exclude none


neighbor        2.0 bin
neigh_modify    every 50 delay 0 check no

thermo          ${out_freq}
thermo          2000
thermo_style 	custom step temp pe etotal epair emol press lx ly lz vol pxx pyy pzz pxy pxz pyz

restart 	${out_freq} restart.lmp.${pid} restart2.lmp.${pid}
restart 	2000 restart.lmp.${pid} restart2.lmp.${pid}
restart 	2000 restart.lmp.0 restart2.lmp.${pid}
restart 	2000 restart.lmp.0 restart2.lmp.0


timer           timeout 23:50:00 every 1000
New timer settings: style=normal  mode=nosync  timeout=23:50:00


# Set number of time steps
variable 	nsteps_wall		equal	 6000000
variable 	nsteps_enhanced_coex    equal	150000000

variable     nsteps_enhanced_coex_upto equal (${nsteps_wall}+${nsteps_enhanced_coex})
variable     nsteps_enhanced_coex_upto equal (6000000+${nsteps_enhanced_coex})
variable     nsteps_enhanced_coex_upto equal (6000000+150000000)


# Set temperature for first step
if "$(step) < 1  " then    "velocity 	all create ${temperature} ${seed} dist gaussian"


# Always run thermo and barostat


######################################
# Run simulation with wall potential #
######################################
if " $(step) < ${nsteps_wall} " then    "fix             3 all plumed plumedfile plumed.equil.dat outfile plumed.equil.out"   "fix             1 all nph ${direction} ${pressure} ${pressure} ${pressureDamp}"   "fix             2 all temp/csvr ${temperature} ${temperature} ${tempDamp} ${seed}"   "run             ${nsteps_wall} upto"
if " $(step) == ${nsteps_wall} " then    "unfix 3"   "unfix 1"   "unfix 2"


############################
# Run enhanced coesistence #
############################
if "$(step) == ${nsteps_wall}" then    "fix             3 all plumed plumedfile plumed.start.dat outfile plumed.out" else    "fix             3 all plumed plumedfile plumed.dat outfile plumed.out"
fix             3 all plumed plumedfile plumed.dat outfile plumed.out

if "$(step) < ${nsteps_enhanced_coex_upto} && $(step) >= ${nsteps_wall} " then    "include         in.dump"    "fix             1 all nph ${direction} ${pressure} ${pressure} ${pressureDamp}"   "fix             2 all temp/csvr ${temperature} ${temperature} ${tempDamp} ${seed}"   "run             ${nsteps_enhanced_coex_upto} upto"    "unfix 3"   "unfix 1"   "unfix 2"
include         in.dump
dump            myDump all atom ${out_freq2} dump.water.${pid}
dump            myDump all atom 2000 dump.water.${pid}
dump            myDump all atom 2000 dump.water.0
dump            myDump2 all dcd ${out_freq2} dump.${pid}.dcd
dump            myDump2 all dcd 2000 dump.${pid}.dcd
dump            myDump2 all dcd 2000 dump.0.dcd
dump_modify     myDump append yes
dump_modify     myDump2 append yes

fix             1 all nph ${direction} ${pressure} ${pressure} ${pressureDamp}
fix             1 all nph z ${pressure} ${pressure} ${pressureDamp}
fix             1 all nph z 6079.5 ${pressure} ${pressureDamp}
fix             1 all nph z 6079.5 6079.5 ${pressureDamp}
fix             1 all nph z 6079.5 6079.5 1
fix             2 all temp/csvr ${temperature} ${temperature} ${tempDamp} ${seed}
fix             2 all temp/csvr 255 ${temperature} ${tempDamp} ${seed}
fix             2 all temp/csvr 255 255 ${tempDamp} ${seed}
fix             2 all temp/csvr 255 255 0.1 ${seed}
fix             2 all temp/csvr 255 255 0.1 745823
run             ${nsteps_enhanced_coex_upto} upto
run             156000000 upto

CITE-CITE-CITE-CITE-CITE-CITE-CITE-CITE-CITE-CITE-CITE-CITE-CITE

Your simulation uses code contributions which should be cited:

- USER-DEEPMD package:

@article{Wang_ComputPhysCommun_2018_v228_p178,
  author = {Wang, Han and Zhang, Linfeng and Han, Jiequn and E, Weinan},
  doi = {10.1016/j.cpc.2018.03.016},
  url = {https://doi.org/10.1016/j.cpc.2018.03.016},
  year = 2018,
  month = {jul},
  publisher = {Elsevier {BV}},
  volume = 228,
  journal = {Comput. Phys. Commun.},
  title = {{DeePMD-kit: A deep learning package for many-body potential energy representation and molecular dynamics}},
  pages = {178--184}
}

CITE-CITE-CITE-CITE-CITE-CITE-CITE-CITE-CITE-CITE-CITE-CITE-CITE

Generated 0 of 1 mixed pair_coeff terms from geometric mixing rule
Neighbor list info ...
  update every 50 steps, delay 0 steps, check no
  max neighbors/atom: 2000, page size: 100000
  master list distance cutoff = 8
  ghost atom cutoff = 8
  binsize = 4, bins = 11 9 9
  1 neighbor lists, perpetual/occasional/extra = 1 0 0
  (1) pair deepmd, perpetual
      attributes: full, newton on
      pair build: full/bin
      stencil: full/bin/3d
      bin: standard
Per MPI rank memory allocation (min/avg/max) = 7.311 | 7.312 | 7.312 Mbytes
   Step          Temp          PotEng         TotEng         E_pair         E_mol          Press            Lx             Ly             Lz           Volume          Pxx            Pyy            Pzz            Pxy            Pxz            Pyz      
 120802000   255.6772      -412.20427     -326.57465     -412.20427      0              6302.726       30.944         21.33497       32.639836      21548.471      6205.912       6815.6933      5886.5727      188.69877      2203.1444     -1241.9275    
 120804000   255.71314     -413.72892     -328.08726     -413.7292       0              6474.3812      30.944         21.33497       32.762537      21629.477      5171.9899      6816.4025      7434.7513      102.49245     -1113.7929      1082.9709    
 120806000   252.3403      -414.78483     -330.27278     -414.78514      0              5938.2716      30.944         21.33497       32.5272        21474.11       5420.5192      7131.0728      5263.2228     -25.041367     -595.72354      213.19685    
 120808000   253.64171     -414.80877     -329.86085     -414.80753      0              5596.0422      30.944         21.33497       32.330634      21344.339      6874.8836      5159.3482      4753.8947     -413.43841      1618.1167     -153.38653    
 120810000   252.90107     -414.77637     -330.07651     -414.77487      0              7718.5222      30.944         21.33497       32.317065      21335.381      7848.3531      7628.5357      7678.6777      692.40863     -242.28666      187.10132    
 120812000   256.2184      -411.24384     -325.43296     -411.2397       0              6914.026       30.944         21.33497       32.318253      21336.165      6684.3532      6519.6838      7538.0409     -2.798673       1696.8846      418.65118    
 120814000   250.38422     -410.76446     -326.90752     -410.76458      0              4984.7122      30.944         21.33497       32.380335      21377.151      4650.8605      5564.0857      4739.1904      1860.4384     -670.49465      460.73904    
 120816000   256.33296     -417.21831     -331.36906     -417.21748      0              7233.6476      30.944         21.33497       32.357268      21361.923      7213.2224      6454.5958      8033.1247      965.40059      621.28967     -840.78992    
 120818000   256.08499     -414.27894     -328.51274     -414.27928      0              7385.8215      30.944         21.33497       32.577649      21507.416      7856.9791      5765.9263      8534.559      -443.28948      680.79117     -249.34818    
 120820000   248.98411     -414.78503     -331.397       -414.7851       0              5694.9569      30.944         21.33497       32.502377      21457.722      7653.5388      5060.5774      4370.7546     -1383.3189     -458.44757     -1318.7543    
 120822000   247.10393     -414.27951     -331.52118     -414.2783       0              7467.1454      30.944         21.33497       32.438129      21415.306      7544.5921      7182.2531      7674.591       444.20537      833.9388      -420.9466     
 120824000   249.93821     -412.94843     -329.24086     -412.94721      0              6352.6306      30.944         21.33497       32.306351      21328.307      5769.0146      6542.7607      6746.1165      1479.8511     -213.5315      -1585.4921    
 120826000   257.89856     -412.13306     -325.75947     -412.13213      0              6582.3287      30.944         21.33497       32.532044      21477.307      6458.4811      6371.3399      6917.165      -1080.8059      532.93393      1891.8651    
 120828000   259.42894     -411.29681     -324.41067     -411.29609      0              6668.4949      30.944         21.33497       32.529078      21475.35       6070.7306      9653.4563      4281.2978     -53.301495      45.822628      1979.0589    
 120830000   253.46987     -413.46911     -328.57875     -413.46778      0              5899.886       30.944         21.33497       32.471405      21437.274      4885.5777      6469.4269      6344.6534      1780.8455     -192.14881      209.26299    
 120832000   266.71336     -411.66287     -322.33709     -411.66153      0              6513.9645      30.944         21.33497       32.581804      21510.159      7420.7144      6756.7858      5364.3933      1188.1892      177.02735      486.86903    
 120834000   252.70201     -412.69864     -328.06544     -412.69834      0              7871.1887      30.944         21.33497       32.602298      21523.689      7074.0104      10573.552      5966.0035      279.17757     -1063.9113      174.94079    
 120836000   252.76757     -415.23752     -330.58237     -415.2377       0              6914.9552      30.944         21.33497       32.424852      21406.541      7349.6707      7303.0894      6092.1054     -925.86322      1134.4761     -1375.5527    
 120838000   248.75702     -412.84822     -329.53625     -412.84749      0              5096.0328      30.944         21.33497       32.567102      21500.452      4542.02        5618.4382      5127.6404      530.34107     -426.6403       363.7309     
 120840000   261.03263     -413.46844     -326.04521     -413.46731      0              6551.9921      30.944         21.33497       32.5864        21513.193      8566.0218      4341.0574      6748.8972      59.363724      16.049317      2921.2124    
 120842000   251.45139     -413.31889     -329.10454     -413.31878      0              8465.6266      30.944         21.33497       32.580983      21509.617      8895.8478      7120.755       9380.277       2063.827      -559.71836      567.10907    
 120844000   256.39693     -413.2114      -327.34073     -413.21083      0              5307.8079      30.944         21.33497       32.384722      21380.048      3165.6465      6095.389       6662.3881      282.83805      415.32625      1148.2278    
 120846000   250.96732     -413.73865     -329.68642     -413.73709      0              5999.3292      30.944         21.33497       32.45699       21427.758      4827.0949      5537.9927      7632.9001      1507.1712     -1028.6765      720.4863     
 120848000   255.69353     -413.37984     -327.74475     -413.38011      0              3828.5281      30.944         21.33497       32.55208       21490.535      4470.5826      3213.8326      3801.1691     -1299.6414     -728.59196     -132.11627    
 120850000   253.30464     -414.35547     -329.52045     -414.35571      0              6430.5422      30.944         21.33497       32.621206      21536.172      7869.7627      3880.4821      7541.3819     -1089.604      -1039.5986      998.92022    
 120852000   257.12095     -411.24961     -325.13645     -411.24907      0              6012.1163      30.944         21.33497       32.808713      21659.962      6807.5978      5951.3994      5277.3516      570.12538     -1768.3859      684.24629    
 120854000   255.07611     -414.12983     -328.70152     -414.12965      0              6350.1443      30.944         21.33497       32.540899      21483.154      7014.4944      6367.0003      5668.9381     -526.50152     -191.85258     -539.06374    
 120856000   252.21101     -409.91567     -325.44692     -409.91472      0              7085.9519      30.944         21.33497       32.394241      21386.332      7326.0251      6099.7755      7832.0551      368.91059     -34.039955      790.83387    
 120858000   253.51802     -409.79297     -324.88648     -409.79329      0              7567.6301      30.944         21.33497       32.421985      21404.648      7164.6174      8142.0367      7396.2362     -125.86887     -573.5469      -206.85934    
 120860000   252.52757     -411.8188      -327.24402     -411.81761      0              6185.1502      30.944         21.33497       32.414815      21399.914      4629.83        6729.8413      7195.7792     -536.51492      2326.1388      47.178954    
 120862000   255.88728     -413.81178     -328.1118      -413.81135      0              8656.0056      30.944         21.33497       32.300439      21324.404      7409.9804      8735.7546      9822.2819      1125.9866      763.55543      2033.5161    
 120864000   256.98851     -413.42694     -327.35814     -413.42681      0              6898.2716      30.944         21.33497       32.437063      21414.602      7696.1109      6056.8425      6941.8613     -92.777513     -152.27958     -449.73779    
 120866000   254.9367      -410.83486     -325.45323     -410.83417      0              7301.6454      30.944         21.33497       32.535193      21479.387      7073.1057      8513.913       6317.9175      1082.8524     -1122.1873      696.90823    
 120868000   260.62474     -410.88781     -323.60119     -410.88708      0              7751.9931      30.944         21.33497       32.537304      21480.78       9225.1539      8988.4573      5042.3679     -1082.6959      1224.8012      391.03974    
 120870000   253.66577     -414.68763     -329.73166     -414.68586      0              4637.9039      30.944         21.33497       32.656558      21559.511      3817.658       6476.4656      3619.5882      1230.2745      1392.561      -135.20378    
 120872000   255.73083     -414.52507     -328.87748     -414.52511      0              6973.8378      30.944         21.33497       32.564102      21498.472      7165.0197      7111.9879      6644.5059      86.015168      64.86003       210.55988    
 120874000   258.76056     -409.99211     -323.32983     -409.98767      0              6459.3019      30.944         21.33497       32.633726      21544.437      4406.063       9203.3043      5768.5384      1920.9197     -178.41705     -1045.5532    
 120876000   255.86129     -412.48138     -326.7901      -412.47859      0              7032.1661      30.944         21.33497       32.501649      21457.241      8235.1336      7496.6618      5364.7028      569.62866     -857.95621     -46.999621    
 120878000   252.76703     -412.23683     -327.58186     -412.23495      0              8272.1551      30.944         21.33497       32.44616       21420.608      5600.5059      10186.583      9029.3767      653.53526      420.96448     -990.68858    
 120880000   258.82386     -411.11437     -324.43088     -411.11329      0              5643.5952      30.944         21.33497       32.402093      21391.515      6549.1697      4098.6633      6282.9527     -818.8361      -1534.5864     -541.49078    
 120882000   256.47439     -412.08904     -326.19243     -412.08909      0              5978.6646      30.944         21.33497       32.503639      21458.555      7496.086       5624.0128      4815.8952      992.71521     -1068.4985     -191.57833    
 120884000   250.12004     -413.81862     -330.05016     -413.81776      0              7834.8528      30.944         21.33497       32.52244       21470.967      7599.0751      7009.2723      8896.2111     -1743.8493      798.2224       875.95415    
 120886000   260.59737     -413.06653     -325.78907     -413.06663      0              6300.4779      30.944         21.33497       32.466871      21434.281      5634.9779      8150.3124      5116.1434     -133.80808      1873.9892     -976.26249    
 120888000   251.74286     -412.58103     -328.26907     -412.5808       0              5960.6808      30.944         21.33497       32.607493      21527.118      7627.6503      5715.8282      4538.564      -99.296838      1150.4647     -40.215864    
 120890000   253.09332     -413.15146     -328.38721     -413.15185      0              6438.0997      30.944         21.33497       32.763333      21630.002      6828.8814      6010.4543      6474.9635      2476.2331      301.18076      809.01353    
 120892000   247.74828     -416.27162     -333.29749     -416.27166      0              4925.3284      30.944         21.33497       32.579585      21508.694      6284.5669      3944.2009      4547.2175     -789.75623     -779.93433     -1022.6105    
 120894000   256.27084     -413.62891     -327.80047     -413.62699      0              6875.3884      30.944         21.33497       32.436557      21414.268      3585.9831      7073.6744      9966.5075     -439.37075      738.57397      196.53521    
 120896000   250.08301     -413.33266     -329.5766      -413.33243      0              5970.5744      30.944         21.33497       32.569608      21502.107      6144.9429      5972.8607      5793.9198      335.15357      659.45463      57.584383    
 120898000   249.43028     -414.01053     -330.47308     -414.00943      0              3750.2222      30.944         21.33497       32.736523      21612.303      6048.9102      3796.2302      1405.5262     -1131.7781     -1118.0397      932.34171    
 120900000   256.59022     -416.13476     -330.19935     -416.1327       0              5903.6273      30.944         21.33497       32.643978      21551.205      3751.6826      6246.2112      7712.9881      75.523335      125.20339      2085.4634    
 120902000   253.23043     -411.21099     -326.40082     -411.21115      0              5443.055       30.944         21.33497       32.662078      21563.155      5647.1431      6991.2363      3690.7857      0.4176543     -413.27243     -1486.3105    
 120904000   253.11616     -413.31378     -328.54188     -413.31198      0              5285.4314      30.944         21.33497       32.70826       21593.644      5496.7932      4099.0145      6260.4864      348.87691      337.50983     -190.32864    
 120906000   257.91583     -414.48878     -328.10941     -414.48702      0              4696.4715      30.944         21.33497       32.503107      21458.204      5474.6985      4433.5306      4181.1853     -1540.5714      715.29315      1253.7584    
 120908000   262.66878     -416.56307     -328.59187     -416.56098      0              6158.6101      30.944         21.33497       32.463995      21432.382      7327.171       6606.7689      4541.8905     -528.71565      1296.4904     -857.54224    
 120910000   256.63502     -412.58209     -326.63168     -412.58039      0              7063.4777      30.944         21.33497       32.585479      21512.585      5830.9282      8008.2449      7351.2601      313.75344      495.45325      345.38978    
 120912000   251.44022     -412.64324     -328.43263     -412.64167      0              6792.4134      30.944         21.33497       32.648306      21554.062      6988.7387      6050.6609      7337.8407     -1044.4638     -570.96837      784.18188    
 120914000   256.58348     -415.6136      -329.68045     -415.61241      0              4967.6424      30.944         21.33497       32.569529      21502.055      5605.1222      5300.9428      3996.8621     -1398.6817      2991.0815      1395.6806    
 120916000   252.62481     -412.16168     -327.55433     -412.1597       0              5605.0818      30.944         21.33497       32.788938      21646.906      4561.0494      5433.5569      6820.639       175.42244     -402.59752      1651.0897    
 120918000   249.64512     -413.88866     -330.27926     -413.88668      0              5575.4385      30.944         21.33497       32.680977      21575.632      6769.8144      4860.8185      5095.6828     -107.45026     -160.9554      -1098         
 120920000   254.13655     -414.13416     -329.02051     -414.13213      0              7972.1892      30.944         21.33497       32.638726      21547.738      7490.447       6871.8696      9554.2509     -157.39597     -542.36556      633.0514     
 120922000   246.25378     -410.86744     -328.39384     -410.86653      0              3612.3214      30.944         21.33497       32.732803      21609.847      3244.5556      3510.5441      4081.8644     -190.84097      1819.8911      938.94729    
 120924000   260.77417     -415.14435     -327.80768     -415.14304      0              4633.5059      30.944         21.33497       32.739938      21614.557      5521.9446      4385.2766      3993.2965     -355.29586     -837.07524     -2193.1767    
 120926000   255.74451     -412.62331     -326.97114     -412.62085      0              7121.2795      30.944         21.33497       32.495379      21453.102      6207.0666      6541.9318      8614.8402      367.40828      749.1316      -50.682105    
 120928000   255.70413     -411.82654     -326.18789     -411.82535      0              4980.4545      30.944         21.33497       32.566808      21500.259      6109.806       5240.6556      3590.9019      1803.6943      1008.133      -466.73983    
 120930000   256.16652     -414.52604     -328.73253     -414.52404      0              7151.6689      30.944         21.33497       32.459359      21429.322      6844.6413      6399.7376      8210.628      -405.76765     -1151.1061      30.232463    
 120932000   253.94529     -413.38634     -328.33675     -413.38395      0              6824.4474      30.944         21.33497       32.509277      21462.277      5873.0732      6017.4441      8582.8248      139.13033      399.35253      2337.7862    
 120934000   256.77157     -415.36293     -329.36679     -415.36106      0              5836.2323      30.944         21.33497       32.435268      21413.417      7021.6864      5802.4746      4684.5359      989.06998     -948.35459     -725.90801    
 120936000   256.71019     -414.04649     -328.0709      -414.04383      0              6739.257       30.944         21.33497       32.344716      21353.636      5536.043       6554.5117      8127.2162      134.11369     -379.87289     -1565.8234    
 120938000   250.27069     -412.35507     -328.53616     -412.35393      0              4552.4197      30.944         21.33497       32.57656       21506.697      4363.9852      4268.7975      5024.4765      512.78092      956.30056     -1489.2398    
 120940000   255.19063     -412.43774     -326.97107     -412.43641      0              5199.7228      30.944         21.33497       32.516026      21466.733      7172.7866      4099.1277      4327.2541     -1090.0285      249.91319      925.5997     
 120942000   259.37289     -412.80904     -325.94168     -412.80752      0              6287.2381      30.944         21.33497       32.557342      21494.009      5649.5615      5012.0094      8200.1432     -203.00093     -331.29        -180.26728    
 120944000   259.32867     -415.22331     -328.37076     -415.2221       0              6120.6964      30.944         21.33497       32.750572      21621.577      7085.3068      5841.2777      5435.5046     -826.73577     -190.41728     -186.11621    
 120946000   257.35341     -414.06019     -327.86918     -414.05837      0              5360.6192      30.944         21.33497       32.534056      21478.636      4824.1028      6018.7741      5238.9807     -834.79264     -340.24634      2143.4448    
 120948000   254.68265     -414.21802     -328.92148     -414.21624      0              6926.8821      30.944         21.33497       32.411543      21397.754      7438.7854      5550.8468      7791.0139      2519.0233     -301.6383       1911.4673    
 120950000   253.64306     -415.13889     -330.19052     -415.13843      0              6717.231       30.944         21.33497       32.630997      21542.635      5841.036       7383.2045      6927.4527      442.7521      -982.86828      1248.3948    
 120952000   255.77197     -415.46257     -329.80121     -415.46098      0              5703.7029      30.944         21.33497       32.709022      21594.147      6809.3103      5041.0399      5260.7586     -63.796034      543.2428       975.96981    
 120954000   253.72603     -414.72932     -329.75316     -414.72792      0              6086.84        30.944         21.33497       32.5806        21509.364      7304.4257      5202.5622      5753.5322      3.0742974     -943.81281      329.64785    
 120956000   255.41549     -413.04564     -327.50366     -413.04452      0              5091.3204      30.944         21.33497       32.532501      21477.609      5060.0418      6698.9304      3514.989       1491.0474     -1202.4804      491.00367    
 120958000   254.09405     -417.08373     -331.98432     -417.08201      0              4546.0959      30.944         21.33497       32.640797      21549.105      4859.3216      6537.305       2241.6611     -116.67106      5.4521753     -876.84998    
 120960000   249.52419     -413.80526     -330.23636     -413.80327      0              3660.2948      30.944         21.33497       32.580125      21509.05       3400.6646      4932.1455      2648.0744     -622.20465      801.22414     -529.54006    
 120962000   258.55218     -413.96971     -327.37722     -413.9679       0              4847.7813      30.944         21.33497       32.521624      21470.429      4781.7661      4549.6852      5211.8926     -1291.8766      1360.4935      248.55593    
 120964000   252.75575     -413.00036     -328.34917     -412.99859      0              5510.0998      30.944         21.33497       32.427645      21408.384      4665.3026      5804.6428      6060.3539     -730.09499     -644.68306      78.747737    
 120966000   255.67048     -413.301       -327.67363     -413.29989      0              7218.0729      30.944         21.33497       32.434577      21412.961      6957.7585      6634.6921      8061.7681     -38.847101     -183.70511     -993.65671    
 120968000   253.73421     -411.23599     -326.2571      -411.23408      0              6910.7674      30.944         21.33497       32.401861      21391.362      7085.6492      6748.9168      6897.7362      957.40896      965.18775     -1247.4651    
 120970000   253.38322     -413.65363     -328.79229     -413.65188      0              6658.83        30.944         21.33497       32.409905      21396.673      6145.3543      7017.3072      6813.8284      552.8846      -536.19134     -472.16982    
 120972000   258.7444      -414.91146     -328.25459     -414.90982      0              5220.9236      30.944         21.33497       32.638866      21547.831      5879.0959      3478.0339      6305.6409      299.11906      1773.6663     -1194.3258    
 120974000   257.69997     -416.81745     -330.51037     -416.81447      0              6439.0004      30.944         21.33497       32.599092      21521.572      6778.5666      5153.6146      7384.82        907.3321      -1172.7407     -421.14863    
 120976000   247.07959     -414.95431     -332.20414     -414.95269      0              7584.848       30.944         21.33497       32.681555      21576.013      6716.0137      8569.8337      7468.6966     -336.7014       1233.5976     -1726.621     
 120978000   247.75128     -417.57282     -334.59769     -417.56981      0              7073.0505      30.944         21.33497       32.687844      21580.165      6475.5065      6863.9818      7879.6633     -451.50916     -50.956857     -1168.4508    
 120980000   255.78832     -414.13718     -328.47033     -414.13534      0              5052.1349      30.944         21.33497       32.690662      21582.026      5346.5188      2763.9177      7045.9682     -483.61652      579.87599      1192.4034    
 120982000   258.02192     -416.96464     -330.54974     -416.96348      0              4545.7174      30.944         21.33497       32.775212      21637.844      3285.3246      5011.1374      5340.6901     -117.50179      622.97985     -712.97019    
 120984000   254.38509     -416.17716     -330.98028     -416.17552      0              6542.5052      30.944         21.33497       32.870116      21700.499      5873.3242      6518.9291      7235.2625     -743.26977      500.14308      122.14048    
 120986000   252.49315     -413.55393     -328.99068     -413.55277      0              4522.3512      30.944         21.33497       32.727298      21606.212      3353.3387      5952.1431      4261.5718      1445.7118     -1649.3945      848.21073    
 120988000   260.83211     -414.65408     -327.29801     -414.65107      0              6687.1112      30.944         21.33497       32.631017      21542.649      4810.8028      7027.0276      8223.5032     -1306.4755      1134.5237     -190.15205    
 120990000   257.64923     -414.1639      -327.87381     -414.16188      0              5286.4816      30.944         21.33497       32.737326      21612.833      3867.3209      4849.4648      7142.6593     -1480.4635     -274.52152      1089.7201    
 120992000   261.36615     -412.42007     -324.88514     -412.41827      0              5729.3322      30.944         21.33497       32.711183      21595.573      5744.4039      6004.7756      5438.8172      545.46719      266.43673     -620.15237    
 120994000   252.91851     -413.46423     -328.75853     -413.46223      0              5054.6122      30.944         21.33497       32.552525      21490.829      5330.2859      4677.5581      5155.9926     -751.5141       1244.884       511.4471     
 120996000   255.94218     -415.54542     -329.82705     -415.54258      0              5792.5643      30.944         21.33497       32.527502      21474.309      8376.328       4585.8589      4415.5061     -182.41911     -1315.4958      44.402423    
 120998000   254.94544     -412.07117     -326.68662     -412.06917      0              6234.7221      30.944         21.33497       32.567398      21500.648      5936.4089      6100.1946      6667.5629      548.27863      2075.0144      250.00725    
 121000000   256.45236     -415.57801     -329.68877     -415.57626      0              7971.4276      30.944         21.33497       32.558508      21494.779      6426.5591      7866.1283      9621.5952      871.69823      163.62313      610.66256    
 121002000   252.52506     -414.49241     -329.91847     -414.48939      0              6640.9951      30.944         21.33497       32.506348      21460.343      6873.913       6552.6189      6496.4532     -224.59492     -1183.2482     -730.72608    
 121004000   259.40214     -416.10965     -329.23249     -416.10682      0              6380.3822      30.944         21.33497       32.53463       21479.015      6408.5972      5551.4914      7181.0579     -3.9260709      530.00941     -614.318      
 121006000   252.88234     -415.60126     -330.90767     -415.59964      0              6022.6724      30.944         21.33497       32.805799      21658.038      6094.9724      6813.0195      5160.0251      1301.4247      215.67183     -911.39923    
 121008000   253.37103     -418.49071     -333.63345     -418.4889       0              5759.63        30.944         21.33497       32.890197      21713.756      4169.9425      7280.7862      5828.1613     -1247.6701      2491.259       105.48756    
 121010000   253.45189     -415.74727     -330.86293     -415.74575      0              5646.5052      30.944         21.33497       32.794287      21650.438      6241.1135      4997.0613      5701.3408     -1651.0363      724.22603     -76.051695    
 121012000   262.88399     -417.44421     -329.40093     -417.44273      0              7780.2114      30.944         21.33497       32.664526      21564.771      6044.0809      8210.1962      9086.3571     -188.08016      918.72366     -285.6513     
 121014000   255.68344     -417.09996     -331.46825     -417.09682      0              8243.3974      30.944         21.33497       32.608234      21527.607      9911.6747      7236.0245      7582.493       1720.0865     -755.74613      1365.1966    
 121016000   252.77598     -412.75612     -328.09815     -412.75467      0              6609.5387      30.944         21.33497       32.6866        21579.344      5150.2741      6947.4094      7730.9325      717.28482      498.31579      2115.9711    
 121018000   254.67431     -417.23531     -331.94156     -417.23236      0              6515.0783      30.944         21.33497       32.649458      21554.823      6676.8502      6109.1571      6759.2275      1753.3703      363.12793      416.18278    
 121020000   251.41832     -413.02138     -328.81811     -413.01921      0              5468.2232      30.944         21.33497       32.659703      21561.587      6094.8027      5813.6434      4496.2234     -1031.9763     -647.82314     -1355.329     
 121022000   249.68424     -414.59275     -330.97025     -414.59114      0              5604.5833      30.944         21.33497       32.692487      21583.231      4238.2392      6235.9365      6339.574       282.62492      300.79884     -678.18396    
 121024000   251.22322     -417.81264     -333.67471     -417.81084      0              6341.5329      30.944         21.33497       32.547498      21487.51       5152.1765      7238.4261      6633.996       970.41397     -325.61414     -1100.7138    
 121026000   259.23073     -415.49939     -328.67964     -415.49741      0              6774.8806      30.944         21.33497       32.454011      21425.791      8177.1142      6625.7054      5521.8222      1239.9184     -753.73155     -1074.1111    
 121028000   250.68105     -415.71976     -331.76341     -415.71839      0              5532.6809      30.944         21.33497       32.500515      21456.493      7875.6583      3879.931       4842.4534      94.493775     -508.0744       819.47266    
 121030000   261.6328      -413.6218      -325.99756     -413.61974      0              7938.7192      30.944         21.33497       32.375973      21374.271      7190.1089      8275.8619      8350.1867      252.75531      1159.0897      324.3695     
 121032000   249.6022      -413.55423     -329.9592      -413.5531       0              4971.206       30.944         21.33497       32.525872      21473.233      4746.0167      5232.4979      4935.1035     -2582.6079      1431.5757     -257.99824    
 121034000   257.11511     -417.00698     -330.89577     -417.00457      0              6018.2565      30.944         21.33497       32.628736      21541.143      5568.8827      7216.7116      5269.1752      225.52521     -448.28682     -33.531373    
 121036000   260.60994     -417.01371     -329.73204     -417.01022      0              4836.9662      30.944         21.33497       32.531773      21477.129      4095.9398      6547.2915      3867.6671     -1015.0166      827.13825     -1380.8039    
 121038000   257.85439     -418.49059     -332.1318      -418.48715      0              4597.4904      30.944         21.33497       32.589907      21515.509      3480.2006      5764.3221      4547.9484      542.10925      625.0745       138.08283    
 121040000   252.30561     -414.85739     -330.35696     -414.85571      0              4467.3095      30.944         21.33497       32.907357      21725.085      2879.6251      4528.7223      5993.5811     -249.34631      385.18847     -449.30296    
 121042000   253.91801     -415.53114     -330.49069     -415.53003      0              5551.4822      30.944         21.33497       32.680869      21575.561      4877.7426      5305.3492      6471.3547     -958.9943      -524.543       -365.95726    
 121044000   259.3903      -414.0516      -327.17841     -414.05121      0              5551.9004      30.944         21.33497       32.799895      21654.14       6078.4778      5254.2249      5322.9985      817.61792      423.91857      204.31786    
 121046000   253.09721     -416.00634     -331.24078     -416.00332      0              3997.7883      30.944         21.33497       32.620541      21535.732      4071.4856      2993.4754      4928.404      -584.46804      447.74455     -141.21695    
 121048000   256.2022      -415.73169     -329.92623     -415.72854      0              4865.8168      30.944         21.33497       32.618785      21534.573      4011.0878      4639.591       5946.7717     -707.9256       1514.0071     -263.60496    
 121050000   251.72472     -416.07773     -331.77184     -416.07598      0              5744.8651      30.944         21.33497       32.50362       21458.543      7670.3682      4621.9034      4942.3238      1241.8655      1478.2244      1222.7374    
 121052000   259.57019     -413.29052     -326.35708     -413.28896      0              7914.9374      30.944         21.33497       32.615403      21532.34       7575.1941      7402.8467      8766.7713      963.52924      505.13537     -31.869438    
 121054000   249.89536     -416.13706     -332.44385     -416.13547      0              4530.8768      30.944         21.33497       32.718111      21600.147      4019.4501      4326.1134      5247.0668      1542.6898      277.34133      591.19832    
 121056000   253.40514     -414.53578     -329.6671      -414.53408      0              5414.4719      30.944         21.33497       32.679775      21574.838      5226.3477      5607.7277      5409.3403     -1014.7605      1933.8331     -689.24712    
 121058000   258.12272     -412.3479      -325.89924     -412.34673      0              7309.7717      30.944         21.33497       32.542942      21484.502      7477.411       4993.8451      9458.0589      160.49528      1414.7033     -181.08685    
 121060000   252.12721     -415.77199     -331.3313      -415.77021      0              4481.166       30.944         21.33497       32.468303      21435.226      5148.3188      2864.4304      5430.7489      140.83494     -1452.1114      1495.5357    
 121062000   250.71476     -417.91967     -333.95202     -417.91697      0              6320.5037      30.944         21.33497       32.711162      21595.56       7904.8997      5353.2505      5703.3607      540.61533      812.92563     -836.2919     
 121064000   258.53379     -415.99256     -329.40623     -415.991        0              6996.0683      30.944         21.33497       32.58718       21513.708      5716.5731      7754.8793      7516.7526     -694.44386      1101.0637     -47.401478    
 121066000   252.50433     -414.49501     -329.92801     -414.49384      0              5725.0199      30.944         21.33497       32.652919      21557.108      4161.3515      5507.9617      7505.7465     -602.81166      1199.9529      931.36214    
 121068000   254.89292     -418.37634     -333.00938     -418.37473      0              5700.3655      30.944         21.33497       32.766393      21632.023      6057.5479      5042.0293      6001.5191     -446.4663      -1504.3256      333.178      
 121070000   247.08131     -414.22169     -331.47094     -414.21973      0              6570.3073      30.944         21.33497       32.729232      21607.489      6443.0756      5935.3622      7332.4841     -903.43106     -656.29438     -11.299711    
 121072000   255.54529     -414.50713     -328.92168     -414.5063       0              6170.8063      30.944         21.33497       32.789547      21647.309      5721.9929      6392.4929      6397.9331      582.73104     -401.38451     -711.48006    
 121074000   263.055       -414.73915     -326.6386      -414.73754      0              7708.4058      30.944         21.33497       32.767437      21632.712      7952.1271      7054.7268      8118.3636      444.93254      579.8555       793.9031     
 121076000   259.83573     -411.59793     -324.57556     -411.59695      0              6712.933       30.944         21.33497       32.741076      21615.309      5213.4108      9461.1045      5464.2837     -650.25766     -533.3045      -1754.7999    
 121078000   248.66803     -409.7942      -326.51204     -409.79322      0              7097.799       30.944         21.33497       32.617701      21533.858      6955.6954      8187.622       6150.0794     -446.57863      1384.4031     -778.89518    
 121080000   260.5808      -415.13901     -327.8671      -415.13839      0              6769.5995      30.944         21.33497       32.743504      21616.912      6333.3425      6525.4534      7450.0028      1583.3418     -611.10756     -388.62924    
 121082000   260.75789     -413.25352     -325.92231     -413.25382      0              8193.4074      30.944         21.33497       32.742626      21616.331      6340.0725      8328.8551      9911.2946      55.318269     -1018.8794     -533.59228    
 121084000   259.1689      -412.97985     -326.1808      -412.97827      0              3826.5826      30.944         21.33497       32.595947      21519.496      4407.6075      3817.7519      3254.3883      1693.0451     -1260.9109      220.99898    
 121086000   262.36618     -414.72958     -326.85972     -414.72762      0              5949.991       30.944         21.33497       32.72262       21603.124      5748.31        5060.282       7041.3811     -73.757215      774.64156     -328.41183    
 121088000   253.22601     -415.54006     -330.73137     -415.53895      0              5640.8168      30.944         21.33497       32.658417      21560.738      5577.032       3364.6464      7980.772       381.72809      296.01754      1601.9308    
 121090000   247.1         -415.32596     -332.56895     -415.32608      0              6202.8508      30.944         21.33497       32.516963      21467.351      7004.3613      6244.2945      5359.8965     -413.15822     -504.60871      14.648812    
 121092000   257.32989     -413.51817     -327.33503     -413.51845      0              3062.4583      30.944         21.33497       32.716183      21598.874      4128.1782      3612.0477      1447.149       948.72241      1213.9814     -1482.4099    
 121094000   253.60284     -413.83499     -328.90009     -413.83512      0              6667.571       30.944         21.33497       32.618741      21534.544      7270.7236      6515.2415      6216.7478     -744.37743     -550.2244      -90.403757    
 121096000   252.41978     -413.7917      -329.25303     -413.79103      0              7662.6582      30.944         21.33497       32.637653      21547.03       8719.7236      5788.4418      8479.8094      1100.9328     -22.618383      888.76366    
 121098000   256.98725     -415.17447     -329.10609     -415.17355      0              8096.2692      30.944         21.33497       32.658895      21561.054      8357.3048      7815.2938      8116.209       712.18479      563.95949     -1286.9264    
 121100000   251.87112     -415.93794     -331.58302     -415.93784      0              5107.8937      30.944         21.33497       32.797895      21652.82       6072.7887      5009.3661      4241.5262      729.46624     -1093.2686     -910.49132    
 121102000   259.48571     -416.03132     -329.12617     -416.03134      0              7191.895       30.944         21.33497       32.815562      21664.483      8995.6132      6315.1063      6264.9656     -106.12743      520.77778     -1680.1815    
 121104000   256.88695     -417.50967     -331.47488     -417.51002      0              4454.0523      30.944         21.33497       32.904322      21723.082      5897.3101      2674.5332      4790.3135      351.19739     -1151.0536      1013.7426    
 121106000   253.61894     -416.61915     -331.67886     -416.61739      0              6483.0042      30.944         21.33497       32.87668       21704.833      5904.5573      6590.0217      6954.4336     -1024.8857     -64.076468     -496.73528    
 121108000   255.34206     -414.9938      -329.47642     -414.9942       0              3704.6351      30.944         21.33497       32.934549      21743.037      5216.5737      2584.7364      3312.5953     -64.956905     -565.88839     -2599.4361    
 121110000   253.55422     -415.66188     -330.74327     -415.66075      0              6170.4637      30.944         21.33497       32.915488      21730.454      5555.2043      7417.7135      5538.4732     -964.1417       589.32088     -1388.248     
 121112000   254.45522     -414.37972     -329.15935     -414.37862      0              6423.0305      30.944         21.33497       32.897072      21718.296      4827.3464      8430.571       6011.1741     -718.0601       372.00113     -429.4796     
 121114000   256.61997     -415.55345     -329.60807     -415.55229      0              6675.8005      30.944         21.33497       32.703548      21590.533      5233.3287      5555.7218      9238.3511      1093.2639     -456.54173      0.91323709   
 121116000   258.94697     -413.41967     -326.69496     -413.41839      0              5388.9991      30.944         21.33497       32.53792       21481.187      6313.5034      3455.2262      6398.2677     -1288.2573      37.708657     -1625.6266    
 121118000   255.51591     -413.50096     -327.92535     -413.4991       0              8034.1464      30.944         21.33497       32.607141      21526.886      8854.4655      6123.8434      9124.1303     -583.47804      1024.4323      1043.8122    
 121120000   253.31057     -414.74341     -329.9064      -414.74152      0              6513.1971      30.944         21.33497       32.666153      21565.845      6013.9483      4884.1012      8641.5418      246.02703     -386.91137     -1452.8802    
 121122000   255.1294      -413.72169     -328.27553     -413.72048      0              4461.4389      30.944         21.33497       32.702893      21590.1        3911.3375      5225.8407      4247.1385      750.26074     -649.07852      1159.8105    
 121124000   259.50939     -415.84784     -328.93476     -415.84676      0              6569.4781      30.944         21.33497       32.630288      21542.167      7323.4776      6014.0643      6370.8925      273.95566      631.26781      717.98098    
 121126000   256.24802     -416.04849     -330.22768     -416.04595      0              6011.0071      30.944         21.33497       32.762286      21629.311      5691.4992      4550.7835      7790.7387     -335.02017     -805.06907      1546.3886    
 121128000   255.93694     -415.74334     -330.02673     -415.74229      0              7137.2251      30.944         21.33497       32.572076      21503.737      6815.1446      4773.653       9822.8777      610.90926     -655.52727      1103.7971    
 121130000   255.1771      -414.32572     -328.86358     -414.32403      0              5852.4595      30.944         21.33497       32.601842      21523.388      6573.6227      7915.3559      3068.3999      476.29459     -360.51258     -747.85249    
 121132000   255.40654     -411.17073     -325.63176     -411.17         0              7912.3107      30.944         21.33497       32.555311      21492.669      9191.2469      7055.2215      7490.4639      857.167        463.81487      382.4675     
 121134000   260.02655     -413.64913     -326.56285     -413.64766      0              5820.8         30.944         21.33497       32.46204       21431.092      6798.0239      4185.1074      6479.2686     -1291.9366     -1183.53       -617.08599    
 121136000   254.32323     -412.1834      -327.00724     -412.18233      0              7638.3713      30.944         21.33497       32.568878      21501.625      6743.3007      9215.1392      6956.6742     -240.34343     -422.35156      1135.3795    
 121138000   255.84071     -413.24468     -327.56029     -413.24426      0              7277.5408      30.944         21.33497       32.616948      21533.36       7153.8791      6874.5996      7804.1437     -1062.0078     -1503.6328     -892.87997    
 121140000   246.38287     -413.65365     -331.13682     -413.6526       0              4610.9104      30.944         21.33497       32.773089      21636.443      6790.982       3470.2482      3571.5011     -1739.3482     -117.18548     -1598.6019    
 121142000   256.06908     -411.85239     -326.09152     -411.8513       0              5824.1194      30.944         21.33497       32.69733       21586.428      4492.6831      6796.6341      6183.0409      1589.9693      1346.2938     -423.93731    
 121144000   250.61838     -413.54168     -329.60631     -413.54142      0              4329.9457      30.944         21.33497       32.636407      21546.207      5792.4098      3461.584       3735.8434      1001.721      -1465.3406     -185.47857    
 121146000   248.36359     -414.53788     -331.35768     -414.53532      0              6907.6094      30.944         21.33497       32.552979      21491.129      7699.5882      7536.9702      5486.2698     -287.09487     -905.7129       613.94536    
 121148000   252.34762     -415.18246     -330.66796     -415.18143      0              6716.0382      30.944         21.33497       32.571491      21503.35       6213.1226      5826.1816      8108.8102      523.56705     -33.275675      267.7121     
 121150000   248.19793     -414.7548      -331.63008     -414.75512      0              6903.4126      30.944         21.33497       32.584737      21512.095      7025.3528      5339.8723      8345.0126     -77.083219      1368.1631     -696.66676    
 121152000   254.23915     -414.36567     -329.21767     -414.36596      0              5521.6987      30.944         21.33497       32.641604      21549.638      6208.9615      5841.1629      4514.9717      662.40037     -1060.0704     -306.66751    
 121154000   253.14637     -413.72058     -328.93856     -413.71954      0              6802.2182      30.944         21.33497       32.650574      21555.56       8440.0691      5528.0562      6438.5294      642.31753     -333.94575     -520.59939    
 121156000   260.53473     -415.34863     -328.09215     -415.34845      0              7266.3775      30.944         21.33497       32.775929      21638.318      8430.7169      5594.8148      7773.6007     -477.05091      1509.8706      832.89131    
 121158000   256.09277     -414.47291     -328.7041      -414.47097      0              6102.8646      30.944         21.33497       32.72304       21603.401      4904.9609      7591.9356      5811.6974      456.42898      222.63382     -1109.2973    
 121160000   252.88427     -415.66021     -330.96597     -415.65878      0              4817.589       30.944         21.33497       32.64225       21550.064      3852.5131      4755.69        5844.5637     -1076.864       309.90136      1730.8722    
 121162000   253.86045     -413.98613     -328.96496     -413.98539      0              5604.7922      30.944         21.33497       32.690566      21581.962      6083.6485      5188.4929      5542.2352      1530.4109      1240.398       835.83128    
 121164000   252.95208     -414.01735     -329.3004      -414.01627      0              5104.2026      30.944         21.33497       32.716586      21599.141      6091.4882      6071.4671      3149.6526     -13.110406     -228.50387      1385.788     
 121166000   259.57525     -413.58425     -326.64911     -413.58297      0              7297.8229      30.944         21.33497       32.564961      21499.039      9151.8311      4636.7851      8104.8524      742.15131      64.591104      1464.3567    
 121168000   260.48017     -412.83751     -325.5993      -412.8357       0              6805.8232      30.944         21.33497       32.499168      21455.603      6467.5353      7431.7628      6518.1714     -425.24192     -476.68855      246.30126    
 121170000   255.16659     -412.33926     -326.88064     -412.33753      0              6242.9117      30.944         21.33497       32.628205      21540.792      4726.7583      6444.8912      7557.0855     -1162.0038      343.74108      331.96747    
 121172000   253.49425     -411.67204     -326.77351     -411.67135      0              6654.0217      30.944         21.33497       32.505942      21460.076      8594.0448      5610.6841      5757.3362     -1342.9604     -169.17085     -1320.9557    
 121174000   256.35918     -414.62959     -328.77156     -414.62897      0              7326.6412      30.944         21.33497       32.436367      21414.143      7849.2181      7074.6252      7056.0804      2589.8581      212.7005      -1233.801     
 121176000   255.47125     -414.49404     -328.93339     -414.493        0              5905.4152      30.944         21.33497       32.475883      21440.231      5404.0414      7453.5104      4858.6937      667.49262      65.37383      -51.489712    
 121178000   258.1014      -413.43002     -326.9885      -413.42893      0              8426.3017      30.944         21.33497       32.462465      21431.372      8562.4675      7893.3846      8823.053       1687.0718     -67.148517      165.58053    
 121180000   252.91397     -415.01441     -330.31022     -415.01332      0              6265.0423      30.944         21.33497       32.444516      21419.523      6939.1         6727.9792      5128.0476     -1018.1939      228.5487      -326.12884    
 121182000   250.10111     -418.17424     -334.41212     -418.17398      0              4754.7082      30.944         21.33497       32.538018      21481.252      4710.8044      5064.9005      4488.4198     -651.59553      240.06812      93.221156    
 121184000   254.48984     -414.0465      -328.81454     -414.04544      0              5220.8676      30.944         21.33497       32.673138      21570.456      5387.7672      7086.3953      3188.4402     -315.92518      395.06022     -1294.479     
 121186000   251.17429     -414.95264     -330.8311      -414.95305      0              7257.0578      30.944         21.33497       32.663005      21563.767      6592.7992      6337.6533      8840.7207      1523.8721      544.65166      198.46116    
 121188000   253.63719     -414.24093     -329.29453     -414.2402       0              6362.6236      30.944         21.33497       32.547487      21487.503      5104.4016      5882.3908      8101.0784     -1317.8966      1081.283       682.9294     
 121190000   255.12957     -418.5461      -333.09988     -418.5453       0              3969.0388      30.944         21.33497       32.487595      21447.963      3884.7723      4366.1625      3656.1816      1260.5229      848.53667     -519.48068    
 121192000   241.01953     -415.7546      -335.03402     -415.75273      0              4350.1187      30.944         21.33497       32.494432      21452.476      4589.077       2753.1073      5708.1718      1013.69        291.0793       405.34926    
 121194000   254.23552     -415.8314      -330.68461     -415.8301       0              4477.9261      30.944         21.33497       32.542945      21484.504      3215.9503      5113.3959      5104.4322     -727.60152      2069.4039      1419.6186    
 121196000   257.85526     -416.58403     -330.22494     -416.58301      0              3926.1005      30.944         21.33497       32.480715      21443.421      3277.9103      2800.2486      5700.1426      451.30929     -43.815709      278.77556    
 121198000   252.50159     -416.62935     -332.06328     -416.62883      0              6255.8816      30.944         21.33497       32.515746      21466.548      6198.2888      5241.2596      7328.0963     -402.22886      239.17234      658.88546    
 121200000   257.3641      -415.61542     -329.42083     -415.6144       0              7424.2758      30.944         21.33497       32.313768      21333.204      7034.839       7329.3116      7908.6769      1864.5215      1340.4447      1081.8829    
 121202000   256.31805     -418.82442     -332.98016     -418.82159      0              7414.454       30.944         21.33497       32.171538      21239.306      6531.8718      7144.4857      8567.0044      833.22924      1496.5929     -15.268324    
 121204000   255.70283     -415.10984     -329.47163     -415.10882      0              7079.69        30.944         21.33497       32.417098      21401.422      7801.5689      7701.7929      5735.7081      591.16623     -781.29256     -779.75814    
 121206000   249.30261     -416.36513     -332.87044     -416.36415      0              4259.1012      30.944         21.33497       32.629943      21541.94       4751.3435      3922.012       4103.948      -292.5448      -503.59123     -412.17848    
 121208000   258.69936     -415.16632     -328.52453     -415.16531      0              4838.6622      30.944         21.33497       32.618414      21534.328      7018.6408      3406.3666      4090.9793     -2263.9233      2000.9698      236.79249    
 121210000   257.82329     -413.98164     -327.63326     -413.98205      0              5142.3362      30.944         21.33497       32.629538      21541.672      3808.419       6947.3731      4671.2164     -369.62983      1166.1369      749.88438    
 121212000   252.27924     -412.80158     -328.30998     -412.80092      0              6461.0959      30.944         21.33497       32.698729      21587.352      5833.4516      6903.927       6645.9091     -145.1045       628.87964      1315.2343    
 121214000   253.54303     -412.85653     -327.94166     -412.85544      0              5321.3031      30.944         21.33497       32.652549      21556.864      5528.8645      5294.5579      5140.487       1113.2644      1576.1516      1481.0724    
 121216000   250.57803     -413.3323      -329.41045     -413.32972      0              5625.3904      30.944         21.33497       32.549426      21488.783      7811.2176      5270.1458      3794.8079      288.93823     -137.61263      697.98495    
 121218000   254.23035     -414.07097     -328.92591     -414.0702       0              6507.9013      30.944         21.33497       32.555078      21492.514      7282.8481      5393.1545      6847.7012     -496.46714      567.56798     -1133.5112    
 121220000   255.06018     -414.69351     -329.27053     -414.69229      0              4453.1023      30.944         21.33497       32.663408      21564.033      3575.6784      5327.4618      4456.1666     -107.19616     -654.89896      65.622257    
 121222000   256.80671     -414.09577     -328.08786     -414.09556      0              6954.7137      30.944         21.33497       32.555587      21492.851      6564.4056      7154.1588      7145.5768      701.07454     -4.8894601     -509.03955    
 121224000   256.79156     -410.70831     -324.70547     -410.70821      0              5984.5824      30.944         21.33497       32.440177      21416.658      7205.0254      4450.368       6298.3536      723.65571      854.74299      1817.1879    
 121226000   259.49662     -416.7561      -329.84729     -416.75485      0              7106.8319      30.944         21.33497       32.248482      21290.103      5322.3508      7990.905       8007.2398     -1010.1879     -899.09721     -932.42952    
 121228000   256.48769     -413.03164     -327.13057     -413.03111      0              4934.8758      30.944         21.33497       32.447598      21421.558      6360.8352      4010.9004      4432.8917     -609.97539     -506.34978      528.84341    
 121230000   254.66713     -412.65555     -327.36421     -412.65551      0              4248.2132      30.944         21.33497       32.782076      21642.376      4434.0004      1244.44        7066.199      -505.32561     -1026.7756      1449.0897    
 121232000   250.17567     -411.96864     -328.18154     -411.96905      0              5210.617       30.944         21.33497       32.631704      21543.102      4641.0177      6260.0665      4730.7668     -111.58666      416.55539      617.93036    
 121234000   261.30205     -412.58817     -325.07471     -412.58793      0              7182.9333      30.944         21.33497       32.596394      21519.791      7854.4189      6184.8103      7509.5706      2045.6929     -1125.3608     -1289.4015    
 121236000   257.01425     -412.79536     -326.71794     -412.79559      0              7310.0304      30.944         21.33497       32.718222      21600.22       7800.7892      5315.205       8814.0972     -209.00225     -251.69592      634.20665    
 121238000   250.07816     -413.252       -329.49757     -413.25096      0              4668.1473      30.944         21.33497       32.589972      21515.551      7813.7307      4063.1113      2127.5999     -3.9939083     -1487.9582      514.30754    
 121240000   254.15896     -414.5902      -329.46905     -414.59019      0              6807.6236      30.944         21.33497       32.668317      21567.274      6786.4635      6832.2938      6804.1135     -1755.7631      456.57921      433.98846    
 121242000   254.19665     -415.10279     -329.96902     -415.10294      0              6815.4176      30.944         21.33497       32.630743      21542.468      7405.8641      7328.5573      5711.8314     -191.34158     -1058.4604     -579.34223    
 121244000   259.52036     -414.85917     -327.94242     -414.85954      0              4641.063       30.944         21.33497       32.588271      21514.428      4112.7479      3621.2407      6189.2004     -728.23803     -54.654174     -2694.7716    
 121246000   258.99688     -415.3783      -328.63687     -415.37872      0              6480.532       30.944         21.33497       32.773036      21636.408      6597.0473      7804.0785      5040.4701      953.38423     -1161.6904     -2.3001605    
 121248000   254.39828     -411.88109     -326.67979     -411.87791      0              4526.3479      30.944         21.33497       32.70203       21589.53       5273.7036      4223.9772      4081.363       2107.1432      1060.7047      1457.566     
 121250000   256.68434     -414.16832     -328.20139     -414.16815      0              4913.9366      30.944         21.33497       32.648242      21554.02       3958.9229      6930.9898      3851.8971     -102.74673     -1599.5451      480.99322    
 121252000   257.5561      -413.07592     -326.81702     -413.07597      0              5823.2769      30.944         21.33497       32.579609      21508.71       6024.4676      3988.9904      7456.3728     -794.84124     -867.51788      283.33175    
 121254000   249.61585     -410.27907     -326.67947     -410.27889      0              6442.0308      30.944         21.33497       32.401933      21391.41       6642.6775      5988.7459      6694.6691     -722.62308      416.40468     -640.52734    
 121256000   262.29891     -411.15363     -323.30631     -411.15403      0              6459.3029      30.944         21.33497       32.448028      21421.841      4921.7575      7371.4722      7084.679      -928.96998      311.38595      241.91091    
 121258000   258.02613     -412.7994      -326.38309     -412.79841      0              6792.2441      30.944         21.33497       32.299888      21324.041      8039.8684      3688.2341      8648.6299      675.44388     -960.35138      1394.1782    
 121260000   254.24534     -415.04252     -329.89244     -415.04232      0              5094.7486      30.944         21.33497       32.458957      21429.056      5140.5854      6226.257       3917.4033     -12.509696     -815.41238     -2412.326     
 121262000   258.83691     -412.9622      -326.27435     -412.96017      0              5130.7346      30.944         21.33497       32.507318      21460.984      5515.0336      6094.6707      3782.4995     -186.869       -415.93986     -2163.0324    
 121264000   252.94582     -410.86174     -326.14689     -410.86178      0              5732.109       30.944         21.33497       32.470723      21436.824      6446.4287      8368.4891      2381.4094      898.25982     -64.680631     -2030.1419    
 121266000   259.61047     -413.45857     -326.51164     -413.45664      0              7109.9816      30.944         21.33497       32.443235      21418.677      7470.7821      6862.5021      6996.6607     -1350.9526     -71.927036     -1650.2645    
 121268000   254.74141     -412.72735     -327.41113     -412.72698      0              5882.9466      30.944         21.33497       32.428851      21409.181      6111.1527      6723.7814      4813.9056     -1274.7213     -282.66589     -586.13745    
 121270000   252.35271     -412.93471     -328.4185      -412.93388      0              5788.5227      30.944         21.33497       32.451225      21423.952      5009.8813      5539.235       6816.4517      1715.9714      830.03749     -1432.8581    
 121272000   255.44833     -414.20568     -328.65271     -414.20564      0              6628.8685      30.944         21.33497       32.525374      21472.904      6339.6425      6728.5368      6818.4263      124.67021     -848.60138      644.99339    
 121274000   261.24048     -413.87134     -326.3785      -413.86672      0              6263.6584      30.944         21.33497       32.501044      21456.842      7016.2633      5424.7347      6349.9772     -480.97554     -1983.6492      115.6493     
 121276000   253.88622     -413.85152     -328.82171     -413.84868      0              5621.6026      30.944         21.33497       32.642025      21549.916      7345.6466      4027.6132      5491.5481      784.99276     -370.27231     -2389.6177    
 121278000   257.05077     -411.41269     -325.32304     -411.41315      0              6014.4129      30.944         21.33497       32.442468      21418.17       5108.4168      4891.9411      8042.8808      269.97886     -1335.8888     -1257.8126    
 121280000   255.37805     -411.01314     -325.4837      -411.0133       0              7609.6014      30.944         21.33497       32.838228      21679.447      8688.8035      7312.0834      6827.9173      999.07528     -587.44385      272.39739    
 121282000   257.1473      -413.1305      -327.00851     -413.13065      0              6421.7878      30.944         21.33497       32.550216      21489.305      5491.7763      5847.6146      7925.9726     -143.31562      1286.1395     -1216.1359    
 121284000   249.04047     -413.72232     -330.31542     -413.72263      0              5642.6287      30.944         21.33497       32.561882      21497.007      4801.0342      5651.9028      6474.9491      835.16887      1280.3393      174.97622    
 121286000   256.4282      -413.47144     -327.5903      -413.47191      0              4107.3279      30.944         21.33497       32.405631      21393.851      3994.713       3697.6567      4629.614       336.55143     -1254.8387      96.200005    
 121288000   250.96561     -415.84438     -331.79272     -415.84244      0              6117.481       30.944         21.33497       32.555141      21492.556      6735.4877      5523.0387      6093.9165     -606.01637      334.79601     -1507.6826    
 121290000   250.20721     -410.06392     -326.26627     -410.06294      0              6018.2038      30.944         21.33497       32.497571      21454.549      9533.2431      2355.2625      6166.106      -1142.8081     -1081.3428     -617.68027    
 121292000   254.90334     -410.51073     -325.14028     -410.50989      0              11019.081      30.944         21.33497       32.49106       21450.251      11844.888      10286.335      10926.02      -2070.0741     -340.33574      122.30627    
 121294000   255.94944     -413.87175     -328.15094     -413.87072      0              5645.5983      30.944         21.33497       32.637617      21547.006      6342.159       6896.9842      3697.6517      11.385286     -1007.1948      947.91165    
 121296000   251.88212     -411.35838     -326.99977     -411.35852      0              7713.4082      30.944         21.33497       32.588067      21514.294      10022.334      6442.1876      6675.7033     -231.82912     -273.88882      1299.8813    
 121298000   252.66204     -412.63938     -328.01957     -412.63489      0              6470.7959      30.944         21.33497       32.751471      21622.171      7163.7019      4783.9999      7464.6857     -1258.6684      1225.6771      1277.0993    
 121300000   254.02287     -415.81657     -330.741       -415.81255      0              5962.6242      30.944         21.33497       32.738783      21613.794      4766.1842      5350.3063      7771.3823     -192.45628     -51.468545     -1073.935     
 121302000   258.76198     -413.59125     -326.92849     -413.59085      0              7530.6355      30.944         21.33497       32.674365      21571.267      5180.0835      7312.6356      10099.187      470.97444     -1008.2808      1094.1249    
 121304000   258.46531     -414.92706     -328.36366     -414.92668      0              5173.3323      30.944         21.33497       32.741015      21615.268      4735.3359      6842.1819      3942.479       922.10515     -1544.0873      220.34241    
 121306000   247.22543     -414.05912     -331.2601      -414.0582       0              5866.2286      30.944         21.33497       32.571825      21503.571      6909.1787      5771.5439      4917.9632     -731.60003     -1064.3055     -1252.5003    
 121308000   261.05715     -415.74398     -328.31254     -415.74404      0              6538.63        30.944         21.33497       32.582068      21510.333      7823.3136      5547.5139      6245.0625     -1013.1762     -1719.1291     -282.69521    
 121310000   260.68763     -411.22151     -323.91383     -411.21914      0              6834.6697      30.944         21.33497       32.461001      21430.406      4229.1345      10243.321      6031.554       1299.5287      495.11293     -1269.9119    
 121312000   255.52616     -412.14919     -326.57015     -412.14715      0              6512.7315      30.944         21.33497       32.332192      21345.368      5342.1057      5973.0232      8223.0656      1402.6815      1191.4286      2250.6531    
 121314000   255.65607     -411.29096     -325.66841     -411.29012      0              7749.5426      30.944         21.33497       32.507852      21461.337      5881.4359      8251.1971      9115.9948      484.15493      1059.2818      613.77387    
 121316000   262.33914     -412.14221     -324.28141     -412.14175      0              4929.8259      30.944         21.33497       32.485257      21446.419      5265.5178      6234.1631      3289.7969     -1322.429      -1027.7826      529.7811     
 121318000   254.65078     -412.132       -326.84613     -412.13236      0              3813.1843      30.944         21.33497       32.288084      21316.248      4987.1994      4280.0629      2172.2906      1504.1741      122.4614       549.54604    
 121320000   248.60967     -412.52891     -329.26629     -412.5288       0              7477.1933      30.944         21.33497       32.418324      21402.231      7563.6056      4956.9538      9911.0205      752.5183      -122.7862       1885.1815    
 121322000   256.80669     -411.86774     -325.85983     -411.86657      0              5000.7825      30.944         21.33497       32.465823      21433.589      4322.6916      5934.6267      4745.0294      155.54518     -567.17205      695.89744    
 121324000   256.10711     -414.51209     -328.73848     -414.51256      0              7809.3466      30.944         21.33497       32.442943      21418.484      7918.9437      8205.5374      7303.5586      713.48043      1334.407       422.42539    
 121326000   263.98818     -414.26459     -325.85151     -414.26331      0              6793.1788      30.944         21.33497       32.416497      21401.025      6113.837       8782.7904      5482.9089      1076.2471      879.58453     -416.14336    
 121328000   255.89773     -415.7211      -330.01761     -415.71824      0              4018.5964      30.944         21.33497       32.548755      21488.34       5988.2537      1570.8511      4496.6843     -1541.3448     -606.54133      659.8908     
 121330000   256.07385     -412.617       -326.85453     -412.61323      0              6234.7386      30.944         21.33497       32.478176      21441.745      5397.6982      5631.128       7675.3896     -913.63508      75.785643      518.87177    
 121332000   256.59739     -413.2357      -327.29789     -413.23611      0              5676.5245      30.944         21.33497       32.380444      21377.223      6113.7814      6374.5406      4541.2515      489.84845      60.918608     -361.08623    
 121334000   265.08086     -412.39988     -323.62084     -412.39753      0              6470.1555      30.944         21.33497       32.479441      21442.58       5373.0874      7077.7605      6959.6186     -215.40039      1377.5077     -411.97105    
 121336000   259.05683     -412.46625     -325.70474     -412.46166      0              3842.3586      30.944         21.33497       32.7271        21606.082      4230.0817      4060.4588      3236.5353     -157.92985     -2602.422       435.69379    
 121338000   249.20081     -414.5147      -331.0541      -414.51009      0              6142.722       30.944         21.33497       32.681733      21576.131      5666.6921      5620.6353      7140.8387      547.04282     -1745.5991      41.379812    
 121340000   255.80572     -410.8925      -325.21983     -410.89116      0              5548.4157      30.944         21.33497       32.631387      21542.893      4822.2537      5568.4511      6254.5423     -871.65532      298.63434      619.99683    
 121342000   259.50028     -415.4644      -328.55437     -415.46404      0              6294.5666      30.944         21.33497       32.61316       21530.86       5225.369       7102.1638      6556.167      -590.61592     -1531.5878     -379.12525    
 121344000   250.24129     -414.54733     -330.73826     -414.5455       0              6397.5152      30.944         21.33497       32.65384       21557.716      6473.999       7564.2189      5154.3278     -422.56906     -353.99979      1470.1572    
 121346000   249.2349      -412.15779     -328.68577     -412.15569      0              6102.3606      30.944         21.33497       32.727077      21606.067      4870.6922      6193.4386      7242.9509      46.345263      732.01319      512.70381    
 121348000   253.74202     -413.26402     -328.28251     -413.26039      0              6949.5189      30.944         21.33497       32.705272      21591.671      8274.5717      4941.8958      7632.0891      234.99698     -29.626681     -1456.5687    
 121350000   249.51838     -412.19734     -328.63038     -412.19783      0              7489.7618      30.944         21.33497       32.576921      21506.935      5864.1798      7437.7569      9167.3486     -317.91174      807.62285      593.38525    
 121352000   252.24488     -414.40161     -329.92151     -414.40185      0              5498.7051      30.944         21.33497       32.564255      21498.573      4991.4709      4795.8088      6708.8356      1361.6123      1315.5743      789.18182    
 121354000   250.72506     -415.54565     -331.57456     -415.54591      0              4623.5261      30.944         21.33497       32.732713      21609.787      2641.6329      6082.4848      5146.4607     -2452.6276      2036.1316     -381.21687    
 121356000   257.4572      -412.8784      -326.65262     -412.87797      0              5401.1789      30.944         21.33497       32.585465      21512.576      5621.5621      5060.7903      5521.1843     -1210.5945      1161.563       291.96883    
 121358000   251.2027      -415.15632     -331.02526     -415.15623      0              6706.9143      30.944         21.33497       32.631128      21542.722      5641.0819      7301.3489      7178.3119     -62.979134     -904.15281     -3159.3206    
 121360000   250.28281     -414.2213      -330.39832     -414.22105      0              6010.8318      30.944         21.33497       32.557425      21494.064      5877.6531      6761.7751      5393.0673     -347.87421      498.693       -936.79868    
 121362000   260.79839     -413.3562      -326.01142     -413.35671      0              5667.4204      30.944         21.33497       32.674793      21571.549      6579.9545      4597.4706      5824.836      -116.92109      644.83295     -1032.9008    
 121364000   255.92504     -413.44702     -327.73438     -413.44671      0              6830.8357      30.944         21.33497       32.505977      21460.099      8522.3249      7177.6276      4792.5546      90.188172      12.540048      103.13295    
 121366000   252.1768      -414.26671     -329.80941     -414.26716      0              6428.83        30.944         21.33497       32.56212       21497.164      5549.5807      7200.9058      6536.0035      1137.773      -516.34569     -2128.0888    
 121368000   255.28282     -410.43683     -324.93929     -410.43423      0              6539.5171      30.944         21.33497       32.470959      21436.98       4842.0871      9088.6101      5687.8541     -702.36331      58.589784     -2808.1546    
 121370000   256.23768     -411.66153     -325.84419     -411.66163      0              7445.7836      30.944         21.33497       32.32991       21343.861      8051.2735      5063.4771      9222.6002      188.8323       1871.2948     -564.42182    
[...]
 128278000   248.36941     -416.16854     -332.98639     -416.16807      0              7245.0323      30.944         21.33497       32.432031      21411.28       7246.7504      7314.767       7173.5796     -166.90941      40.602506      267.90056    
 128280000   255.26563     -414.37872     -328.88694     -414.37799      0              7351.6458      30.944         21.33497       32.402699      21391.916      7624.4791      9115.4024      5315.0559      74.888426     -160.76338     -610.77804    
 128282000   252.82284     -415.49453     -330.82087     -415.4938       0              6240.7075      30.944         21.33497       32.36264       21365.469      6476.1791      7941.2367      4304.7068      1489.5999      62.828355      34.331351    
 128284000   250.17032     -415.28819     -331.50288     -415.28747      0              5889.7522      30.944         21.33497       32.320718      21337.793      4913.0668      4657.3932      8098.7965     -108.52345      728.40508     -328.13379    
 128286000   252.99438     -416.45569     -331.72458     -416.45533      0              6363.6654      30.944         21.33497       32.635578      21545.66       6282.4742      6075.1724      6733.3495     -727.08989      271.60101     -483.52368    
 128288000   252.74733     -415.31181     -330.66343     -415.31102      0              6128.8402      30.944         21.33497       32.564957      21499.036      7099.0545      5035.8932      6251.5728     -686.5561      -381.06068      430.51263    
 128290000   253.35546     -415.21756     -330.36551     -415.2165       0              5507.5824      30.944         21.33497       32.565651      21499.495      4956.3129      6722.7049      4843.7293      716.45789      506.25968      77.447999    
 128292000   253.67304     -414.54321     -329.5848      -414.54356      0              6994.1936      30.944         21.33497       32.465769      21433.554      6909.4585      6694.6405      7378.4819     -757.41345     -397.4221      -1045.9828    
 128294000   257.94042     -415.0124      -328.62479     -415.011        0              5816.5772      30.944         21.33497       32.532588      21477.667      4503.9451      4401.1652      8544.6214      748.39556     -926.48154     -381.99073    
 128296000   255.73678     -415.1286      -329.47902     -415.12788      0              4971.8481      30.944         21.33497       32.639824      21548.463      6606.4744      5395.6795      2913.3904      627.53937     -760.29836     -686.54238    
 128298000   256.06728     -413.44331     -327.68304     -413.44255      0              5920.963       30.944         21.33497       32.521979      21470.663      7043.2633      4566.6554      6152.9704     -363.15512      102.81251     -1804.2248    
 128300000   246.40693     -414.52272     -331.99783     -414.52232      0              7007.6321      30.944         21.33497       32.427098      21408.023      5656.0978      6552.2501      8814.5484      706.57483      1203.9179      344.72775    
 128302000   252.9652      -412.87083     -328.14949     -412.87057      0              5969.7567      30.944         21.33497       32.336274      21348.062      4779.6185      7009.6444      6120.0072     -782.91255      400.05346     -173.59644    
 128304000   254.80953     -414.66783     -329.3288      -414.66714      0              6044.818       30.944         21.33497       32.52262       21471.086      6963.6062      5086.9146      6083.9331     -194.07024      1135.4862      305.29654    
 128306000   249.64949     -414.06156     -330.45069     -414.06135      0              3638.461       30.944         21.33497       32.518359      21468.273      5289.6005      2721.86        2903.9224      40.985179      124.99617     -1619.9467    
 128308000   263.34679     -414.13905     -325.94078     -414.13958      0              6119.1201      30.944         21.33497       32.589366      21515.151      5690.6175      6195.2083      6471.5345     -933.57329      1530.5068      15.383125    
 128310000   257.10824     -417.29568     -331.18678     -417.29451      0              5041.0878      30.944         21.33497       32.62393       21537.97       6338.3891      3280.453       5504.4213      262.70923      420.70074      88.802896    
 128312000   251.67444     -413.40894     -329.11988     -413.40864      0              6187.3009      30.944         21.33497       32.599752      21522.008      6101.0473      7353.3695      5107.4858     -925.8638      -170.30414     -456.19476    
 128314000   264.82204     -417.46388     -328.77153     -417.46319      0              6208.2962      30.944         21.33497       32.333268      21346.078      6585.5052      5650.4917      6388.8916     -1832.9399     -946.83225     -1252.0022    
 128316000   250.72286     -416.10973     -332.13938     -416.11028      0              5562.7984      30.944         21.33497       32.332738      21345.728      6161.799       4004.646       6521.9502     -1512.5295      705.7082      -55.02695     
 128318000   256.81956     -415.48846     -329.47624     -415.48777      0              7866.8349      30.944         21.33497       32.325268      21340.796      9421.6531      6316.5612      7862.2905     -152.93869     -85.963654      803.58485    
 128320000   256.14234     -415.72269     -329.93729     -415.72182      0              6180.6394      30.944         21.33497       32.322759      21339.14       6927.4837      6250.9258      5363.5087      1006.3504      573.7621      -851.63749    
 128322000   253.86794     -416.01625     -330.99257     -416.01558      0              4592.2015      30.944         21.33497       32.510649      21463.183      4346.5281      5387.3862      4042.6902      333.84947     -117.87542      872.46433    
 128324000   255.01464     -414.19801     -328.79029     -414.19819      0              6745.217       30.944         21.33497       32.393871      21386.087      5363.3621      5444.8227      9427.4662      805.78337     -482.45737     -1847.8028    
 128326000   251.85714     -414.83136     -330.48112     -414.83189      0              6354.6645      30.944         21.33497       32.459681      21429.534      4973.4645      5280.3211      8810.208       321.97631      1181.9207      510.34549    
 128328000   259.78681     -414.20453     -327.19854     -414.20515      0              5281.6852      30.944         21.33497       32.528281      21474.823      4992.3609      5376.0393      5476.6554      1292.5162      2256.0038      1090.9422    
 128330000   259.29199     -412.59552     -325.75525     -412.59605      0              4784.2327      30.944         21.33497       32.525633      21473.076      3751.0531      4611.7205      5989.9245     -499.25809      96.403572      1275.6306    
 128332000   255.02752     -416.93584     -331.5238      -416.93516      0              5791.8083      30.944         21.33497       32.547906      21487.78       5648.421       6215.8565      5511.1474     -457.30067      1634.6067     -469.29271    
 128334000   253.17247     -414.85499     -330.06423     -414.85453      0              7600.9525      30.944         21.33497       32.336942      21348.503      7167.2182      7967.8229      7667.8164      501.02589     -382.32062      182.26725    
 128336000   251.49369     -416.35595     -332.12744     -416.35524      0              7746.62        30.944         21.33497       32.357459      21362.048      8011.9781      7738.1703      7489.7117     -437.64344     -80.10886      -1124.774     
 128338000   258.0911      -413.65584     -327.21776     -413.65627      0              6120.3653      30.944         21.33497       32.526775      21473.829      6009.9985      5164.158       7186.9393     -42.160231     -1364.4282      1536.986     
 128340000   251.40226     -415.59554     -331.39764     -415.59226      0              5320.6244      30.944         21.33497       32.497885      21454.756      7204.0323      4400.2129      4357.628       259.09708     -583.42744      85.929246    
 128342000   256.75974     -412.61413     -326.62194     -412.61468      0              4402.278       30.944         21.33497       32.590388      21515.826      4258.6725      5257.6857      3690.4757     -505.40693     -817.72332     -951.02798    
 128344000   255.59025     -415.5486      -329.94809     -415.54883      0              5593.9676      30.944         21.33497       32.50027       21456.331      6845.4614      5237.9195      4698.522      -13.996716     -1200.7081      535.3224     
 128346000   254.3757      -415.58138     -330.38765     -415.58075      0              3848.4455      30.944         21.33497       32.560121      21495.844      3604.2506      4737.2724      3203.8134      276.82514      131.10823     -455.21594    
 128348000   252.65103     -418.1543      -333.53817     -418.15477      0              6638.572       30.944         21.33497       32.451747      21424.296      6484.9059      6695.1403      6735.6697     -208.79066      176.34828     -1139.8026    
 128350000   256.24761     -416.76967     -330.949       -416.76918      0              7520.8614      30.944         21.33497       32.424165      21406.087      8932.8405      6164.0725      7465.6712      1722.7659     -804.4037      -294.5112     
 128352000   257.13368     -414.47072     -328.3533      -414.47111      0              5853.0603      30.944         21.33497       32.457783      21428.281      6083.7673      4290.351       7185.0628     -1750.8596     -175.86684      345.58984    
 128354000   262.66143     -415.73927     -327.77054     -415.73988      0              6339.9641      30.944         21.33497       32.446294      21420.696      6357.0678      6793.4851      5869.3394      265.09499     -235.45184     -1082.4719    
 128356000   261.34818     -417.42944     -329.90053     -417.42837      0              6031.1875      30.944         21.33497       32.402761      21391.957      5789.5756      7069.2651      5234.7217      827.11836      499.56859     -2052.5545    
 128358000   255.18289     -415.10053     -329.63646     -415.09991      0              7602.3072      30.944         21.33497       32.341877      21351.761      8579.6065      6846.9303      7380.3847     -368.37247      294.14651      1557.4131    
 128360000   257.80049     -412.73757     -326.39682     -412.73795      0              6082.8338      30.944         21.33497       32.674872      21571.601      5742.0926      5368.612       7137.7968     -997.54989     -1285.2812     -173.67558    
 128362000   252.21568     -416.44443     -331.97411     -416.44411      0              5715.9961      30.944         21.33497       32.505765      21459.959      6787.7307      5821.1087      4539.1488     -1241.6841      625.30047     -943.05371    
 128364000   262.21087     -415.71209     -327.89425     -415.71213      0              5294.9025      30.944         21.33497       32.55289       21491.07       4382.5223      6330.0633      5172.1218     -714.97632      977.27974     -864.63214    
 128366000   253.00913     -414.09263     -329.35658     -414.09231      0              6907.2586      30.944         21.33497       32.443144      21418.617      4556.1184      6230.253       9935.4046      1061.6221     -220.09384      316.05535    
 128368000   258.34585     -414.13534     -327.61195     -414.13571      0              4355.9839      30.944         21.33497       32.484815      21446.128      4645.5625      3648.1724      4774.2168     -397.55156      10.920904      210.24414    
 128370000   258.50998     -415.18602     -328.60765     -415.18504      0              7189.2513      30.944         21.33497       32.43932       21416.092      7348.8267      6055.1112      8163.8161     -863.93211      438.82726      1285.2682    
 128372000   253.53816     -417.88876     -332.97553     -417.8885       0              4001.1499      30.944         21.33497       32.153136      21227.157      3309.261       4376.6975      4317.4911     -2605.8826      1013.0174     -97.02936     
 128374000   256.49        -416.26027     -330.35842     -416.25968      0              8503.1859      30.944         21.33497       32.136068      21215.889      8143.3733      8800.228       8565.9565     -23.69431       97.45264       1018.9758    
 128376000   247.35258     -414.58486     -331.74326     -414.58525      0              5898.6784      30.944         21.33497       32.303639      21326.517      6620.8184      5471.1727      5604.0441      32.304366      398.53441      1578.9816    
 128378000   250.16726     -415.96363     -332.17936     -415.96295      0              7166.3624      30.944         21.33497       32.28157       21311.947      7394.9285      6773.5133      7330.6454     -462.5267      -259.2939       1175.4899    
 128380000   252.02154     -413.13264     -328.72735     -413.13321      0              6404.6393      30.944         21.33497       32.326506      21341.614      6183.9447      6859.8472      6170.126       684.89521     -814.78882      328.73177    
 128382000   251.95453     -414.53408     -330.15123     -414.5333       0              7253.0079      30.944         21.33497       32.345886      21354.408      6653.4287      8053.1219      7052.4731      1075.7464      75.968348      475.23069    
 128384000   251.08095     -411.94692     -327.85664     -411.94628      0              6477.1029      30.944         21.33497       32.355702      21360.889      6375.1256      7510.7969      5545.3862      569.58186      281.83333      207.29545    
 128386000   252.57815     -414.64636     -330.05464     -414.6421       0              4802.3968      30.944         21.33497       32.322425      21338.919      4514.7185      6033.4814      3858.9907      779.38428      16.55526      -1965.0668    
 128388000   256.04835     -415.79266     -330.03872     -415.79229      0              7048.5799      30.944         21.33497       32.393256      21385.681      7438.5783      7704.8869      6002.2745      574.47279      255.66302     -1486.9364    
 128390000   251.16105     -413.3063      -329.18919     -413.30694      0              6501.7238      30.944         21.33497       32.415205      21400.172      7270.5138      6273.0084      5961.6491      221.55407      1067.0894      129.5556     
 128392000   248.26993     -414.06586     -330.91702     -414.06627      0              6754.2742      30.944         21.33497       32.489938      21449.51       8148.6375      6006.6869      6107.4983     -480.16796      460.01827     -1654.2238    
 128394000   254.51896     -413.6773      -328.43559     -413.67716      0              8063.3862      30.944         21.33497       32.365699      21367.489      6816.599       8642.4067      8731.153       63.280034     -1635.1507      225.23394    
 128396000   252.06504     -413.05576     -328.63589     -413.05641      0              6306.5047      30.944         21.33497       32.327308      21342.143      6644.6814      5887.0221      6387.8107      779.28407     -838.86065      1104.0125    
 128398000   258.31288     -414.7858      -328.27345     -414.78519      0              6828.3777      30.944         21.33497       32.339         21349.862      5772.3987      6251.5182      8461.2162      2340.6947     -452.27966      956.4078     
 128400000   258.3087      -415.14137     -328.63042     -415.14016      0              5645.8921      30.944         21.33497       32.700578      21588.572      6264.8474      6247.0215      4425.8073      254.47833     -1443.4217      1174.4022    
 128402000   254.47313     -413.53122     -328.30485     -413.5313       0              6728.0912      30.944         21.33497       32.532964      21477.915      7614.4678      5124.7699      7445.036       115.36681     -924.79852      1648.6547    
 128404000   252.00299     -415.85406     -331.45497     -415.85412      0              6711.2338      30.944         21.33497       32.472701      21438.13       8487.0652      7266.1496      4380.4867      1281.6795      497.74496      144.78528    
 128406000   258.47555     -412.98191     -326.41507     -412.98139      0              6903.8357      30.944         21.33497       32.546799      21487.049      6383.2959      7138.6015      7189.6097     -72.954883      748.97992      69.523601    
 128408000   249.95008     -413.83654     -330.125       -413.83468      0              5254.8432      30.944         21.33497       32.545966      21486.499      4605.2677      4207.5737      6951.6883     -410.77675      364.68585      866.87444    
 128410000   259.81428     -415.72584     -328.71066     -415.7255       0              5465.2529      30.944         21.33497       32.627411      21540.268      5434.8447      5621.3302      5339.5837      633.83145      1038.9956     -1270.6569    
 128412000   249.80267     -411.28434     -327.62217     -411.28431      0              8784.7395      30.944         21.33497       32.700982      21588.839      9220.5108      9680.4818      7453.2258     -70.76773       948.86908     -1104.0593    
 128414000   245.50186     -414.14396     -331.92218     -414.14322      0              6600.2581      30.944         21.33497       32.573544      21504.706      7833.3612      6567.3217      5400.0915      305.70267      55.997086      314.03732    
 128416000   252.07817     -414.28491     -329.86064     -414.28523      0              4710.5873      30.944         21.33497       32.689985      21581.579      3872.1563      4505.5656      5754.04        697.99961     -751.92802      25.793227    
 128418000   257.45836     -413.95837     -327.73221     -413.95662      0              7347.4234      30.944         21.33497       32.559587      21495.491      6805.0854      7668.0049      7569.18       -413.90528      603.78349     -204.81873    
 128420000   252.43554     -416.49743     -331.95348     -416.49777      0              5697.8731      30.944         21.33497       32.589918      21515.516      7061.8136      5004.9201      5026.8858     -426.89587      669.49814     -88.221236    
WARNING: Wall time limit reached (../timer.cpp:193)
Loop time of 85809.9 on 4 procs for 7618000 steps with 2592 atoms

Performance: 3.835 ns/day, 6.258 hours/ns, 88.778 timesteps/s
1479.7% CPU use with 4 MPI tasks x no OpenMP threads

MPI task timing breakdown:
Section |  min time  |  avg time  |  max time  |%varavg| %total
---------------------------------------------------------------
Pair    | 21312      | 21405      | 21486      |  42.6 | 24.94
Bond    | 0.77956    | 0.87157    | 1.0518     |  11.6 |  0.00
Neigh   | 656.78     | 659.66     | 664.45     |  11.3 |  0.77
Comm    | 2387.4     | 2466.3     | 2557.6     | 124.6 |  2.87
Output  | 4216.9     | 4217       | 4217.1     |   0.1 |  4.91
Modify  | 57035      | 57040      | 57043      |   1.2 | 66.47
Other   |            | 21.4       |            |       |  0.02

Nlocal:            648 ave         654 max         634 min
Histogram: 1 0 0 0 0 0 0 0 0 3
Nghost:         4231.5 ave        4239 max        4222 min
Histogram: 1 0 0 0 0 1 0 1 0 1
Neighs:              0 ave           0 max           0 min
Histogram: 4 0 0 0 0 0 0 0 0 0
FullNghs:       166832 ave      168997 max      162118 min
Histogram: 1 0 0 0 0 0 0 1 0 2

Total # of neighbors = 667328
Ave neighs/atom = 257.45679
Ave special neighs/atom = 0
Neighbor list builds = 152360
Dangerous builds not checked
unfix 3
unfix 1
unfix 2


# Finalize simulation
write_restart	restart.lmp.${pid}
write_restart	restart.lmp.0
System init for write_restart ...
Generated 0 of 1 mixed pair_coeff terms from geometric mixing rule
write_data	data.final.${pid} nocoeff
write_data	data.final.0 nocoeff
System init for write_data ...
Generated 0 of 1 mixed pair_coeff terms from geometric mixing rule
Total wall time: 23:50:23
