LAMMPS (23 Jun 2022)
include procedure.lmp
echo both
include		in.partitions
variable        pid world 0
include		in.temp
variable	temperature equal 255
variable        tempDamp equal 0.100 # this is 0.1 ps
include		in.pressure
variable        pressure equal 6079.5
variable        pressureDamp equal 1.0 #this is 1ps

variable	barostat string	   tri
variable	direction string   z
variable	direction_x_bool equal 0
variable	direction_y_bool equal 0
variable	direction_z_bool equal 1

include		in.seed
variable        seed world 745823

units           metal
atom_style	full
box tilt large
read_restart 	restart.lmp.${pid}
read_restart 	restart.lmp.0
Reading restart file ...
  restart file = 23 Jun 2022, LAMMPS = 23 Jun 2022
  restoring atom style full from restart
  triclinic box = (0 0 -0.80622091) to (30.944 21.33497 31.778936) with tilt (-9.144178 0.98325324 -10.84345)
WARNING: Triclinic box skew is large (../domain.cpp:224)
  2 by 1 by 2 MPI processor grid
Summary of lammps deepmd module ...
  >>> Info of deepmd-kit:
  installed to:       /u/sigbjobo/software/DEEPMD_FROM_SOURCE/deepmd-kit/install
  source:             v2.1.3
  source branch:       master
  source commit:      5a32c49
  source commit at:   2022-07-01 09:52:58 +0800
  surpport model ver.:1.1 
  build float prec:   double
  build with tf inc:  /u/sigbjobo/software/DEEPMD_FROM_SOURCE/tensorflow/install/include;/u/sigbjobo/software/DEEPMD_FROM_SOURCE/tensorflow/install/include
  build with tf lib:  /u/sigbjobo/software/DEEPMD_FROM_SOURCE/tensorflow/install/lib/libtensorflow_cc.so;/u/sigbjobo/software/DEEPMD_FROM_SOURCE/tensorflow/install/lib/libtensorflow_framework.so
  set tf intra_op_parallelism_threads: 0
  set tf inter_op_parallelism_threads: 0
  >>> Info of lammps module:
  use deepmd-kit at:  /u/sigbjobo/software/DEEPMD_FROM_SOURCE/deepmd-kit/install
  source:             v2.1.3
  source branch:      master
  source commit:      5a32c49
  source commit at:   2022-07-01 09:52:58 +0800
  build float prec:   double
  build with tf inc:  /u/sigbjobo/software/DEEPMD_FROM_SOURCE/tensorflow/install/include;/u/sigbjobo/software/DEEPMD_FROM_SOURCE/tensorflow/install/include
  build with tf lib:  /u/sigbjobo/software/DEEPMD_FROM_SOURCE/tensorflow/install/lib/libtensorflow_cc.so;/u/sigbjobo/software/DEEPMD_FROM_SOURCE/tensorflow/install/lib/libtensorflow_framework.so
  restoring pair style deepmd from restart
  2592 atoms
Finding 1-2 1-3 1-4 neighbors ...
  special bond factors lj:    0        0        0       
  special bond factors coul:  0        0        0       
     0 = max # of 1-2 neighbors
     0 = max # of 1-3 neighbors
     0 = max # of 1-4 neighbors
     1 = max # of special neighbors
  special bonds CPU = 0.000 seconds
  read_restart CPU = 0.031 seconds
include 	in.setup
variable	out_freq equal 2000
variable	out_freq2 equal 2000

timestep        0.0005

neigh_modify    delay 7 every 1

include         in.deepmd
# This is deepMD model

# create groups ###
#group ox type 2
#group hy type 1

mass 2 15.999
mass 1 1.008

pair_style      deepmd ../graph.pb
pair_coeff      * *

bond_style      none
angle_style     none
dihedral_style  none
improper_style  none
neigh_modify exclude none


neighbor        2.0 bin
neigh_modify    every 50 delay 0 check no

thermo          ${out_freq}
thermo          2000
thermo_style 	custom step temp pe etotal epair emol press lx ly lz vol pxx pyy pzz pxy pxz pyz

restart 	${out_freq} restart.lmp.${pid} restart2.lmp.${pid}
restart 	2000 restart.lmp.${pid} restart2.lmp.${pid}
restart 	2000 restart.lmp.0 restart2.lmp.${pid}
restart 	2000 restart.lmp.0 restart2.lmp.0


timer           timeout 23:50:00 every 1000
New timer settings: style=normal  mode=nosync  timeout=23:50:00


# Set number of time steps
variable 	nsteps_wall		equal	 6000000
variable 	nsteps_enhanced_coex    equal	20000000

variable     nsteps_enhanced_coex_upto equal (${nsteps_wall}+${nsteps_enhanced_coex})
variable     nsteps_enhanced_coex_upto equal (6000000+${nsteps_enhanced_coex})
variable     nsteps_enhanced_coex_upto equal (6000000+20000000)


# Set temperature for first step
if "$(step) < 1  " then    "velocity 	all create ${temperature} ${seed} dist gaussian"


# Always run thermo and barostat


######################################
# Run simulation with wall potential #
######################################
if " $(step) < ${nsteps_wall} " then    "fix             3 all plumed plumedfile plumed.equil.dat outfile plumed.equil.out"   "fix             1 all nph ${direction} ${pressure} ${pressure} ${pressureDamp}"   "fix             2 all temp/csvr ${temperature} ${temperature} ${tempDamp} ${seed}"   "run             ${nsteps_wall} upto"
if " $(step) == ${nsteps_wall} " then    "unfix 3"   "unfix 1"   "unfix 2"


############################
# Run enhanced coesistence #
############################
if "$(step) == ${nsteps_wall}" then    "fix             3 all plumed plumedfile plumed.start.dat outfile plumed.out" else    "fix             3 all plumed plumedfile plumed.dat outfile plumed.out"
fix             3 all plumed plumedfile plumed.dat outfile plumed.out

if "$(step) < ${nsteps_enhanced_coex_upto} && $(step) >= ${nsteps_wall} " then    "include         in.dump"    "fix             1 all nph ${direction} ${pressure} ${pressure} ${pressureDamp}"   "fix             2 all temp/csvr ${temperature} ${temperature} ${tempDamp} ${seed}"   "run             ${nsteps_enhanced_coex_upto} upto"    "unfix 3"   "unfix 1"   "unfix 2"
include         in.dump
dump            myDump all atom ${out_freq2} dump.water.${pid}
dump            myDump all atom 2000 dump.water.${pid}
dump            myDump all atom 2000 dump.water.0
dump            myDump2 all dcd ${out_freq2} dump.${pid}.dcd
dump            myDump2 all dcd 2000 dump.${pid}.dcd
dump            myDump2 all dcd 2000 dump.0.dcd
dump_modify     myDump append yes
dump_modify     myDump2 append yes

fix             1 all nph ${direction} ${pressure} ${pressure} ${pressureDamp}
fix             1 all nph z ${pressure} ${pressure} ${pressureDamp}
fix             1 all nph z 6079.5 ${pressure} ${pressureDamp}
fix             1 all nph z 6079.5 6079.5 ${pressureDamp}
fix             1 all nph z 6079.5 6079.5 1
fix             2 all temp/csvr ${temperature} ${temperature} ${tempDamp} ${seed}
fix             2 all temp/csvr 255 ${temperature} ${tempDamp} ${seed}
fix             2 all temp/csvr 255 255 ${tempDamp} ${seed}
fix             2 all temp/csvr 255 255 0.1 ${seed}
fix             2 all temp/csvr 255 255 0.1 745823
run             ${nsteps_enhanced_coex_upto} upto
run             26000000 upto

CITE-CITE-CITE-CITE-CITE-CITE-CITE-CITE-CITE-CITE-CITE-CITE-CITE

Your simulation uses code contributions which should be cited:

- USER-DEEPMD package:

@article{Wang_ComputPhysCommun_2018_v228_p178,
  author = {Wang, Han and Zhang, Linfeng and Han, Jiequn and E, Weinan},
  doi = {10.1016/j.cpc.2018.03.016},
  url = {https://doi.org/10.1016/j.cpc.2018.03.016},
  year = 2018,
  month = {jul},
  publisher = {Elsevier {BV}},
  volume = 228,
  journal = {Comput. Phys. Commun.},
  title = {{DeePMD-kit: A deep learning package for many-body potential energy representation and molecular dynamics}},
  pages = {178--184}
}

CITE-CITE-CITE-CITE-CITE-CITE-CITE-CITE-CITE-CITE-CITE-CITE-CITE

Generated 0 of 1 mixed pair_coeff terms from geometric mixing rule
Neighbor list info ...
  update every 50 steps, delay 0 steps, check no
  max neighbors/atom: 2000, page size: 100000
  master list distance cutoff = 8
  ghost atom cutoff = 8
  binsize = 4, bins = 11 9 9
  1 neighbor lists, perpetual/occasional/extra = 1 0 0
  (1) pair deepmd, perpetual
      attributes: full, newton on
      pair build: full/bin
      stencil: full/bin/3d
      bin: standard
Per MPI rank memory allocation (min/avg/max) = 6.239 | 6.24 | 6.241 Mbytes
   Step          Temp          PotEng         TotEng         E_pair         E_mol          Press            Lx             Ly             Lz           Volume          Pxx            Pyy            Pzz            Pxy            Pxz            Pyz      
  15653000   252.74916     -413.33103     -328.68204     -413.33103      0              8082.6527      30.944         21.33497       32.585157      21512.372      8595.5005      8089.0305      7563.4271      1068.3874      486.92852     -867.50782    
  15654000   255.5583      -415.01254     -329.42274     -415.01254      0              7371.2699      30.944         21.33497       32.634066      21544.662      7037.6699      6424.0203      8652.1194     -40.191511     -112.52679     -304.29954    
  15656000   259.56569     -414.47751     -327.54557     -414.47751      0              7392.761       30.944         21.33497       32.597623      21520.602      8214.1639      6964.7983      6999.3209      1515.4365     -62.775513      1035.3122    
  15658000   258.08621     -415.702       -329.26556     -415.702        0              4395.764       30.944         21.33497       32.696366      21585.791      4977.589       3122.4274      5087.2757     -2330.6184     -2204.4603     -45.773593    
  15660000   255.61789     -413.0648      -327.45504     -413.0648       0              6471.7002      30.944         21.33497       32.718477      21600.389      5905.6279      8024.481       5484.9916      1813.5381     -712.62045     -1894.1013    
  15662000   266.28712     -415.22097     -326.03794     -415.22097      0              4873.3165      30.944         21.33497       32.705623      21591.903      5873.1049      4593.5755      4153.269      -47.128938     -612.19554     -847.5119     
  15664000   253.87174     -411.34024     -326.31529     -411.34024      0              5054.2843      30.944         21.33497       32.721281      21602.24       5424.9846      4424.6112      5313.2571     -10.659068      229.10062     -49.245464    
  15666000   259.97315     -412.20463     -325.13623     -412.20463      0              6112.5307      30.944         21.33497       32.5605        21496.094      6922.3432      4226.5268      7188.722      -323.43452     -1468.8947     -950.40264    
  15668000   255.77659     -413.76253     -328.09961     -413.76253      0              6961.5177      30.944         21.33497       32.510273      21462.935      8045.1154      6218.6716      6620.7662     -554.57609     -622.84144      1487.4331    
  15670000   252.30611     -413.15908     -328.65848     -413.15908      0              7678.3028      30.944         21.33497       32.455145      21426.54       6233.7504      8329.369       8471.7891     -766.13979      965.71539     -1445.6736    
  15672000   251.8255      -413.65238     -329.31274     -413.65238      0              5732.3378      30.944         21.33497       32.417693      21401.814      7528.6596      4615.065       5053.2886     -108.07075      998.57913      1440.6988    
  15674000   253.06931     -416.59356     -331.83735     -416.59356      0              5921.3601      30.944         21.33497       32.445013      21419.851      7443.28        6077.8453      4242.9552      593.141        335.79612     -1704.3478    
  15676000   254.54236     -417.75788     -332.50832     -417.75788      0              6853.0455      30.944         21.33497       32.531306      21476.821      7065.6613      6703.1607      6790.3146      552.04544      627.77967      1074.6089    
  15678000   265.03445     -414.61388     -325.85039     -414.61388      0              6326.9727      30.944         21.33497       32.691889      21582.836      6155.3483      5319.8982      7505.6715      813.68481      199.61981     -492.19644    
  15680000   260.6207      -414.42181     -327.13654     -414.42181      0              6801.1067      30.944         21.33497       32.65325       21557.326      8450.5678      5372.1029      6580.6494      325.49073     -1505.527      -77.03646     
  15682000   251.7117      -414.03087     -329.72934     -414.03087      0              6233.0328      30.944         21.33497       32.405764      21393.939      5885.8286      5618.7309      7194.5389     -983.74194      1056.5069      83.847052    
  15684000   261.38763     -412.41452     -324.8724      -412.41452      0              7778.1232      30.944         21.33497       32.560607      21496.165      10192.189      6897.195       6244.9851     -135.18317      521.30788     -1583.9711    
  15686000   256.46359     -412.5795      -326.6865      -412.5795       0              5795.4622      30.944         21.33497       32.60528       21525.657      5218.4797      6845.1526      5322.7543      93.406817      1293.2933     -2257.2163    
  15688000   251.41039     -414.59024     -330.38962     -414.59024      0              6441.7294      30.944         21.33497       32.4254        21406.903      7222.2567      6252.9588      5849.9726     -709.41219     -941.88262     -979.38693    
  15690000   253.46253     -414.56038     -329.67247     -414.56038      0              8943.6346      30.944         21.33497       32.367948      21368.973      8521.7984      8897.2778      9411.8277      270.91052     -669.14121     -880.63407    
  15692000   254.15785     -413.82679     -328.70601     -413.82679      0              5218.916       30.944         21.33497       32.531839      21477.172      5401.7446      3812.242       6442.7615     -548.4416      -527.9876      -91.100352    
  15694000   256.18078     -417.37525     -331.57697     -417.37525      0              7120.2799      30.944         21.33497       32.507025      21460.791      6959.0761      7165.9264      7235.8373      2265.5099      28.639668     -1283.6386    
  15696000   249.15741     -412.43149     -328.98542     -412.43149      0              7733.8909      30.944         21.33497       32.430241      21410.099      7489.692       8046.7613      7665.2195      1597.9058     -623.39248      1183.5395    
  15698000   250.65957     -414.682       -330.73284     -414.682        0              6419.3104      30.944         21.33497       32.468014      21435.036      5900.4759      7257.3123      6100.1429      1281.2202      2012.5321      1375.2354    
  15700000   257.27772     -414.0998      -327.93414     -414.0998       0              7922.217       30.944         21.33497       32.320007      21337.323      7254.5809      6584.1602      9927.9098     -2110.3719      462.19929      843.31143    
  15702000   267.49281     -415.12204     -325.53521     -415.12204      0              7708.1354      30.944         21.33497       32.352061      21358.485      8054.2104      6291.1113      8779.0845      1172.7896      329.73558      952.67466    
  15704000   263.12378     -412.23651     -324.11293     -412.23651      0              6474.6246      30.944         21.33497       32.474707      21439.455      7574.5087      6236.3526      5613.0125     -102.26549      840.72895     -1414.9284    
  15706000   258.05386     -415.98884     -329.56324     -415.98884      0              5648.96        30.944         21.33497       32.537844      21481.137      7981.2485      3852.5321      5113.0993     -565.90237      1465.7189      578.90898    
  15708000   257.91294     -413.49862     -327.12022     -413.49862      0              3748.8063      30.944         21.33497       32.53445       21478.896      3465.2533      3041.8341      4739.3315     -439.96645     -290.77733      446.65625    
  15710000   251.96432     -414.50027     -330.11413     -414.50027      0              5639.6909      30.944         21.33497       32.657443      21560.095      7252.5196      4218.7718      5447.7814      617.27893     -624.82509      997.89274    
  15712000   251.4842      -412.95919     -328.73385     -412.95919      0              7004.2468      30.944         21.33497       32.613698      21531.215      9200.6825      7070.419       4741.639       50.794331      1048.4588      808.56307    
  15714000   253.14301     -413.59035     -328.80945     -413.59035      0              5307.5023      30.944         21.33497       32.613731      21531.237      4245.6285      6044.421       5632.4572      1399.4144      108.85833     -279.65534    
  15716000   263.29708     -412.27453     -324.09291     -412.27453      0              7010.0267      30.944         21.33497       32.491292      21450.404      7258.4209      7300.4942      6471.1649     -392.76532     -910.58914      896.2505     
  15718000   249.02019     -415.48282     -332.08271     -415.48282      0              4080.7358      30.944         21.33497       32.491396      21450.472      3118.4276      3679.6711      5444.1087     -91.934413      934.66098      639.30277    
  15720000   253.61841     -414.05781     -329.1177      -414.05781      0              6511.9714      30.944         21.33497       32.617244      21533.556      6749.1698      5145.9244      7640.8199      428.94554      363.46274      548.16128    
  15722000   249.07126     -415.19305     -331.77584     -415.19305      0              7687.2549      30.944         21.33497       32.437475      21414.874      6403.8564      9648.0443      7009.8639      629.15148      351.97597     -603.4713     
  15724000   247.66239     -414.48024     -331.53488     -414.48024      0              6871.168       30.944         21.33497       32.350018      21357.136      5013.9874      7833.565       7765.9518      788.3405       1789.8932     -89.646773    
  15726000   258.20974     -416.51283     -330.03502     -416.51283      0              9289.2466      30.944         21.33497       32.389704      21383.336      8016.9959      9393.5132      10457.231      381.93084      727.60101     -61.369826    
  15728000   262.73064     -414.99455     -327.00263     -414.99455      0              5307.2245      30.944         21.33497       32.508891      21462.022      5474.6619      4989.4511      5457.5606      933.54983      727.36557     -797.6121     
  15730000   249.87669     -416.50445     -332.81749     -416.50445      0              3978.5232      30.944         21.33497       32.457828      21428.311      4236.0027      4494.5362      3205.0307      260.10246     -372.86808     -555.59795    
  15732000   249.38642     -414.69194     -331.16917     -414.69194      0              5340.7463      30.944         21.33497       32.438573      21415.599      6895.5119      4284.9311      4841.796      -1164.8166      99.70103      -581.97548    
  15734000   249.19112     -413.55735     -330.1         -413.55735      0              5975.6284      30.944         21.33497       32.49526       21453.024      7730.9674      5417.6887      4778.2291     -503.32284     -1519.9671      74.458671    
  15736000   260.07505     -414.70505     -327.60253     -414.70505      0              4810.4546      30.944         21.33497       32.667693      21566.862      5927.822       5581.7786      2921.7631     -79.406992     -7.7067458     -465.16927    
  15738000   255.62127     -414.13452     -328.52362     -414.13452      0              7200.2724      30.944         21.33497       32.460443      21430.037      7216.2715      7842.3258      6542.2198     -404.82261     -964.10258      922.99464    
  15740000   257.01593     -415.23178     -329.15379     -415.23178      0              7322.1188      30.944         21.33497       32.51323       21464.887      7591.9914      7381.1651      6993.2        -443.6631      -1300.1892     -160.33284    
  15742000   245.65661     -415.08618     -332.81258     -415.08618      0              5716.1697      30.944         21.33497       32.270678      21304.757      4721.2472      5884.2042      6543.0577     -439.20963     -653.75001     -139.32155    
  15744000   248.22788     -412.89454     -329.75979     -412.89454      0              7155.3784      30.944         21.33497       32.429356      21409.514      9684.6029      5161.6005      6619.9318      1615.3665     -1975.0517     -458.26178    
  15746000   258.18546     -414.57664     -328.10696     -414.57664      0              6071.2066      30.944         21.33497       32.47124       21437.165      5669.215       5220.7203      7323.6844     -404.31349     -3.1563668     -894.08172    
  15748000   249.59895     -413.97289     -330.37895     -413.97289      0              5624.0311      30.944         21.33497       32.486692      21447.367      6499.8542      7379.6425      2992.5965      135.38111     -2275.4085      364.17807    
  15750000   250.29609     -414.53354     -330.70612     -414.53354      0              7519.1738      30.944         21.33497       32.545547      21486.222      8905.1688      6209.6774      7442.6753     -298.22445      881.96528      1806.6963    
  15752000   251.71761     -413.78581     -329.4823      -413.78581      0              7523.0106      30.944         21.33497       32.591325      21516.445      8033.0415      7022.8803      7513.11       -497.80164     -452.67012      444.12409    
  15754000   251.88955     -413.80695     -329.44585     -413.80695      0              7654.6436      30.944         21.33497       32.643929      21551.173      7156.6999      8065.2482      7741.9828      323.73186     -1761.6309     -1661.5325    
  15756000   260.32403     -416.52308     -329.33717     -416.52308      0              6192.7683      30.944         21.33497       32.620544      21535.734      4667.6471      7979.4112      5931.2467     -5.832217       431.2308      -1368.3708    
  15758000   251.91262     -411.87117     -327.50235     -411.87117      0              6484.7778      30.944         21.33497       32.549219      21488.647      6197.5456      7358.1204      5898.6675      60.691719      721.28405     -490.78054    
  15760000   254.00899     -413.45929     -328.38837     -413.45929      0              7121.6739      30.944         21.33497       32.694802      21584.759      5947.6902      6323.7317      9093.5996      529.22632     -737.16918     -1112.2078    
  15762000   261.91974     -414.84173     -327.1214      -414.84173      0              7359.4716      30.944         21.33497       32.458936      21429.043      6349.4526      8043.1206      7685.8415      542.97896      1226.983      -916.44937    
  15764000   251.37931     -412.48045     -328.29025     -412.48045      0              4749.4876      30.944         21.33497       32.586626      21513.342      3228.7698      4908.2903      6111.4025      719.85987      951.22276      424.02341    
  15766000   257.31365     -415.2402      -329.06251     -415.2402       0              7957.2818      30.944         21.33497       32.407664      21395.193      7838.523       8550.3996      7482.923       1207.7715      596.69149     -793.94026    
  15768000   255.0124      -412.00504     -326.59807     -412.00504      0              8447.1084      30.944         21.33497       32.562799      21497.612      9817.4752      8851.4978      6672.3522      132.6839      -824.45371     -431.04837    
  15770000   254.36134     -415.6769      -330.48797     -415.6769       0              5826.0674      30.944         21.33497       32.585159      21512.374      6091.0756      5208.0987      6179.0278     -248.53188      1045.8832      917.90535    
  15772000   256.51335     -412.39569     -326.48603     -412.39569      0              5364.7604      30.944         21.33497       32.542675      21484.326      5215.3005      4954.034       5924.9468     -921.79617      1241.0782      1116.5691    
  15774000   253.40175     -413.18248     -328.31494     -413.18248      0              7482.7837      30.944         21.33497       32.48263       21444.685      7262.7749      6304.9408      8880.6355      792.87197     -13.171261     -69.978857    
  15776000   255.75863     -415.27753     -329.62063     -415.27753      0              7207.5443      30.944         21.33497       32.340845      21351.08       7748.1481      8482.8323      5391.6524     -451.72412     -1022.379      -529.95464    
  15778000   260.46943     -411.09621     -323.8616      -411.09621      0              7863.8354      30.944         21.33497       32.421341      21404.223      7503.8087      8540.695       7547.0026      871.58765      1631.4169      357.91242    
  15780000   251.23176     -411.89382     -327.75302     -411.89382      0              5909.1005      30.944         21.33497       32.572602      21504.084      6305.2086      6166.8833      5255.2096      1078.3855      354.31689     -103.20731    
  15782000   253.90375     -413.06219     -328.02651     -413.06219      0              6156.4953      30.944         21.33497       32.58446       21511.912      6448.9846      6606.2929      5414.2085     -37.638164      1231.2697      998.18919    
  15784000   247.58637     -415.3135      -332.3936      -415.3135       0              6268.5135      30.944         21.33497       32.647575      21553.58       5907.1869      6978.2228      5920.1309      591.867        1538.1514     -501.17659    
  15786000   258.016       -413.6194      -327.20648     -413.6194       0              5373.8129      30.944         21.33497       32.84979       21687.08       4579.7653      7295.7836      4245.8899     -59.944276     -389.52924     -159.76022    
  15788000   258.52018     -415.74442     -329.16264     -415.74442      0              6730.9225      30.944         21.33497       32.676819      21572.886      8367.8981      6316.5027      5508.3667      800.42013     -1342.2958     -1630.5592    
  15790000   258.32282     -413.35175     -326.83607     -413.35175      0              6270.521       30.944         21.33497       32.68389       21577.555      6993.4635      8568.9681      3249.1315      604.45126     -978.98195      238.03986    
  15792000   246.4137      -416.02618     -333.49902     -416.02618      0              6049.3352      30.944         21.33497       32.555424      21492.743      6560.2682      6691.8002      4895.9372     -502.68622      273.0103      -105.27814    
  15794000   252.67194     -412.67174     -328.04861     -412.67174      0              8380.4116      30.944         21.33497       32.426794      21407.823      9583.3439      8372.9163      7184.9746     -922.00318      853.71797     -2539.2888    
  15796000   254.21174     -412.39849     -327.25966     -412.39849      0              7682.3036      30.944         21.33497       32.546731      21487.004      7510.0503      7986.5237      7550.3367     -347.90456      230.4821       445.43759    
  15798000   257.25878     -414.13489     -327.97557     -414.13489      0              6569.2851      30.944         21.33497       32.33577       21347.73       6299.8891      7425.4026      5982.5637     -684.81317      1365.3101     -1668.075     
  15800000   252.1248      -413.0688      -328.62892     -413.0688       0              8082.4145      30.944         21.33497       32.49552       21453.195      7423.6144      8360.0422      8463.5868      426.25723      422.79725     -820.91074    
  15802000   258.9589      -410.67075     -323.94204     -410.67075      0              7442.719       30.944         21.33497       32.562784      21497.602      8538.6718      6050.8255      7738.6596     -915.55455     -1261.4786      1124.3423    
  15804000   255.70572     -413.76416     -328.12498     -413.76416      0              7585.4069      30.944         21.33497       32.507634      21461.193      6388.526       7523.7889      8843.9059      2058.9641     -351.75559      596.68003    
  15806000   249.49529     -412.61988     -329.06066     -412.61988      0              6054.8002      30.944         21.33497       32.503033      21458.155      6542.9203      6638.2242      4983.2561      266.00791     -1849.9594     -1089.9946    
  15808000   258.67545     -414.28928     -327.6555      -414.28928      0              7190.6191      30.944         21.33497       32.529344      21475.525      7300.9841      7129.5129      7141.3603      1220.4407     -1562.9783     -596.97273    
  15810000   251.99595     -414.21333     -329.8166      -414.21333      0              7505.631       30.944         21.33497       32.481806      21444.141      7138.5374      7304.2058      8074.1497     -723.39731      2046.4264      1220.9234    
  15812000   258.38304     -413.00832     -326.47247     -413.00832      0              8421.217       30.944         21.33497       32.484529      21445.939      7193.6558      8567.3016      9502.6938      1222.4788     -1930.5702     -922.79395    
  15814000   257.09703     -414.67302     -328.56788     -414.67302      0              7097.4756      30.944         21.33497       32.51905       21468.729      6211.3709      5389.7193      9691.3365      7.8237831     -39.869842      485.49937    
  15816000   253.39284     -412.2408      -327.37624     -412.2408       0              8287.0083      30.944         21.33497       32.538745      21481.732      8329.1359      7102.0333      9429.8556     -271.33719      1101.5098     -979.19305    
  15818000   258.01744     -411.01048     -324.59708     -411.01048      0              5535.4793      30.944         21.33497       32.656873      21559.719      5488.9552      4705.8692      6411.6134      473.86161      1540.0574     -981.99548    
  15820000   251.37275     -415.50744     -331.31943     -415.50744      0              4660.333       30.944         21.33497       32.52862       21475.047      4199.4423      4639.6421      5141.9145      387.53895      354.88114     -200.87448    
  15822000   258.74389     -413.26174     -326.60503     -413.26174      0              9111.5912      30.944         21.33497       32.487026      21447.587      8746.2705      8919.0697      9669.4333      47.845371     -1163.7884      1578.3185    
  15824000   253.06289     -412.76008     -328.00602     -412.76008      0              5838.2865      30.944         21.33497       32.49782       21454.714      6328.4687      4790.5633      6395.8274      91.952292      1223.3149     -1352.5468    
  15826000   259.81303     -412.96045     -325.94568     -412.96045      0              6318.1553      30.944         21.33497       32.517615      21467.782      6863.577       6736.9486      5353.9404     -71.026783     -42.080544      466.78299    
  15828000   251.3632      -411.30317     -327.11836     -411.30317      0              6114.1115      30.944         21.33497       32.397215      21388.295      6373.6615      5893.678       6074.9949      613.08265      1713.4791      613.73448    
  15830000   253.65202     -412.48922     -327.53785     -412.48922      0              7641.1186      30.944         21.33497       32.375808      21374.162      6670.6554      7143.0324      9109.6681      598.17289      2062.1567      912.37402    
  15832000   258.21085     -414.52577     -328.04759     -414.52577      0              4026.3897      30.944         21.33497       32.561063      21496.466      1782.2554      4687.3606      5609.553      -1351.7597      1455.9155     -835.51202    
  15834000   248.19786     -411.95366     -328.82896     -411.95366      0              5750.816       30.944         21.33497       32.539927      21482.512      4069.3944      3865.576       9317.4776     -2468.8371      915.17026      2640.2981    
  15836000   256.80161     -411.3232      -325.31699     -411.3232       0              5649.616       30.944         21.33497       32.528361      21474.876      5975.4154      4268.2076      6705.225      -2549.8086      534.14285      1423.6931    
  15838000   250.33412     -411.56085     -327.72069     -411.56085      0              6139.2335      30.944         21.33497       32.588341      21514.475      6859.3883      4783.5867      6774.7255     -255.94961     -556.73643      1067.013     
  15840000   251.03531     -412.10593     -328.03093     -412.10593      0              5380.6347      30.944         21.33497       32.834521      21677          6458.8222      5757.058       3926.0238     -2419.9707      591.63018     -1600.9408    
  15842000   250.29055     -413.84441     -330.01884     -413.84441      0              5108.395       30.944         21.33497       32.811966      21662.109      5832.9268      3934.9444      5557.3137      685.17231     -718.02614     -685.37394    
  15844000   256.11401     -410.16975     -324.39383     -410.16975      0              4569.3331      30.944         21.33497       32.797896      21652.82       6016.7548      3575.414       4115.8304     -485.98427      257.36869     -550.13315    
  15846000   258.76725     -412.60832     -325.9438      -412.60832      0              6535.536       30.944         21.33497       32.746673      21619.004      7677.0505      5448.5435      6481.0139     -1289.3472      178.35638     -44.143313    
  15848000   257.16415     -412.20562     -326.07799     -412.20562      0              5644.1         30.944         21.33497       32.781942      21642.288      6164.6968      5590.7176      5176.8857     -389.55976     -1065.2466     -1749.4239    
  15850000   256.06622     -412.11017     -326.35026     -412.11017      0              6201.1592      30.944         21.33497       32.696747      21586.043      6218.888       6158.4676      6226.122      -480.20895     -1713.1684      914.06286    
  15852000   256.12425     -410.16361     -324.38426     -410.16361      0              8329.7264      30.944         21.33497       32.361524      21364.732      5758.8979      10710.999      8519.2823     -518.70633     -1966.62       -2844.121     
  15854000   254.63826     -409.44221     -324.16053     -409.32977      0              8100.2052      30.944         21.33497       32.575668      21506.108      8930.6697      6864.5303      8505.4156      1282.3809     -266.9736       584.04201    
  15856000   251.57781     -416.13199     -331.8753      -416.07703      0              6340.48        30.944         21.33497       32.683042      21576.995      7121.7976      5196.5796      6703.0628      134.15625     -1275.2734     -708.28936    
  15858000   243.4504      -411.8421      -330.30739     -411.84261      0              4040.0311      30.944         21.33497       32.779777      21640.858      2203.1218      2617.2016      7299.7699      343.69318     -449.42485      383.77216    
  15860000   255.46239     -411.75281     -326.19512     -411.72825      0              5049.5155      30.944         21.33497       32.623375      21537.604      4421.9089      4109.9257      6616.7119      508.78064     -1666.4407     -249.14283    
  15862000   255.26839     -411.93714     -326.44443     -411.939        0              7728.2281      30.944         21.33497       32.40872       21395.89       6269.5444      8290.025       8625.1147     -654.43885      1838.1891     -690.7117     
  15864000   263.36492     -414.33297     -326.12863     -414.32717      0              6010.5478      30.944         21.33497       32.747233      21619.373      7748.3145      5994.5137      4288.8152     -1388.0504      1810.3746     -275.29522    
  15866000   260.51362     -412.88878     -325.63938     -412.90158      0              6333.1003      30.944         21.33497       32.708016      21593.483      6065.2484      5356.4552      7577.5974     -708.6373       108.42047     -209.04915    
  15868000   242.76736     -413.41319     -332.10724     -413.4207       0              5394.1849      30.944         21.33497       32.707731      21593.294      5534.4685      7044.7507      3603.3355     -28.433292      41.858823     -2210.3222    
  15870000   254.19307     -408.01949     -322.88691     -408.00061      0              6662.9767      30.944         21.33497       32.571581      21503.409      5546.3871      7911.3917      6531.1513     -228.21723     -1295.2136     -991.5607     
  15872000   251.87528     -411.29568     -326.93936     -411.2974       0              6792.3261      30.944         21.33497       32.701         21588.851      7936.4386      6011.015       6429.5248     -989.13806     -427.94019     -1734.887     
  15874000   257.11702     -413.26976     -327.15791     -413.28729      0              5343.5074      30.944         21.33497       32.69581       21585.424      4708.0394      5226.6823      6095.8004     -940.17093      435.5093      -132.27266    
  15876000   254.88576     -411.32702     -325.96246     -411.34486      0              6622.9344      30.944         21.33497       32.858051      21692.534      6980.3399      7319.2872      5569.176      -895.75604     -663.36432     -872.69129    
  15878000   254.51369     -411.45801     -326.21806     -411.46692      0              6715.2658      30.944         21.33497       32.476935      21440.925      8659.0319      4871.2113      6615.5542      250.9018       477.96712      1400.531     
  15880000   254.66202     -410.75819     -325.46856     -410.78083      0              5188.4374      30.944         21.33497       32.526471      21473.628      6667.4255      5600.5972      3297.2895      1259.9578     -1939.0961      1063.8757    
  15882000   258.49406     -412.05767     -325.48464     -412.01278      0              6593.7287      30.944         21.33497       32.370031      21370.348      6969.6224      4626.8429      8184.7209     -2490.4507      839.20869     -1083.4305    
  15884000   258.24584     -409.96222     -323.47232     -409.94511      0              5367.9439      30.944         21.33497       32.629625      21541.73       6390.1519      4729.952       4983.7277     -1646.1404     -1367.6937     -594.07273    
  15886000   257.90046     -412.77472     -326.40049     -412.7599       0              4195.3632      30.944         21.33497       32.720569      21601.77       4936.7727      3915.3148      3734.0021      910.04307      1115.0721     -518.30611    
  15888000   253.62301     -413.99346     -329.05181     -413.96314      0              4251.7313      30.944         21.33497       32.535377      21479.508      3772.6726      4160.3296      4822.1917     -1398.7322      799.86424     -489.26126    
  15890000   250.12601     -412.34244     -328.57198     -412.36411      0              5919.6183      30.944         21.33497       32.566739      21500.213      5618.9823      4804.9165      7334.9561     -1241.3195     -17.551968      1177.9774    
  15892000   248.29356     -410.82046     -327.66371     -410.82173      0              5418.6459      30.944         21.33497       32.551839      21490.376      6229.1886      3485.8651      6540.884      -787.60152     -94.788107      1977.0145    
  15894000   260.55925     -412.22465     -324.95996     -412.16369      0              5184.6025      30.944         21.33497       32.258497      21296.715      5997.3402      4552.7579      5003.7094     -1455.9386     -511.55181     -636.62863    
  15896000   257.82432     -409.68443     -323.33571     -409.70515      0              6498.4235      30.944         21.33497       32.508077      21461.485      5723.6113      7549.8914      6221.7678      381.39206     -2497.4561     -839.02985    
  15898000   258.38153     -408.58655     -322.05121     -408.60144      0              4010.8371      30.944         21.33497       32.489433      21449.176      3741.4368      5341.4529      2949.6215     -691.21463      1293.525      -1033.1401    
  15900000   254.56807     -409.88897     -324.6308      -409.91883      0              6396.508       30.944         21.33497       32.270752      21304.806      4116.596       5581.8828      9491.0452     -720.78369     -177.90435     -491.48251    
  15902000   252.27376     -412.39426     -327.90449     -412.34419      0              5231.2064      30.944         21.33497       32.357938      21362.365      4322.3317      5237.343       6133.9446      1775.2529     -1185.6609     -197.131      
  15904000   260.72324     -410.80527     -323.48566     -410.77876      0              4054.3506      30.944         21.33497       32.406991      21394.749      3535.9177      2883.2316      5743.9024      22.258375     -1987.981       1149.1831    
  15906000   250.10492     -411.39377     -327.63037     -411.37746      0              6837.1996      30.944         21.33497       32.370626      21370.741      5944.0846      6688.216       7879.2982      1129.7442     -1608.0856     -562.04469    
  15908000   255.65658     -412.03901     -326.41629     -412.039        0              5257.204       30.944         21.33497       32.407262      21394.928      5370.988       5270.515       5130.1089      1465.9858     -157.45788      352.52773    
  15910000   256.82569     -413.54288     -327.52861     -413.56356      0              4743.4539      30.944         21.33497       32.535142      21479.353      3948.2025      4099.1824      6182.9766      840.81663      333.14914      261.8586     
  15912000   251.66336     -413.82455     -329.53921     -413.85461      0              5716.685       30.944         21.33497       32.462726      21431.545      7060.4808      5242.0359      4847.5382     -264.68467      1095.1263      308.21123    
  15914000   247.96696     -411.30865     -328.26128     -411.32249      0              4928.6894      30.944         21.33497       32.336614      21348.287      3391.8618      6157.994       5236.2124      1845.0439     -326.95054      528.72526    
  15916000   259.22057     -409.64893     -322.83258     -409.68445      0              6502.8247      30.944         21.33497       32.424234      21406.133      4879.1869      7830.4874      6798.7997      284.36103     -742.71032      428.97372    
  15918000   251.19523     -411.75711     -327.62855     -411.77994      0              6201.5675      30.944         21.33497       32.53204       21477.305      8110.1758      5872.1344      4622.3923      1164.255      -2429.4096     -111.65567    
  15920000   263.05068     -412.74718     -324.64807     -412.71566      0              6504.3         30.944         21.33497       32.429281      21409.464      4814.9211      6159.0744      8538.9044     -308.92937      898.60056      1032.1849    
  15922000   251.5245      -415.05819     -330.81936     -414.99703      0              5955.9477      30.944         21.33497       32.528184      21474.759      5051.6617      6429.757       6386.4243     -1046.8397      488.84118      513.84072    
  15924000   250.35929     -413.53476     -329.68616     -413.45343      0              5864.8611      30.944         21.33497       32.445096      21419.906      6767.3096      5783.056       5044.2177     -1522.985       1243.2499     -2447.2734    
  15926000   251.58198     -409.86976     -325.61168     -409.83086      0              6953.5255      30.944         21.33497       32.413705      21399.182      6062.4995      9259.8825      5538.1946      852.8757       330.87709     -1267.2217    
  15928000   261.69772     -412.72598     -325.08001     -412.72165      0              6963.0062      30.944         21.33497       32.465975      21433.69       7597.3551      7857.8571      5433.8063      341.96328      275.67274      443.59318    
  15930000   256.30409     -412.49349     -326.65391     -412.53026      0              6094.8759      30.944         21.33497       32.434777      21413.093      5449.4052      6352.1176      6483.105       387.29376     -155.69408     -2291.2247    
  15932000   260.31088     -412.80514     -325.62363     -412.79425      0              6494.178       30.944         21.33497       32.35712       21361.825      5801.648       7560.5658      6120.3202     -419.25455     -2899.7243      721.59379    
  15934000   260.57082     -414.63137     -327.36281     -414.60106      0              6126.8177      30.944         21.33497       32.517676      21467.822      5402.1491      7602.8889      5375.4152      209.18387      460.50694     -858.63576    
  15936000   256.45113     -413.12768     -327.23885     -412.97314      0              3987.2114      30.944         21.33497       32.47523       21439.799      3117.088       4843.164       4001.3823      1518.083      -606.41874     -1471.9464    
  15938000   256.81255     -413.19657     -327.1867      -413.19247      0              6504.7214      30.944         21.33497       32.589563      21515.281      7535.4129      7045.8791      4932.8721     -1121.2127     -1763.5053     -486.24113    
  15940000   249.95654     -413.93391     -330.2202      -413.94068      0              5295.8002      30.944         21.33497       32.679495      21574.654      6393.314       5996.6763      3497.4102     -834.34333     -1472.8411      192.4643     
  15942000   262.35376     -414.36633     -326.50064     -414.28497      0              5847.5609      30.944         21.33497       32.336471      21348.193      7387.0703      4980.9796      5174.6326     -924.12843      470.29344     -121.6478     
  15944000   258.36085     -411.02614     -324.49772     -410.95294      0              5229.4333      30.944         21.33497       32.342209      21351.981      5551.297       4500.0697      5636.9333     -424.56906     -32.135779     -748.77439    
  15946000   253.26343     -414.12734     -329.30612     -414.13159      0              6770.9047      30.944         21.33497       32.274843      21307.507      7724.4067      6699.306       5889.0014     -1627.6787     -1173.9752      475.02555    
  15948000   260.9748      -409.99191     -322.58805     -409.98758      0              7581.9023      30.944         21.33497       32.414925      21399.987      7460.0252      7312.9686      7972.7132      795.97565     -956.74008     -1954.3634    
  15950000   253.47973     -413.87813     -328.98446     -413.83038      0              6578.6768      30.944         21.33497       32.350005      21357.128      5986.5004      6343.5206      7406.0094      170.16082      74.023752      760.98328    
  15952000   246.77446     -412.03705     -329.38906     -411.96614      0              5888.7239      30.944         21.33497       32.502747      21457.966      4125.0473      5817.1959      7723.9286      660.77776      1667.3543     -230.20344    
  15954000   253.13166     -411.82648     -327.04939     -411.77659      0              6541.2116      30.944         21.33497       32.353192      21359.232      5822.7876      7630.2968      6170.5503      288.70937      748.5499      -918.31647    
  15956000   250.17095     -412.15078     -328.36527     -412.09014      0              4316.5046      30.944         21.33497       32.464266      21432.562      2068.9553      4422.2838      6458.2747      125.29935      175.19367      896.84482    
  15958000   254.25404     -412.43372     -327.28072     -412.46413      0              4907.045       30.944         21.33497       32.579265      21508.483      3546.1801      6033.7396      5141.2152      1224.7746      80.363464     -655.93443    
  15960000   260.54338     -412.78325     -325.52388     -412.74316      0              6110.1554      30.944         21.33497       32.462134      21431.154      5900.9229      5775.322       6654.2212      1929.6334     -239.01794      509.29037    
  15962000   259.6454      -414.30459     -327.34596     -414.18921      0              3425.3733      30.944         21.33497       32.490645      21449.977      4695.4526      2947.0941      2633.5733     -1464.1417      464.1223      -516.47812    
  15964000   261.56626     -412.56363     -324.96168     -412.57535      0              7617.511       30.944         21.33497       32.554861      21492.371      7844.4996      6666.1786      8341.8549     -177.88373      272.36788      756.18719    
  15966000   243.75409     -409.33056     -327.69414     -409.34312      0              7631.1015      30.944         21.33497       32.523709      21471.805      7265.4755      7741.7037      7886.1253      972.42925      765.4406      -29.979696    
  15968000   254.68954     -414.18191     -328.88307     -414.10008      0              5502.7069      30.944         21.33497       32.451363      21424.043      5803.2169      4762.7002      5942.2036      1230.0238      1470.6212      1415.7136    
  15970000   258.11022     -415.64428     -329.1998      -415.49615      0              4729.8815      30.944         21.33497       32.559001      21495.105      5506.5814      5050.0074      3633.0558      237.04853      567.39774     -342.63152    
  15972000   262.53507     -413.51772     -325.5913      -413.49592      0              5561.8094      30.944         21.33497       32.496164      21453.62       6268.7481      5327.2432      5089.4369     -482.6071       201.46301     -486.03003    
  15974000   254.70286     -415.76409     -330.46078     -415.66177      0              3010.5013      30.944         21.33497       32.566002      21499.727      3263.8538      3457.8863      2309.7637      156.77462      1725.0339      246.68383    
  15976000   255.94138     -413.2956      -327.5775      -413.28587      0              6790.5691      30.944         21.33497       32.590446      21515.864      4858.798       8951.6501      6561.2592     -954.18563      633.14492      1389.1764    
  15978000   259.2472      -412.70934     -325.88407     -412.69452      0              5948.3675      30.944         21.33497       32.396422      21387.772      5422.0721      7717.8929      4705.1375      324.03535      1221.8829      718.61772    
  15980000   247.91922     -412.17711     -329.14573     -412.17984      0              8939.3387      30.944         21.33497       32.462305      21431.267      10312.491      9824.9664      6680.5591      892.84336      2228.5147     -651.91218    
  15982000   253.78852     -414.80957     -329.81248     -414.22947      0              3063.9974      30.944         21.33497       32.478023      21441.643      2028.9814      2287.9284      4875.0825      266.57742     -475.77574      1284.7708    
  15984000   253.96747     -415.03474     -329.97772     -414.49898      0              4551.6139      30.944         21.33497       32.380684      21377.381      4302.0644      3401.8308      5950.9466      529.94866      950.68326      938.79569    
  15986000   258.72182     -413.86981     -327.2205      -413.26675      0              2736.9616      30.944         21.33497       32.468508      21435.362      2651.1506      3744.7053      1815.0288      315.84379     -1108.7285     -1186.295     
  15988000   248.57581     -415.43669     -332.18541     -414.80509      0              7393.8113      30.944         21.33497       32.148485      21224.086      4913.859       8122.3044      9145.2705      705.96383      802.90968     -349.12524    
  15990000   260.25365     -415.13648     -327.97415     -414.5206       0              5289.9335      30.944         21.33497       32.124386      21208.176      5188.1816      3242.5085      7439.1104      247.62261      1554.2286      1705.9831    
  15992000   258.83675     -414.10402     -327.41621     -413.48341      0              6688.9402      30.944         21.33497       32.206443      21262.35       6689.371       6200.5274      7176.9224     -210.54557     -722.37223      732.07076    
  15994000   248.21606     -412.14011     -329.00932     -411.51072      0              8234.0285      30.944         21.33497       32.215797      21268.525      7018.0654      8262.0489      9421.9712      592.74424      1316.9738     -452.81733    
  15996000   250.42034     -413.77152     -329.90248     -413.15493      0              7475.116       30.944         21.33497       32.248436      21290.073      6823.9153      7682.7466      7918.6862     -2.7475207      2129.7415     -1386.0242    
  15998000   257.21582     -415.90424     -329.75931     -415.39225      0              4438.4672      30.944         21.33497       32.229268      21277.418      4256.3549      5453.8305      3605.2161     -764.95242      931.22965     -346.44595    
  16000000   250.45637     -413.68088     -329.79977     -413.08822      0              6159.1376      30.944         21.33497       32.042874      21154.363      5255.6428      5900.8899      7320.8802      146.39882     -414.11015     -295.45251    
  16002000   259.31967     -419.28163     -332.43209     -418.67736      0              5677.3118      30.944         21.33497       32.089348      21185.044      5169.8304      5879.83        5982.2749     -975.68975      249.05379     -1759.2529    
  16004000   254.76936     -414.07656     -328.75098     -413.43576      0              6986.7224      30.944         21.33497       32.183736      21247.359      7695.1752      7244.6236      6020.3683      63.536015      1705.4581     -149.06823    
  16006000   247.33196     -415.28461     -332.44992     -414.65524      0              4804.1884      30.944         21.33497       32.291972      21318.815      3181.4248      5236.3962      5994.7443     -591.01286      912.98304     -922.38855    
  16008000   260.08067     -415.36105     -328.25664     -414.77442      0              6346.6733      30.944         21.33497       32.176166      21242.361      7269.0985      5538.1162      6232.8052      265.97139      1425.7653     -315.05836    
  16010000   253.58711     -413.3556      -328.42597     -412.74482      0              8484.0417      30.944         21.33497       32.132024      21213.219      7606.0761      8004.9313      9841.1176     -1201.0136     -404.32768     -40.180872    
  16012000   252.65597     -411.77134     -327.15356     -411.23756      0              6926.4111      30.944         21.33497       32.065097      21169.034      5450.3993      8352.6065      6976.2273     -122.73843      378.31426     -1943.5461    
  16014000   253.40872     -413.46286     -328.59297     -412.87526      0              4851.8917      30.944         21.33497       32.25656       21295.436      5226.0827      3999.1118      5330.4806     -2085.1901     -1203.4035     -1025.6176    
  16016000   253.30272     -413.56579     -328.73141     -412.99815      0              5471.5767      30.944         21.33497       32.350814      21357.662      5876.3034      2898.2572      7640.1695      264.33953      1117.1526      815.78715    
  16018000   261.22453     -414.17108     -326.68358     -413.532        0              6674.2558      30.944         21.33497       32.294905      21320.751      6937.1853      6127.7285      6957.8536     -731.85857     -1499.111      -1575.7172    
  16020000   254.44751     -414.93024     -329.71245     -414.33018      0              6233.7366      30.944         21.33497       32.290489      21317.836      6810.1599      5774.1854      6116.8646      118.58488      941.74944      14.782911    
  16022000   253.82202     -413.41163     -328.40333     -412.78471      0              4373.709       30.944         21.33497       32.378744      21376.101      2807.866       6047.9597      4265.3011      952.40708      1662.6983     -777.9261     
  16024000   251.12367     -415.9774      -331.87281     -415.37566      0              6044.4725      30.944         21.33497       32.324875      21340.537      6061.2829      7365.0594      4707.0753     -563.20167      1516.3095     -1101.2481    
  16026000   244.75333     -416.21409     -334.24301     -415.6519       0              7339.0008      30.944         21.33497       32.178273      21243.752      6701.1097      8989.0088      6326.884       164.43417      602.09539     -795.06318    
  16028000   253.31644     -413.17776     -328.33879     -412.62438      0              5256.8925      30.944         21.33497       32.345507      21354.158      4097.5918      6127.7834      5545.3024      503.6982      -755.12313     -169.01645    
  16030000   253.15815     -416.26735     -331.48138     -415.65192      0              5094.717       30.944         21.33497       32.354006      21359.769      4859.2571      6489.8126      3935.0813      596.90054      541.40959      1875.8345    
  16032000   257.39581     -414.44357     -328.23836     -413.93101      0              3832.8471      30.944         21.33497       32.53686       21480.487      3749.997       5150.0695      2598.4748      1944.342       309.15438     -749.80517    
  16034000   250.52402     -412.63606     -328.7323      -412.05196      0              6294.8505      30.944         21.33497       32.483528      21445.278      6455.0566      5823.3383      6606.1565     -444.67327      309.10505     -1495.8882    
  16036000   257.21948     -412.71617     -326.57002     -412.14995      0              5492.3687      30.944         21.33497       32.642798      21550.426      8255.2083      5511.6664      2710.2312      870.05824     -1572.6274     -575.10753    
  16038000   256.34203     -418.6984      -332.84611     -418.11944      0              5034.3655      30.944         21.33497       32.549143      21488.596      5657.8         5223.7088      4221.5876     -178.90966      833.48924      582.44463    
  16040000   252.7467      -415.17192     -330.52375     -414.60289      0              6367.3499      30.944         21.33497       32.681019      21575.659      6238.5331      6858.3869      6005.1298      228.85812      1092.2594     -1809.6036    
  16042000   254.13457     -417.92851     -332.81553     -417.30862      0              3503.6935      30.944         21.33497       32.569579      21502.088      1082.1855      5991.8391      3437.0561      807.8927       507.41383     -553.70246    
  16044000   251.2725      -414.41932     -330.26488     -413.89037      0              5852.2359      30.944         21.33497       32.565157      21499.169      5177.0825      5972.9408      6406.6845     -837.71517      1643.9191     -150.22452    
  16046000   256.94086     -415.2068      -329.15396     -414.59454      0              5907.4301      30.944         21.33497       32.596584      21519.916      4378.3432      7494.0449      5849.9021      1011.963       439.08921      467.0083     
  16048000   251.97405     -414.24793     -329.85853     -413.66726      0              7945.7742      30.944         21.33497       32.361632      21364.804      9122.9338      7359.2881      7355.1006      198.02425      196.64383     -95.196411    
  16050000   246.7592      -415.31096     -332.66809     -414.68081      0              8348.2795      30.944         21.33497       32.442688      21418.316      8610.9139      8784.3629      7649.5616      890.55689      49.23732      -1430.6108    
  16052000   247.86609     -419.22417     -336.21059     -418.58991      0              7709.3935      30.944         21.33497       32.597196      21520.32       9029.7171      7962.8489      6135.6144      632.25013     -150.86392     -1558.447     
  16054000   253.98304     -414.35123     -329.289       -413.7525       0              6595.7766      30.944         21.33497       32.474383      21439.241      6773.9483      6996.9846      6016.3969     -1663.6064     -1834.6791     -638.0794     
  16056000   255.2551      -415.59091     -330.10265     -414.95063      0              7955.507       30.944         21.33497       32.415536      21400.391      6667.7088      8154.963       9043.8491     -1010.6383      1059.8275      66.916456    
  16058000   253.76727     -415.27218     -330.28222     -414.67625      0              6382.5982      30.944         21.33497       32.540882      21483.143      7170.357       7332.9095      4644.5282     -560.54176      1214.2825     -572.52116    
  16060000   256.31163     -415.51261     -329.6705      -414.88352      0              5349.4275      30.944         21.33497       32.520762      21469.859      4843.066       6671.0439      4534.1727     -840.26232      995.68059     -814.75854    
  16062000   257.76073     -413.20105     -326.87362     -412.59459      0              3664.0058      30.944         21.33497       32.774028      21637.063      4874.7388      3080.9167      3036.3619     -419.66336     -1441.3965     -725.93679    
  16064000   257.28023     -412.45914     -326.29263     -411.89769      0              5789.8735      30.944         21.33497       32.605663      21525.91       6759.4718      4004.6633      6605.4854     -1054.7799     -55.00033       430.44547    
  16066000   248.21895     -417.19703     -334.06526     -416.64603      0              6428.8374      30.944         21.33497       32.720755      21601.893      7711.6247      6983.0212      4591.8664      545.57422     -677.86955     -312.84647    
  16068000   248.2747      -415.29178     -332.14135     -414.74531      0              6933.8946      30.944         21.33497       32.593545      21517.91       7349.8699      6729.3739      6722.4399     -78.372776     -525.27018     -349.27437    
  16070000   254.83835     -414.90722     -329.55853     -414.29276      0              6513.6602      30.944         21.33497       32.683099      21577.033      6641.442       7329.8983      5569.6404      1389.227      -480.74441      1508.1323    
  16072000   258.04266     -413.56201     -327.14016     -412.99298      0              6156.4033      30.944         21.33497       32.514466      21465.703      6456.1244      5968.7698      6044.3157      1061.6584      277.60295     -721.13168    
  16074000   252.55588     -412.64559     -328.06134     -412.02813      0              6218.0295      30.944         21.33497       32.410043      21396.764      6326.8026      6418.6278      5908.6581      506.3048      -1040.4268     -395.90386    
  16076000   260.61404     -413.80701     -326.52397     -413.17727      0              5982.5504      30.944         21.33497       32.574797      21505.533      7830.8828      6340.7998      3775.9685      57.286161     -305.20558      56.507793    
  16078000   250.80622     -411.93464     -327.93636     -411.40059      0              4628.4977      30.944         21.33497       32.675032      21571.707      5842.3939      4452.8185      3590.2807      1284.2346     -967.22202     -750.76229    
  16080000   251.79904     -415.50259     -331.17181     -414.91186      0              7120.3472      30.944         21.33497       32.44032       21416.753      6454.436       8907.0483      5999.5574      887.69989     -964.84699     -453.6395     
  16082000   258.36276     -416.29199     -329.76293     -415.71152      0              6629.3639      30.944         21.33497       32.478908      21442.228      6228.5842      7727.4338      5932.0737      566.89336     -56.176542      321.66677    
  16084000   255.92129     -416.66007     -330.94869     -416.0492       0              8049.2874      30.944         21.33497       32.417473      21401.669      10764.427      6732.7538      6650.6811      1354.4507      114.0689       347.96774    
  16086000   252.27257     -414.11353     -329.62415     -413.55629      0              6197.1296      30.944         21.33497       32.455341      21426.669      5685.466       6934.1308      5971.7921      382.52016      602.39997      89.278162    
  16088000   249.31479     -416.33067     -332.83189     -415.79497      0              5984.4975      30.944         21.33497       32.685131      21578.374      5400.2106      5664.3039      6888.9779      473.08031      1050.2615      941.44631    
  16090000   252.12789     -416.25852     -331.8176      -415.67162      0              5924.0343      30.944         21.33497       32.632641      21543.721      6634.8587      5596.5629      5540.6812      296.8155      -290.20425     -1114.7739    
  16092000   258.74586     -413.69891     -327.04155     -413.18977      0              4410.4222      30.944         21.33497       32.636221      21546.084      2601.7998      5464.9529      5164.5138      557.71124      101.1485       560.64972    
  16094000   249.81675     -417.01085     -333.34397     -416.3991       0              7414.8266      30.944         21.33497       32.509362      21462.333      7964.0369      6951.7857      7328.6572      594.36464      102.84605     -306.23709    
  16096000   257.07572     -415.17956     -329.08155     -414.65371      0              5489.3802      30.944         21.33497       32.520923      21469.966      5848.8072      4249.2482      6370.0852      1459.2177     -668.67343      1388.488     
  16098000   252.51499     -416.02024     -331.44967     -415.41307      0              5672.7343      30.944         21.33497       32.584282      21511.795      6380.5502      4691.5724      5946.0804      661.97844     -1238.9565     -961.77331    
  16100000   255.19743     -414.44445     -328.9755      -413.85969      0              6644.6378      30.944         21.33497       32.615125      21532.157      7571.2796      6902.673       5459.9606     -2080.6485      899.69593      841.37577    
  16102000   250.5883      -416.41923     -332.49394     -415.81157      0              4334.9436      30.944         21.33497       32.516068      21466.761      4548.6351      3843.7958      4612.3998      311.58527      1269.3308     -9.2048117    
  16104000   248.27243     -416.39293     -333.24326     -415.81512      0              8061.7065      30.944         21.33497       32.474105      21439.057      8756.0107      6987.2566      8441.8522     -1446.1375      941.78228     -205.03377    
  16106000   249.37269     -414.99323     -331.47507     -414.42725      0              6824.6051      30.944         21.33497       32.507264      21460.948      4599.0315      6315.1685      9559.6154      177.33511     -187.13887      1356.4477    
  16108000   256.98176     -413.27783     -327.21129     -412.70095      0              4929.601       30.944         21.33497       32.516616      21467.122      4396.377       4304.2962      6088.13       -4.934114       912.32399     -634.39706    
  16110000   251.26656     -416.98202     -332.82958     -416.39518      0              4417.5832      30.944         21.33497       32.577336      21507.209      4434.7865      2890.6722      5927.291      -230.41178      1550.2138      1848.9993    
  16112000   246.75947     -413.33646     -330.6935      -412.78191      0              7119.2872      30.944         21.33497       32.334896      21347.153      7387.8001      5376.6358      8593.4257     -23.442509      922.36119     -115.00222    
  16114000   256.52016     -414.73725     -328.82531     -414.15116      0              6369.013       30.944         21.33497       32.441595      21417.594      7872.9095      6422.4645      4811.665       1053.6836      2053.1513     -931.29217    
  16116000   254.55656     -414.19748     -328.94317     -413.61664      0              3663.3569      30.944         21.33497       32.63068       21542.426      4510.9509      1986.9083      4492.2114     -1680.0234     -482.25574      52.770855    
  16118000   254.7678      -415.14675     -329.82169     -414.58702      0              6006.2336      30.944         21.33497       32.63468       21545.067      4943.715       5830.2265      7244.7592      882.82849     -1418.5855      674.64524    
  16120000   258.79725     -412.22991     -325.55534     -411.71282      0              5415.4691      30.944         21.33497       32.565319      21499.275      6083.4906      5444.6365      4718.2802      824.82931     -641.27405      629.15784    
  16122000   263.66132     -417.03427     -328.73065     -416.436        0              5851.4338      30.944         21.33497       32.456338      21427.327      5025.6523      6419.1318      6109.5174     -262.03302     -826.07396      884.33476    
  16124000   260.85101     -415.61656     -328.25416     -415.0316       0              6498.9202      30.944         21.33497       32.561102      21496.491      5894.5729      7368.6349      6233.5526      2076.45        1119.1359     -828.90689    
  16126000   255.61947     -416.81479     -331.2045      -416.28005      0              6515.3837      30.944         21.33497       32.776879      21638.945      8107.3913      5587.3073      5851.4524      1781.1503     -306.14311      1347.74      
  16128000   256.59255     -416.52876     -330.59257     -415.98547      0              6201.0703      30.944         21.33497       32.636819      21546.479      5792.759       6927.3335      5883.1183      712.66161      165.50155     -448.4208     
  16130000   255.17823     -415.77567     -330.31316     -415.2675       0              5580.2724      30.944         21.33497       32.48364       21445.352      6239.3923      5500.8025      5000.6225     -1463.7462     -124.64583     -1147.1623    
  16132000   247.87313     -414.92967     -331.91373     -414.3691       0              5167.9001      30.944         21.33497       32.500515      21456.493      6027.4137      5233.2177      4243.0689     -548.42694     -1208.0911     -228.86683    
  16134000   257.61613     -418.98411     -332.70511     -418.4326       0              6401.866       30.944         21.33497       32.547486      21487.502      4858.6838      6339.4828      8007.4316     -1309.8354      1069.2994      1091.1107    
  16136000   256.95186     -416.59775     -330.54122     -416.05054      0              8084.0039      30.944         21.33497       32.45923       21429.237      8545.2136      6531.0887      9175.7095      380.60453      2191.3629      722.81441    
  16138000   254.46253     -412.8612      -327.63838     -412.34979      0              6094.4397      30.944         21.33497       32.357837      21362.298      7769.3576      5643.6724      4870.2891     -456.57843      1740.8436      454.19939    
  16140000   251.13052     -415.236       -331.12912     -414.73632      0              6217.4451      30.944         21.33497       32.437011      21414.568      7914.9256      5471.9901      5265.4197     -497.34713     -141.8672      -628.10997    
  16142000   252.71134     -414.70581     -330.06948     -414.17019      0              7060.8092      30.944         21.33497       32.428354      21408.852      7123.9594      7027.718       7030.7503      813.05169     -409.46445      556.64501    
  16144000   263.1236      -414.7553      -326.63178     -414.20503      0              7731.0516      30.944         21.33497       32.307133      21328.824      7121.1515      5308.2327      10763.771     -1280.4091      269.37047      2373.2089    
  16146000   251.20841     -416.14743     -332.01446     -415.64474      0              7341.409       30.944         21.33497       32.478734      21442.113      7944.7058      7399.0941      6680.4271     -514.61874     -1073.0328      582.50469    
  16148000   255.44178     -415.95224     -330.40146     -415.43459      0              4374.5185      30.944         21.33497       32.433372      21412.166      2918.5002      5058.8358      5146.2197      1069.6233     -737.48665     -1052.4089    
  16150000   248.31572     -416.59712     -333.43295     -416.08747      0              6763.5577      30.944         21.33497       32.405578      21393.816      6870.2625      6247.8355      7172.5751      243.98189      86.107553      1168.7634    
  16152000   261.72449     -416.02915     -328.37421     -415.49993      0              5573.4074      30.944         21.33497       32.500787      21456.672      4640.4276      6517.1821      5562.6124      1216.318       157.35542      1427.1706    
  16154000   258.49337     -414.62671     -328.05391     -414.13661      0              6298.0535      30.944         21.33497       32.62016       21535.481      6268.4791      7314.2565      5311.4249     -467.88622      1248.6098      408.732      
  16156000   254.14901     -415.9939      -330.87608     -415.50105      0              7945.5947      30.944         21.33497       32.508344      21461.661      7536.5637      8211.5053      8088.7152      1265.2477      506.05328      1154.678     
  16158000   250.5971      -414.4183      -330.49006     -413.94479      0              6803.316       30.944         21.33497       32.532836      21477.83       7333.5945      6507.3494      6569.0041     -912.15874     -738.07536      349.49815    
  16160000   254.74998     -417.76068     -332.4416      -417.26668      0              6130.3158      30.944         21.33497       32.485789      21446.771      6618.6515      8603.5181      3168.7777      2272.2768      1530.6558     -985.15383    
  16162000   260.52851     -415.36956     -328.11516     -414.84283      0              4964.9272      30.944         21.33497       32.411093      21397.457      4576.0293      5741.029       4577.7231      1332.6715     -46.527359     -188.97177    
  16164000   251.79575     -415.76301     -331.43333     -415.30579      0              4972.7804      30.944         21.33497       32.435341      21413.466      5004.81        6489.3877      3424.1434      2143.4675     -650.37075      939.63561    
  16166000   255.86022     -415.94755     -330.25663     -415.42746      0              6052.0605      30.944         21.33497       32.398838      21389.367      5153.1373      7261.5797      5741.4645      275.58019     -1445.8966      82.846006    
  16168000   248.93212     -415.73515     -332.36454     -415.26537      0              7245.624       30.944         21.33497       32.432243      21411.42       7112.3149      8095.7307      6528.8266     -992.29983     -852.63417      555.09358    
  16170000   261.98336     -416.35857     -328.61693     -415.91382      0              5184.7008      30.944         21.33497       32.440773      21417.052      7026.9253      4801.9045      3725.2726     -1882.8275     -576.63594     -308.95234    
  16172000   259.7054      -417.59952     -330.6208      -417.07439      0              8607.4518      30.944         21.33497       32.427909      21408.559      8041.5582      9842.5657      7938.2316      764.85063      429.17731     -1445.1557    
  16174000   252.92437     -414.37844     -329.67078     -413.86877      0              6771.4969      30.944         21.33497       32.327478      21342.256      5339.2496      6815.6792      8159.562      -68.273692     -1941.6742     -182.58661    
  16176000   256.87122     -415.25543     -329.2259      -414.82091      0              6311.1345      30.944         21.33497       32.547472      21487.493      6791.1861      5505.7099      6636.5076     -27.828614      422.23841      582.44914    
  16178000   244.96561     -414.45323     -332.41106     -413.99263      0              3843.0368      30.944         21.33497       32.472457      21437.969      4924.7381      3249.9707      3354.4017      1269.931      -829.16837     -65.016798    
  16180000   256.61585     -414.58275     -328.63876     -414.0942       0              6444.1414      30.944         21.33497       32.396013      21387.501      6869.1754      6022.6246      6440.6242      1148.1174     -867.23859      667.83626    
  16182000   259.52745     -417.41288     -330.49375     -416.97085      0              6125.1742      30.944         21.33497       32.38318       21379.03       6088.2022      6111.3705      6175.9499      349.82982      668.34798     -445.34086    
  16184000   258.62475     -415.94148     -329.32468     -415.50072      0              5673.3711      30.944         21.33497       32.414642      21399.8        5532.24        5519.264       5968.6094      359.23069      634.79296      1633.9335    
  16186000   247.94512     -418.59651     -335.55646     -418.05187      0              7790.6252      30.944         21.33497       32.509848      21462.654      7084.0615      8300.4819      7987.3321      0.13966777    -544.26083      293.46194    
  16188000   256.86963     -417.8686      -331.83961     -417.38484      0              5299.0306      30.944         21.33497       32.513481      21465.053      4765.7029      4586.2929      6545.096       814.27528     -66.570697      1335.8172    
  16190000   261.02222     -414.77134     -327.35159     -414.36028      0              6703.8648      30.944         21.33497       32.493425      21451.812      5500.419       8119.1354      6492.0399     -813.46905      252.21749      878.56035    
  16192000   255.59002     -412.9467      -327.34627     -412.47362      0              6489.5779      30.944         21.33497       32.509005      21462.097      6635.121       5242.1696      7591.4431     -1193.9585      596.32614      716.42671    
  16194000   255.41832     -413.83855     -328.29563     -413.42214      0              5467.6776      30.944         21.33497       32.42271       21405.127      7061.8295      3009.9778      6331.2256     -730.15231      1826.4631      792.47236    
  16196000   250.04852     -415.25116     -331.50665     -414.71588      0              5377.3785      30.944         21.33497       32.454382      21426.036      4369.0304      4945.2669      6817.8383      498.38208      844.37808     -225.13174    
  16198000   258.53858     -415.216       -328.62806     -414.76623      0              5847.8187      30.944         21.33497       32.537515      21480.92       6921.0724      5471.5596      5150.8242     -416.75935      685.37775     -312.04395    
  16200000   256.80034     -414.53737     -328.53159     -414.09899      0              3383.6028      30.944         21.33497       32.529655      21475.731      4453.079       2041.2362      3656.4932      1181.2812     -167.23679      1089.3758    
  16202000   256.6094      -413.22704     -327.2852      -412.86144      0              4313.5244      30.944         21.33497       32.709116      21594.208      6336.8021      4605.1018      1998.6692      739.32962      71.078899     -802.60878    
  16204000   255.24141     -415.1272      -329.64353     -414.67141      0              4477.2331      30.944         21.33497       32.688194      21580.397      3363.77        2617.447       7450.4823     -1927.2029     -77.875319     -117.88606    
  16206000   253.11853     -415.2159      -330.4432      -414.74052      0              6166.2834      30.944         21.33497       32.485079      21446.302      6000.1215      4931.3199      7567.4089     -1055.3486      617.68127     -1732.3473    
  16208000   259.78176     -416.35557     -329.35128     -415.86674      0              6573.8685      30.944         21.33497       32.460141      21429.838      6161.3948      5828.7066      7731.5041      328.17024     -622.90836      1805.3326    
  16210000   257.80719     -414.39226     -328.04927     -413.94509      0              6548.3139      30.944         21.33497       32.446142      21420.596      6092.6644      7712.2665      5840.0107      114.4293      -768.31184      1643.3284    
  16212000   248.99048     -414.91016     -331.52        -414.48035      0              5896.4597      30.944         21.33497       32.456722      21427.581      5415.7544      5092.7369      7180.8878      185.35703     -200.496       -95.771197    
  16214000   262.72613     -416.61283     -328.62243     -416.05694      0              6862.9366      30.944         21.33497       32.493214      21451.673      6197.9335      7268.7321      7122.144      -252.63676      289.99         227.01328    
  16216000   256.96719     -413.10136     -327.03969     -412.66148      0              5275.0456      30.944         21.33497       32.433718      21412.394      5945.0032      5786.5751      4093.5585      40.910141      1549.1427      61.139066    
  16218000   254.20425     -413.72194     -328.58562     -413.46893      0              3661.2109      30.944         21.33497       32.6254        21538.94       4801.6701      2630.3652      3551.5975     -1487.9455     -826.50478      123.6525     
  16220000   253.47057     -416.04333     -331.15273     -415.55454      0              5977.141       30.944         21.33497       32.577274      21507.168      8164.9337      4597.3992      5169.0901     -361.43595     -1163.6148     -1428.622     
[...]
  23184000   253.38246     -414.5073      -329.64621     -414.43335      0              5783.9362      30.944         21.33497       32.470066      21436.39       5985.6442      5714.7444      5651.4199     -1195.8529     -1044.3618      67.282132    
  23186000   248.18709     -415.6789      -332.55781     -415.59895      0              7545.7981      30.944         21.33497       32.290345      21317.74       6486.3238      8003.6967      8147.3739      542.77972      231.84809      1148.3038    
  23188000   259.15009     -417.19267     -330.39993     -417.10624      0              8100.8103      30.944         21.33497       32.204706      21261.202      5988.8694      9553.9919      8759.5697      773.37824      1915.8738      326.8091     
  23190000   264.00742     -412.09965     -323.68012     -412.01507      0              6979.3552      30.944         21.33497       32.395361      21387.071      7555.544       7484.174       5898.3476     -2597.0344     -59.571591      772.73924    
  23192000   250.19782     -414.68389     -330.88938     -414.59544      0              4274.4375      30.944         21.33497       32.428728      21409.1        3199.8142      4370.8778      5252.6204      1788.1474      1055.5821      1207.8204    
  23194000   257.9191      -410.86429     -324.48382     -410.80528      0              9195.1217      30.944         21.33497       32.27224       21305.788      10107.108      10567.522      6910.7358     -407.116        1230.5768     -1399.5205    
  23196000   246.11787     -412.78623     -330.35814     -412.74339      0              3986.133       30.944         21.33497       32.333884      21346.484      4222.9563      3609.8713      4125.5713      401.72193      746.49165     -721.50108    
  23198000   250.70561     -414.75431     -330.78973     -414.69366      0              7215.7958      30.944         21.33497       32.403563      21392.486      5351.3764      7229.4159      9066.5951     -858.02327     -183.79343     -846.71017    
  23200000   249.2036      -412.07154     -328.61001     -412.01191      0              5116.8224      30.944         21.33497       32.43826       21415.392      6845.5196      3653.845       4851.1026     -659.03738     -281.66761     -363.22456    
  23202000   253.92911     -412.54929     -327.50512     -412.48904      0              6280.3105      30.944         21.33497       32.444513      21419.521      5490.8345      6528.0395      6822.0576     -561.63335      611.34961      808.39139    
  23204000   257.89632     -413.66059     -327.28775     -413.62992      0              5735.5418      30.944         21.33497       32.523828      21471.883      4566.4417      7415.7621      5224.4215      1916.4064      98.676475     -1483.5295    
  23206000   257.14055     -413.48079     -327.36107     -413.37852      0              5927.2868      30.944         21.33497       32.564458      21498.707      4758.0772      7845.1134      5178.6698     -1283.9011     -2.8978909      121.78107    
  23208000   253.96087     -413.7476      -328.69279     -413.66919      0              2753.3228      30.944         21.33497       32.655853      21559.045      2520.4232      4387.0801      1352.465       461.77222      2816.4826      1187.6744    
  23210000   251.16442     -410.46311     -326.34488     -410.43702      0              7717.1462      30.944         21.33497       32.56546       21499.369      7055.6134      7839.6715      8256.1538      3184.9939     -401.91735     -296.27284    
  23212000   255.15381     -412.30562     -326.85128     -412.21602      0              6497.7552      30.944         21.33497       32.391052      21384.226      5342.8401      7351.0309      6799.3946     -201.90805      887.65151     -2759.5733    
  23214000   250.50953     -412.00693     -328.10802     -411.93582      0              6122.6744      30.944         21.33497       32.507513      21461.113      8845.2808      5006.6887      4516.0539     -1504.6948      422.75833     -1238.6825    
  23216000   252.52156     -411.72611     -327.15334     -411.66818      0              4690.9895      30.944         21.33497       32.401016      21390.804      1557.2261      6125.433       6390.3094      2401.9645      499.55596     -415.70782    
  23218000   260.62236     -411.5414      -324.25557     -411.51158      0              6951.2677      30.944         21.33497       32.486002      21446.911      6776.8382      7092.2809      6984.684       1482.3826      330.90049      231.14576    
  23220000   251.77399     -412.02728     -327.70489     -411.91193      0              5464.0142      30.944         21.33497       32.324976      21340.603      5498.8378      4802.1661      6091.0386      1570.3302     -622.33288     -606.57178    
  23222000   258.69695     -412.40238     -325.7614      -412.30964      0              7559.17        30.944         21.33497       32.535425      21479.54       5694.7029      8588.849       8393.9582      105.92991     -436.83727      214.07136    
  23224000   259.19689     -412.61743     -325.80901     -412.54977      0              8057.3814      30.944         21.33497       32.350577      21357.505      8766.6229      8550.9312      6854.5901      535.9702      -1254.1892      994.10298    
  23226000   252.71026     -413.72222     -329.08626     -413.63509      0              6473.4784      30.944         21.33497       32.41861       21402.42       6567.6931      6981.0687      5871.6735     -199.20007      1741.9674     -1401.192     
  23228000   253.23715     -410.25112     -325.4387      -410.1974       0              5197.0358      30.944         21.33497       32.525831      21473.206      4353.2246      6159.4255      5078.4573      1424.4709     -187.13076      615.02762    
  23230000   257.25554     -410.65706     -324.49882     -410.5906       0              6210.6695      30.944         21.33497       32.404002      21392.776      5566.3296      6839.6092      6226.0697      1645.3199     -1148.4297     -1073.2267    
  23232000   260.55231     -413.60498     -326.34262     -413.51056      0              4120.7794      30.944         21.33497       32.581342      21509.853      5885.7457      5857.3536      619.23884     -123.05305     -246.9891      -377.78756    
  23234000   249.63123     -413.63978     -330.03503     -413.57591      0              5747.6571      30.944         21.33497       32.64136       21549.477      3759.3798      5904.9672      7578.6242      1087.2303      321.81459      1483.1442    
  23236000   256.79614     -412.361       -326.35663     -412.27844      0              4375.1239      30.944         21.33497       32.507904      21461.371      4319.9048      5555.7905      3249.6764      1483.7264      464.61151     -864.38559    
  23238000   255.13647     -413.16131     -327.71277     -413.09885      0              7064.9264      30.944         21.33497       32.455163      21426.552      6772.8531      8096.5189      6325.4073      1773.2029     -1091.8348     -835.67853    
  23240000   258.32506     -414.69909     -328.18266     -414.62966      0              5372.5437      30.944         21.33497       32.675905      21572.283      4901.3869      4927.0923      6289.152      -1352.4153      409.85525      1150.2276    
  23242000   262.68342     -410.05007     -322.07396     -409.99555      0              7080.0602      30.944         21.33497       32.625363      21538.916      7557.7184      6936.77        6745.6923      453.62155      681.26189     -1180.9861    
  23244000   257.10362     -413.7229      -327.61554     -413.65583      0              6112.196       30.944         21.33497       32.453809      21425.658      5828.4127      7186.2823      5321.8929      494.21642      671.87324      806.31483    
  23246000   255.13581     -413.22685     -327.77854     -413.13902      0              6881.2658      30.944         21.33497       32.403992      21392.769      7727.8294      6842.4657      6073.5022      1122.2103     -1790.1873      1490.9264    
  23248000   256.27686     -412.56289     -326.73243     -412.44932      0              8002.2499      30.944         21.33497       32.316965      21335.315      7853.948       7999.7686      8153.0333      173.9897       1079.3098      968.21448    
  23250000   251.31908     -415.56597     -331.39594     -415.50978      0              5372.071       30.944         21.33497       32.345024      21353.839      5934.5988      4866.5655      5315.0487      826.40172      1212.2246      643.38958    
  23252000   260.53351     -411.68599     -324.42993     -411.62872      0              8312.8423      30.944         21.33497       32.39302       21385.526      9148.5229      7150.7088      8639.2952     -46.551021      303.68369     -210.84396    
  23254000   248.2491      -411.47198     -328.33012     -411.41565      0              6013.3016      30.944         21.33497       32.291089      21318.232      5586.3447      6632.1939      5821.3664     -201.52876     -555.04461     -988.30524    
  23256000   256.50614     -415.88939     -329.98214     -415.84432      0              4902.2949      30.944         21.33497       32.440271      21416.72       5075.836       3061.3979      6569.6507      1620.6083     -751.85543      525.78187    
  23258000   252.91177     -412.7603      -328.05685     -412.71607      0              4510.0545      30.944         21.33497       32.418489      21402.34       4254.892       3614.683       5660.5885      643.89147      84.899033     -292.32874    
  23260000   256.18685     -415.07584     -329.27552     -415.04378      0              7555.0397      30.944         21.33497       32.383894      21379.5        6941.192       9290.5414      6433.3856      891.54578      387.32084     -80.891229    
  23262000   249.41665     -415.33609     -331.8032      -415.28604      0              4627.0728      30.944         21.33497       32.375895      21374.22       4687.4422      3905.3527      5288.4236     -212.35554     -13.416183     -375.28392    
  23264000   249.29499     -415.88545     -332.39331     -415.83534      0              7662.115       30.944         21.33497       32.273746      21306.782      6461.1789      9726.5172      6798.6487      103.30055      668.40249      734.13842    
  23266000   248.34768     -413.04238     -329.8675      -412.99454      0              6395.6743      30.944         21.33497       32.410232      21396.889      6190.0775      8091.1311      4905.8142     -459.02187     -1762.0421     -818.08102    
  23268000   252.91215     -414.07522     -329.37165     -414.01929      0              8402.2973      30.944         21.33497       32.448067      21421.867      7920.8697      7728.9357      9557.0864      1366.3938      126.21851     -1221.5223    
  23270000   257.29397     -414.03085     -327.85974     -413.94992      0              6404.2883      30.944         21.33497       32.250057      21291.143      6526.5603      6330.5953      6355.7093     -660.76749     -209.27259     -981.1421     
  23272000   259.43539     -413.54398     -326.65568     -413.45813      0              6682.5344      30.944         21.33497       32.296021      21321.488      6654.6258      6394.0205      6998.957      -492.98502      525.47725     -1107.9568    
  23274000   258.72267     -413.69597     -327.04638     -413.59475      0              8023.0802      30.944         21.33497       32.31958       21337.041      7936.0466      7706.9837      8426.2103      78.1305       -980.86256     -548.06927    
  23276000   255.15325     -410.53976     -325.08561     -410.47852      0              7413.1732      30.944         21.33497       32.35904       21363.092      7574.3453      7982.5454      6682.629       1619.0624     -860.74013     -953.73736    
  23278000   256.65113     -411.99156     -326.03575     -411.93215      0              7157.5455      30.944         21.33497       32.472229      21437.819      5550.0507      8510.0832      7412.5025      2203.4563     -171.42621      602.12371    
  23280000   261.70434     -415.67806     -328.02987     -415.60446      0              4732.2543      30.944         21.33497       32.552575      21490.862      4089.2114      5523.5086      4584.043       1269.9746      484.45161      575.33005    
  23282000   265.14111     -415.14226     -326.34305     -415.08273      0              4553.4318      30.944         21.33497       32.664969      21565.063      4050.7648      6084.189       3525.3417     -441.18554     -178.70664     -555.25464    
  23284000   262.81114     -417.31173     -329.29285     -417.21803      0              6888.2711      30.944         21.33497       32.428891      21409.207      7219.2979      7231.8872      6213.6283     -936.09602     -1535.7776      246.77967    
  23286000   259.01535     -415.9784      -329.23079     -415.91735      0              6513.4063      30.944         21.33497       32.430572      21410.317      8312.534       6964.5238      4263.1611     -413.3545      -321.45138     -144.05842    
  23288000   258.13696     -414.64307     -328.18963     -414.58137      0              5826.7735      30.944         21.33497       32.361688      21364.841      5660.1185      6658.9749      5161.2272     -218.7687       663.74141      542.47069    
  23290000   252.10115     -415.01144     -330.57947     -414.92959      0              9253.2795      30.944         21.33497       32.241978      21285.809      9344.2303      9938.2332      8477.3751     -769.77078     -812.27526     -463.8441     
  23292000   250.73756     -413.59279     -329.61752     -413.52782      0              4818.9969      30.944         21.33497       32.359988      21363.718      4504.1688      3754.3209      6198.5008      227.84814      116.8782       567.43292    
  23294000   253.7936      -412.19912     -327.20034     -412.17958      0              6208.3751      30.944         21.33497       32.483009      21444.935      8751.4381      4545.5098      5328.1774      128.23181     -697.4842       515.76906    
  23296000   258.46925     -414.07151     -327.50679     -414.02993      0              5496.1425      30.944         21.33497       32.552082      21490.537      4994.8267      4489.8795      7003.7212      1368.8948     -20.255691      790.5268     
  23298000   251.95914     -412.55775     -328.17335     -412.4895       0              7662.3403      30.944         21.33497       32.423881      21405.9        7059.3398      8722.9131      7204.7679      1579.7254      103.95665      360.15917    
  23300000   250.97074     -413.51935     -329.46598     -413.42269      0              6931.6508      30.944         21.33497       32.427876      21408.537      7554.2581      6036.8201      7203.8742      62.741008      594.09143     -1332.5445    
  23302000   253.38656     -413.42696     -328.5645      -413.31099      0              6753.0594      30.944         21.33497       32.320435      21337.606      5840.0298      7566.1078      6853.0405      403.04742      1081.7353     -452.98399    
  23304000   251.07074     -415.25253     -331.16566     -415.13812      0              6597.6936      30.944         21.33497       32.156254      21229.215      5135.5451      7410.0776      7247.4581      198.61994     -474.35589      7.4083036    
  23306000   258.18556     -413.23004     -326.76033     -413.11545      0              5831.9492      30.944         21.33497       32.380488      21377.252      6332.132       5880.9649      5282.7507      1935.5762      1300.5432      2773.8321    
  23308000   246.91342     -413.54789     -330.85336     -413.43314      0              7113.0773      30.944         21.33497       32.34557       21354.199      5475.475       6966.4053      8897.3518     -771.83059      3500.2715     -572.08844    
  23310000   246.43682     -413.81741     -331.2825      -413.72682      0              4356.1996      30.944         21.33497       32.435751      21413.736      3382.1031      5454.4955      4232.0003      34.831974     -1021.3519     -1249.0265    
  23312000   250.52118     -414.43634     -330.53353     -414.35584      0              4358.9337      30.944         21.33497       32.506418      21460.39       5801.3593      4374.6201      2900.8217     -1472.9886     -460.64191     -846.93809    
  23314000   252.54843     -414.01093     -329.42916     -413.9589       0              5539.3087      30.944         21.33497       32.435719      21413.715      5132.0332      5189.2606      6296.6323     -1703.1034     -1006.6487     -1134.6943    
  23316000   253.16486     -414.61667     -329.82846     -414.52483      0              5647.4874      30.944         21.33497       32.341896      21351.774      4566.5057      6275.4899      6100.4665      1453.6999      837.35726      913.72063    
  23318000   248.71596     -411.06049     -327.76228     -410.97004      0              6719.6415      30.944         21.33497       32.185482      21248.511      4628.6711      6736.1405      8794.1129      757.55929      760.08479      1168.8836    
  23320000   259.78512     -412.01873     -325.01331     -411.96856      0              7431.016       30.944         21.33497       32.303752      21326.592      7227.5938      8015.4106      7050.0437     -1551.7083      1842.3433     -412.85859    
  23322000   257.53256     -414.49074     -328.23972     -414.41602      0              7041.4199      30.944         21.33497       32.364023      21366.382      6641.1026      6922.4544      7560.7027      712.01448      680.34361      386.68718    
  23324000   250.02188     -412.88836     -329.15277     -412.83308      0              5922.4685      30.944         21.33497       32.351527      21358.132      6671.6204      6047.5271      5048.2581      357.19057     -1220.7248     -345.27765    
  23326000   257.02404     -413.22317     -327.14247     -413.17867      0              7256.5191      30.944         21.33497       32.38087       21377.504      8296.1333      6492.2356      6981.1885     -170.21912      420.02135     -144.14227    
WARNING: Wall time limit reached (../timer.cpp:193)
Loop time of 85807.2 on 4 procs for 7673000 steps with 2592 atoms

Performance: 3.863 ns/day, 6.213 hours/ns, 89.421 timesteps/s
1494.0% CPU use with 4 MPI tasks x no OpenMP threads

MPI task timing breakdown:
Section |  min time  |  avg time  |  max time  |%varavg| %total
---------------------------------------------------------------
Pair    | 21554      | 21622      | 21658      |  27.7 | 25.20
Bond    | 0.73505    | 0.78073    | 0.8533     |   5.0 |  0.00
Neigh   | 644.74     | 655.9      | 666.01     |  36.8 |  0.76
Comm    | 2529.3     | 2568.4     | 2627.2     |  74.3 |  2.99
Output  | 3593       | 3593.1     | 3593.1     |   0.0 |  4.19
Modify  | 57342      | 57345      | 57350      |   1.4 | 66.83
Other   |            | 21.77      |            |       |  0.03

Nlocal:            648 ave         658 max         632 min
Histogram: 1 0 0 0 0 0 1 0 1 1
Nghost:        4265.25 ave        4284 max        4244 min
Histogram: 1 0 0 0 1 0 0 1 0 1
Neighs:              0 ave           0 max           0 min
Histogram: 4 0 0 0 0 0 0 0 0 0
FullNghs:       167950 ave      170373 max      162015 min
Histogram: 1 0 0 0 0 0 0 0 1 2

Total # of neighbors = 671798
Ave neighs/atom = 259.18133
Ave special neighs/atom = 0
Neighbor list builds = 153460
Dangerous builds not checked
unfix 3
unfix 1
unfix 2


# Finalize simulation
write_restart	restart.lmp.${pid}
write_restart	restart.lmp.0
System init for write_restart ...
Generated 0 of 1 mixed pair_coeff terms from geometric mixing rule
write_data	data.final.${pid} nocoeff
write_data	data.final.0 nocoeff
System init for write_data ...
Generated 0 of 1 mixed pair_coeff terms from geometric mixing rule
Total wall time: 23:50:18
