LAMMPS (23 Jun 2022)
include procedure.lmp
echo both
include		in.partitions
variable        pid world 0
include		in.temp
variable	temperature equal 255
variable        tempDamp equal 0.100 # this is 0.1 ps
include		in.pressure
variable        pressure equal 6079.5
variable        pressureDamp equal 1.0 #this is 1ps

variable	barostat string	   tri
variable	direction string   z
variable	direction_x_bool equal 0
variable	direction_y_bool equal 0
variable	direction_z_bool equal 1

include		in.seed
variable        seed world 745823

units           metal
atom_style	full
box tilt large
read_restart 	restart.lmp.${pid}
read_restart 	restart.lmp.0
Reading restart file ...
  restart file = 23 Jun 2022, LAMMPS = 23 Jun 2022
  restoring atom style full from restart
  triclinic box = (0 0 -0.74691056) to (30.944 21.33497 31.719626) with tilt (-9.144178 0.97967388 -10.803976)
WARNING: Triclinic box skew is large (../domain.cpp:224)
  2 by 1 by 2 MPI processor grid
Summary of lammps deepmd module ...
  >>> Info of deepmd-kit:
  installed to:       /u/sigbjobo/software/DEEPMD_FROM_SOURCE/deepmd-kit/install
  source:             v2.1.3
  source branch:       master
  source commit:      5a32c49
  source commit at:   2022-07-01 09:52:58 +0800
  surpport model ver.:1.1 
  build float prec:   double
  build with tf inc:  /u/sigbjobo/software/DEEPMD_FROM_SOURCE/tensorflow/install/include;/u/sigbjobo/software/DEEPMD_FROM_SOURCE/tensorflow/install/include
  build with tf lib:  /u/sigbjobo/software/DEEPMD_FROM_SOURCE/tensorflow/install/lib/libtensorflow_cc.so;/u/sigbjobo/software/DEEPMD_FROM_SOURCE/tensorflow/install/lib/libtensorflow_framework.so
  set tf intra_op_parallelism_threads: 0
  set tf inter_op_parallelism_threads: 0
  >>> Info of lammps module:
  use deepmd-kit at:  /u/sigbjobo/software/DEEPMD_FROM_SOURCE/deepmd-kit/install
  source:             v2.1.3
  source branch:      master
  source commit:      5a32c49
  source commit at:   2022-07-01 09:52:58 +0800
  build float prec:   double
  build with tf inc:  /u/sigbjobo/software/DEEPMD_FROM_SOURCE/tensorflow/install/include;/u/sigbjobo/software/DEEPMD_FROM_SOURCE/tensorflow/install/include
  build with tf lib:  /u/sigbjobo/software/DEEPMD_FROM_SOURCE/tensorflow/install/lib/libtensorflow_cc.so;/u/sigbjobo/software/DEEPMD_FROM_SOURCE/tensorflow/install/lib/libtensorflow_framework.so
  restoring pair style deepmd from restart
  2592 atoms
Finding 1-2 1-3 1-4 neighbors ...
  special bond factors lj:    0        0        0       
  special bond factors coul:  0        0        0       
     0 = max # of 1-2 neighbors
     0 = max # of 1-3 neighbors
     0 = max # of 1-4 neighbors
     1 = max # of special neighbors
  special bonds CPU = 0.000 seconds
  read_restart CPU = 0.008 seconds
include 	in.setup
variable	out_freq equal 2000
variable	out_freq2 equal 2000

timestep        0.0005

neigh_modify    delay 7 every 1

include         in.deepmd
# This is deepMD model

# create groups ###
#group ox type 2
#group hy type 1

mass 2 15.999
mass 1 1.008

pair_style      deepmd ../graph.pb
pair_coeff      * *

bond_style      none
angle_style     none
dihedral_style  none
improper_style  none
neigh_modify exclude none


neighbor        2.0 bin
neigh_modify    every 50 delay 0 check no

thermo          ${out_freq}
thermo          2000
thermo_style 	custom step temp pe etotal epair emol press lx ly lz vol pxx pyy pzz pxy pxz pyz

restart 	${out_freq} restart.lmp.${pid} restart2.lmp.${pid}
restart 	2000 restart.lmp.${pid} restart2.lmp.${pid}
restart 	2000 restart.lmp.0 restart2.lmp.${pid}
restart 	2000 restart.lmp.0 restart2.lmp.0


timer           timeout 23:50:00 every 1000
New timer settings: style=normal  mode=nosync  timeout=23:50:00


# Set number of time steps
variable 	nsteps_wall		equal	 6000000
variable 	nsteps_enhanced_coex    equal	100000000

variable     nsteps_enhanced_coex_upto equal (${nsteps_wall}+${nsteps_enhanced_coex})
variable     nsteps_enhanced_coex_upto equal (6000000+${nsteps_enhanced_coex})
variable     nsteps_enhanced_coex_upto equal (6000000+100000000)


# Set temperature for first step
if "$(step) < 1  " then    "velocity 	all create ${temperature} ${seed} dist gaussian"


# Always run thermo and barostat


######################################
# Run simulation with wall potential #
######################################
if " $(step) < ${nsteps_wall} " then    "fix             3 all plumed plumedfile plumed.equil.dat outfile plumed.equil.out"   "fix             1 all nph ${direction} ${pressure} ${pressure} ${pressureDamp}"   "fix             2 all temp/csvr ${temperature} ${temperature} ${tempDamp} ${seed}"   "run             ${nsteps_wall} upto"
if " $(step) == ${nsteps_wall} " then    "unfix 3"   "unfix 1"   "unfix 2"


############################
# Run enhanced coesistence #
############################
if "$(step) == ${nsteps_wall}" then    "fix             3 all plumed plumedfile plumed.start.dat outfile plumed.out" else    "fix             3 all plumed plumedfile plumed.dat outfile plumed.out"
fix             3 all plumed plumedfile plumed.dat outfile plumed.out

if "$(step) < ${nsteps_enhanced_coex_upto} && $(step) >= ${nsteps_wall} " then    "include         in.dump"    "fix             1 all nph ${direction} ${pressure} ${pressure} ${pressureDamp}"   "fix             2 all temp/csvr ${temperature} ${temperature} ${tempDamp} ${seed}"   "run             ${nsteps_enhanced_coex_upto} upto"    "unfix 3"   "unfix 1"   "unfix 2"
include         in.dump
dump            myDump all atom ${out_freq2} dump.water.${pid}
dump            myDump all atom 2000 dump.water.${pid}
dump            myDump all atom 2000 dump.water.0
dump            myDump2 all dcd ${out_freq2} dump.${pid}.dcd
dump            myDump2 all dcd 2000 dump.${pid}.dcd
dump            myDump2 all dcd 2000 dump.0.dcd
dump_modify     myDump append yes
dump_modify     myDump2 append yes

fix             1 all nph ${direction} ${pressure} ${pressure} ${pressureDamp}
fix             1 all nph z ${pressure} ${pressure} ${pressureDamp}
fix             1 all nph z 6079.5 ${pressure} ${pressureDamp}
fix             1 all nph z 6079.5 6079.5 ${pressureDamp}
fix             1 all nph z 6079.5 6079.5 1
fix             2 all temp/csvr ${temperature} ${temperature} ${tempDamp} ${seed}
fix             2 all temp/csvr 255 ${temperature} ${tempDamp} ${seed}
fix             2 all temp/csvr 255 255 ${tempDamp} ${seed}
fix             2 all temp/csvr 255 255 0.1 ${seed}
fix             2 all temp/csvr 255 255 0.1 745823
run             ${nsteps_enhanced_coex_upto} upto
run             106000000 upto

CITE-CITE-CITE-CITE-CITE-CITE-CITE-CITE-CITE-CITE-CITE-CITE-CITE

Your simulation uses code contributions which should be cited:

- USER-DEEPMD package:

@article{Wang_ComputPhysCommun_2018_v228_p178,
  author = {Wang, Han and Zhang, Linfeng and Han, Jiequn and E, Weinan},
  doi = {10.1016/j.cpc.2018.03.016},
  url = {https://doi.org/10.1016/j.cpc.2018.03.016},
  year = 2018,
  month = {jul},
  publisher = {Elsevier {BV}},
  volume = 228,
  journal = {Comput. Phys. Commun.},
  title = {{DeePMD-kit: A deep learning package for many-body potential energy representation and molecular dynamics}},
  pages = {178--184}
}

CITE-CITE-CITE-CITE-CITE-CITE-CITE-CITE-CITE-CITE-CITE-CITE-CITE

Generated 0 of 1 mixed pair_coeff terms from geometric mixing rule
Neighbor list info ...
  update every 50 steps, delay 0 steps, check no
  max neighbors/atom: 2000, page size: 100000
  master list distance cutoff = 8
  ghost atom cutoff = 8
  binsize = 4, bins = 11 9 9
  1 neighbor lists, perpetual/occasional/extra = 1 0 0
  (1) pair deepmd, perpetual
      attributes: full, newton on
      pair build: full/bin
      stencil: full/bin/3d
      bin: standard
Per MPI rank memory allocation (min/avg/max) = 6.238 | 6.238 | 6.239 Mbytes
   Step          Temp          PotEng         TotEng         E_pair         E_mol          Press            Lx             Ly             Lz           Volume          Pxx            Pyy            Pzz            Pxy            Pxz            Pyz      
  95685000   260.25348     -412.97787     -325.81559     -412.97787      0              7732.6665      30.944         21.33497       32.466536      21434.06       7802.6847      8624.4932      6770.8215      967.7728      -908.94359      1280.7494    
  95686000   256.09587     -413.2341      -327.46425     -413.23285      0              8250.5322      30.944         21.33497       32.5429        21484.475      8018.4951      8213.4547      8519.6468      1470.6631      1491.8207     -217.11008    
  95688000   259.56058     -413.43081     -326.50059     -413.42807      0              6570.9936      30.944         21.33497       32.718819      21600.615      4725.7629      6612.4988      8374.7192      496.98036      260.56212      919.21644    
  95690000   251.79886     -411.72212     -327.3914      -411.7199       0              3579.8594      30.944         21.33497       32.584602      21512.006      3688.8254      4852.4757      2198.2772      984.27576     -1257.1705      794.59485    
  95692000   260.17041     -414.30252     -327.16806     -414.30047      0              4362.5593      30.944         21.33497       32.581673      21510.072      5395.4247      3999.8046      3692.4487     -396.70915      865.95722      371.18321    
  95694000   261.43047     -412.82441     -325.26793     -412.81942      0              6550.4523      30.944         21.33497       32.556784      21493.641      7304.0367      7302.3853      5044.9348     -1028.173       697.45853     -115.62626    
  95696000   257.2412      -412.94697     -326.79354     -412.94585      0              4710.5114      30.944         21.33497       32.638431      21547.544      4367.1166      4220.1069      5544.3108     -142.21238     -1131.4084     -139.14566    
  95698000   263.04597     -412.0702      -323.97267     -412.06009      0              5125.0361      30.944         21.33497       32.519608      21469.098      5219.9019      5315.3557      4839.8507      149.41796     -764.59608     -703.70313    
  95700000   259.53832     -414.01506     -327.0923      -414.01322      0              5859.449       30.944         21.33497       32.563803      21498.274      5903.8789      6849.4458      4825.0222      8.180452       446.25082     -2810.6594    
  95702000   258.58145     -413.86307     -327.26077     -413.86119      0              8459.4751      30.944         21.33497       32.290931      21318.127      10000.715      8166.426       7211.2846      143.69011      305.49954     -1108.3056    
  95704000   250.64479     -411.62199     -327.67778     -411.61473      0              6187.619       30.944         21.33497       32.416228      21400.847      5120.5533      8169.2913      5273.0125     -467.06835      756.93205     -762.56469    
  95706000   246.02889     -414.19279     -331.79451     -414.19047      0              5928.2595      30.944         21.33497       32.669643      21568.149      7343.2458      4333.5956      6107.9372      664.39381      349.32043      2491.9357    
  95708000   246.50077     -413.73074     -331.17442     -413.72945      0              6136.3317      30.944         21.33497       32.610289      21528.964      6492.982       6517.0192      5398.9938      221.59279     -865.10422     -453.87113    
  95710000   258.96191     -411.03044     -324.30072     -411.02724      0              4651.4744      30.944         21.33497       32.545696      21486.321      3720.906       6073.7289      4159.7882      992.12953      658.67264      335.66276    
  95712000   257.48054     -413.02756     -326.79397     -413.02479      0              7139.7531      30.944         21.33497       32.466126      21433.79       6356.3973      7422.7568      7640.105      -957.77926      568.84698     -328.12966    
  95714000   256.03162     -415.18333     -329.435       -415.18132      0              7474.4214      30.944         21.33497       32.403187      21392.238      7073.7948      8120.8695      7228.5998     -1642.2737     -666.51199     -161.95518    
  95716000   265.28949     -412.55857     -323.70966     -412.55529      0              4766.231       30.944         21.33497       32.56878       21501.561      2904.6663      5580.8136      5813.2131      1260.1408      1338.5155      311.41441    
  95718000   258.42041     -411.80672     -325.25835     -411.79897      0              7061.9368      30.944         21.33497       32.555476      21492.777      7559.2546      8436.6419      5189.9139      49.193726     -2173.127       701.6525     
  95720000   257.37706     -416.09514     -329.89621     -416.09398      0              4762.0365      30.944         21.33497       32.631888      21543.224      6311.7393      3452.3914      4521.9787     -907.32137      799.07648      341.12203    
  95722000   248.80488     -410.98624     -327.65824     -410.98317      0              6791.4711      30.944         21.33497       32.418286      21402.206      4708.7884      6379.8737      9285.7511     -296.60873      216.8013      -200.04601    
  95724000   250.83368     -412.33374     -328.32627     -412.32709      0              5080.4665      30.944         21.33497       32.630619      21542.386      3448.4806      6480.2173      5312.7015      744.7915       1706.7078      179.99269    
  95726000   250.44004     -413.96969     -330.09406     -413.96565      0              5722.3419      30.944         21.33497       32.603579      21524.534      6213.1428      3273.7342      7680.1487      860.58042     -707.34413      1467.1076    
  95728000   254.3861      -411.60564     -326.40842     -411.6          0              7267.4568      30.944         21.33497       32.472715      21438.14       8665.8911      6583.5796      6552.8998      870.42946      328.39573     -180.22646    
  95730000   257.40509     -415.66406     -329.45574     -415.6609       0              6595.2236      30.944         21.33497       32.570441      21502.657      4903.0899      7108.445       7774.136      -61.48017       1931.6451      1132.3311    
  95732000   260.15509     -414.3488      -327.21946     -414.3462       0              5872.1591      30.944         21.33497       32.565196      21499.194      6453.6863      4121.2282      7041.5627      103.23552     -786.9178      -31.095262    
  95734000   263.88431     -413.49514     -325.11684     -413.49335      0              4337.1753      30.944         21.33497       32.624344      21538.243      5044.4212      4347.5203      3619.5843      391.51354     -697.55437     -1267.4859    
  95736000   261.45406     -410.757       -323.19263     -410.75569      0              6109.5407      30.944         21.33497       32.378951      21376.237      5430.5189      6354.7108      6543.3924     -2.9401897     -1799.0339      284.25946    
  95738000   255.42358     -413.17661     -327.63193     -413.17531      0              6074.6595      30.944         21.33497       32.277661      21309.367      6856.4514      5776.5509      5590.9761      968.85777     -546.67944      129.58968    
  95740000   257.63736     -412.8275      -326.54139     -412.82649      0              5241.7829      30.944         21.33497       32.39382       21386.054      4687.9098      6449.3322      4588.1066      1153.0885     -519.82284     -621.39343    
  95742000   254.92352     -415.18148     -329.80426     -415.17813      0              7089.5228      30.944         21.33497       32.410071      21396.783      6594.8611      6702.5914      7971.1161     -950.91738     -253.49744      286.78868    
  95744000   262.97455     -414.84651     -326.7729      -414.84489      0              5891.7505      30.944         21.33497       32.400998      21390.792      5988.8596      6197.112       5489.2799      127.93617      56.44496       940.09763    
  95746000   253.43554     -413.17362     -328.29476     -413.17177      0              6542.1869      30.944         21.33497       32.408952      21396.044      6958.5934      6935.4819      5732.4855      262.88632     -1918.413       559.18996    
  95748000   257.9488      -409.58478     -323.19437     -409.58352      0              5222.0843      30.944         21.33497       32.544945      21485.825      6126.3401      4973.0891      4566.8238     -185.43468     -384.35079      1422.9299    
  95750000   252.13906     -416.67924     -332.23458     -416.67742      0              4605.9852      30.944         21.33497       32.482512      21444.608      4122.9902      5522.2094      4172.7561     -740.11736     -677.44289     -802.8488     
  95752000   250.73862     -411.30361     -327.32798     -411.30246      0              7744.4546      30.944         21.33497       32.390556      21383.899      9306.1102      5909.5629      8017.6906      1173.3899     -895.73538      690.48608    
  95754000   256.38668     -417.56217     -331.69493     -417.56119      0              6814.7873      30.944         21.33497       32.647767      21553.707      7544.0414      6990.4584      5909.862       310.28526      782.25549     -1167.2613    
  95756000   255.7816      -416.57973     -330.91514     -416.57736      0              6499.2732      30.944         21.33497       32.497139      21454.264      6311.4517      8050.7885      5135.5795     -1183.9891      758.95603      587.69883    
  95758000   251.33809     -413.20453     -329.02813     -413.2031       0              5701.0275      30.944         21.33497       32.457385      21428.019      3485.8526      7807.2153      5810.0145      2362.4077      358.39295      258.5712     
  95760000   251.92295     -410.69764     -326.32536     -410.69501      0              6703.8665      30.944         21.33497       32.456383      21427.357      6675.7148      6986.6093      6449.2755      493.45856     -270.82205      632.69256    
  95762000   250.65018     -415.46952     -331.52351     -415.46854      0              7023.7491      30.944         21.33497       32.497295      21454.367      7278.1839      7007.269       6785.7945      443.89796      642.41233      544.04309    
  95764000   250.19536     -413.74625     -329.95256     -413.74475      0              5532.3938      30.944         21.33497       32.489724      21449.368      5267.9829      5816.7802      5512.4184      1670.5763     -913.81788      363.558      
  95766000   250.90209     -412.68768     -328.65729     -412.68589      0              7020.1125      30.944         21.33497       32.416145      21400.793      8375.8984      6296.1604      6388.2787      1216.8311     -924.27453     -877.37615    
  95768000   254.90017     -413.54393     -328.17455     -413.54173      0              5927.2441      30.944         21.33497       32.636333      21546.159      4267.2574      7262.8493      6251.6256     -1115.8511      609.04681      22.481779    
  95770000   259.34669     -415.52244     -328.66385     -415.52141      0              4190.7551      30.944         21.33497       32.583527      21511.296      2900.8854      5792.4655      3878.9145      902.43472      93.937127     -988.00016    
  95772000   259.68857     -415.56698     -328.59389     -415.56594      0              5140.5904      30.944         21.33497       32.768377      21633.332      6351.5519      5360.2943      3709.9249     -808.2209      -618.32893      1571.7217    
  95774000   247.3154      -416.24908     -333.41993     -416.2473       0              6163.1207      30.944         21.33497       32.734765      21611.142      5195.2062      6498.3139      6795.8419      603.77074      457.80611      260.51886    
  95776000   255.44708     -414.03067     -328.47812     -414.02712      0              6559.0641      30.944         21.33497       32.676162      21572.453      5134.4917      7300.5054      7242.1952     -1018.4901     -1420.8359     -22.659105    
  95778000   262.47113     -415.75491     -327.8499      -415.75314      0              5508.7453      30.944         21.33497       32.675145      21571.781      6272.1476      3054.6307      7199.4578      95.672903     -279.18        -602.94112    
  95780000   253.22591     -414.22981     -329.42115     -414.22882      0              5477.8123      30.944         21.33497       32.472598      21438.062      6302.3084      4584.4291      5546.6993      590.06138      2204.807       668.38218    
  95782000   254.8009      -414.93766     -329.60152     -414.93663      0              5603.7591      30.944         21.33497       32.592744      21517.381      4547.8444      3947.5631      8315.8697      1838.4814     -468.71395      2170.2241    
  95784000   256.68463     -414.25413     -328.2871      -414.25234      0              6422.898       30.944         21.33497       32.58195       21510.255      5754.9972      7389.5255      6124.1713     -2047.8126      2094.0248      1133.1176    
  95786000   255.09686     -412.25474     -326.81947     -412.2529       0              7433.1345      30.944         21.33497       32.51995       21469.323      5844.0947      9057.5972      7397.7117      839.71628      2256.9016      429.31716    
  95788000   259.44993     -415.81553     -328.92236     -415.81397      0              5240.3613      30.944         21.33497       32.652589      21556.89       5389.9166      4922.0381      5409.1291      375.52419     -2054.7938      677.0379     
  95790000   254.56835     -412.8856      -327.62734     -412.8841       0              7043.9622      30.944         21.33497       32.534693      21479.057      6363.9504      7313.2929      7454.6434     -2384.9301      266.51971     -1137.7374    
  95792000   252.41012     -411.71714     -327.1817      -411.71595      0              6381.6138      30.944         21.33497       32.468443      21435.319      6127.2418      5994.8505      7022.7491     -669.46078     -157.60196     -109.98804    
  95794000   264.02689     -415.37147     -326.94542     -415.36978      0              6335.7162      30.944         21.33497       32.562985      21497.735      5100.8478      7868.9781      6037.3228      570.33588      1739.9969     -832.93053    
  95796000   261.92916     -415.67216     -327.94867     -415.67018      0              6370.117       30.944         21.33497       32.512365      21464.316      6284.2204      6714.4798      6111.651      -271.19838      353.60881      692.24365    
  95798000   252.39375     -412.41146     -327.88151     -412.41029      0              6845.2726      30.944         21.33497       32.380357      21377.165      8496.0467      5021.1158      7018.6552      356.28624     -1508.4052      1244.3277    
  95800000   257.98271     -411.41246     -325.01069     -411.41102      0              5894.6332      30.944         21.33497       32.379284      21376.457      6705.5775      5682.8733      5295.4487     -647.6195       1076.7082     -691.42061    
  95802000   256.01253     -415.03139     -329.28945     -415.02927      0              7264.1056      30.944         21.33497       32.336758      21348.382      8509.0915      6773.0976      6510.1276      292.97636      1234.8344     -792.56452    
  95804000   256.31895     -412.52668     -326.68212     -412.52537      0              8313.9438      30.944         21.33497       32.464173      21432.5        8885.0531      9122.8904      6933.8879     -1195.1494      1253.4838     -657.99502    
  95806000   255.11083     -414.55731     -329.11737     -414.55635      0              7576.9477      30.944         21.33497       32.558973      21495.086      7197.5309      9911.2606      5622.0516      704.02681      1254.5184      508.13182    
  95808000   251.16472     -414.63742     -330.51908     -414.63651      0              5730.5219      30.944         21.33497       32.548368      21488.085      5712.3287      6838.3489      4640.8881      616.67001      483.68059      411.37952    
  95810000   257.29311     -410.55252     -324.3817      -410.55096      0              5136.3745      30.944         21.33497       32.679548      21574.688      5670.9212      6893.0286      2845.1738      381.44414      1007.5277     -696.9603     
  95812000   252.57262     -412.47403     -327.88417     -412.47259      0              6696.1785      30.944         21.33497       32.394206      21386.308      6123.9538      7450.1062      6514.4756     -220.12269     -208.25578     -350.59917    
  95814000   260.29119     -414.28723     -327.11232     -414.28628      0              8217.1351      30.944         21.33497       32.41846       21402.321      7250.523       10033.421      7367.461      -1013.0736      822.60529     -311.70505    
  95816000   250.07834     -416.95724     -333.20274     -416.95568      0              7654.3161      30.944         21.33497       32.540092      21482.621      6909.007       7630.7777      8423.1637     -296.42471      599.3774      -1124.3915    
  95818000   259.61497     -413.84006     -326.89162     -413.83817      0              4767.4081      30.944         21.33497       32.784374      21643.893      4240.2278      4295.1124      5766.8841      474.58458     -230.23058      1659.4702    
  95820000   255.10546     -414.97672     -329.53857     -414.97585      0              3837.0363      30.944         21.33497       32.876631      21704.801      2710.4316      4873.3756      3927.3017     -888.39015      113.96187      1193.9873    
  95822000   253.07885     -412.24108     -327.48167     -412.23924      0              5797.1306      30.944         21.33497       32.72521       21604.834      5292.7347      5120.9185      6977.7385      176.99454      2403.0289      1421.0148    
  95824000   246.44163     -415.31004     -332.77353     -415.30836      0              7527.8827      30.944         21.33497       32.54915       21488.601      6529.6922      7307.6839      8746.272       158.68052     -937.86357      1534.6817    
  95826000   258.62719     -415.01598     -328.39837     -415.01458      0              5357.0448      30.944         21.33497       32.723614      21603.78       4977.7174      5384.9754      5708.4418      173.42068      1079.1301      627.15621    
  95828000   254.36757     -412.0197      -326.82868     -412.01787      0              6079.4502      30.944         21.33497       32.514586      21465.782      6317.0287      5081.0648      6840.2572     -882.6876       453.5623      -2142.3362    
  95830000   257.15013     -414.24856     -328.12563     -414.24767      0              4585.6657      30.944         21.33497       32.62385       21537.917      5055.5858      4034.3912      4667.02        1040.9629     -126.53398     -1129.224     
  95832000   252.58049     -414.92105     -330.32855     -414.92014      0              4568.2498      30.944         21.33497       32.692975      21583.552      2975.4544      5768.952       4960.3428     -682.5407       911.20196     -231.13763    
  95834000   262.99703     -412.40202     -324.32089     -412.39914      0              5674.0933      30.944         21.33497       32.582209      21510.426      6864.5341      4874.0305      5283.7154     -1390.7634      874.23842      433.57633    
  95836000   254.66307     -412.26413     -326.97415     -412.26328      0              7163.8379      30.944         21.33497       32.549824      21489.046      6546.8026      8029.6555      6915.0555      993.21271      689.27344     -200.1992     
  95838000   253.28001     -413.92911     -329.10234     -413.92734      0              4487.7637      30.944         21.33497       32.415825      21400.581      3416.1968      4629.6332      5417.4612      596.34733     -1197.5909     -305.93463    
  95840000   259.9336      -414.77346     -327.71831     -414.7712       0              5873.5774      30.944         21.33497       32.448617      21422.23       4953.2804      8200.2442      4467.2076     -1220.1424      2776.3656     -659.4524     
  95842000   250.55378     -413.9303      -330.01657     -413.92855      0              5091.1809      30.944         21.33497       32.663936      21564.381      4702.2361      4495.9385      6075.3682      1196.548       1005.0766     -480.01808    
  95844000   255.82217     -412.36709     -326.68891     -412.36547      0              3996.3889      30.944         21.33497       32.529935      21475.915      3305.5416      3729.2466      4954.3784      2484.8779      1787.8103      363.6917     
  95846000   247.83148     -412.65736     -329.65537     -412.65532      0              6525.9775      30.944         21.33497       32.614972      21532.056      5968.6098      6035.0336      7574.2892      65.564931     -453.3797      -25.660995    
  95848000   254.7237      -415.48463     -330.17434     -415.48321      0              4936.2407      30.944         21.33497       32.557163      21493.891      2961.4188      5875.3059      5971.9975     -310.81371     -273.77138     -238.23834    
  95850000   256.94377     -411.59941     -325.54559     -411.59789      0              7306.5353      30.944         21.33497       32.455511      21426.782      6793.298       5724.3136      9401.9943      788.18763      276.59308      736.16074    
  95852000   250.44355     -415.64459     -331.76778     -415.64304      0              5959.1533      30.944         21.33497       32.476828      21440.854      5420.8158      5798.5026      6658.1415     -0.97065012    -1745.4188      310.7804     
  95854000   255.06382     -412.81921     -327.39501     -412.81817      0              7053.1836      30.944         21.33497       32.612074      21530.142      5621.4811      9025.5743      6512.4953      1938.0354      1186.137       1784.5796    
  95856000   251.03373     -415.43104     -331.35657     -415.42982      0              6159.0645      30.944         21.33497       32.627408      21540.266      6672.6458      4443.8693      7360.6786     -1408.4787      161.57844     -324.78073    
  95858000   254.33963     -412.76844     -327.58678     -412.76757      0              6118.349       30.944         21.33497       32.571906      21503.624      7601.9669      3051.6609      7701.4192      602.41243     -1793.9136      1707.2164    
  95860000   253.30263     -413.24873     -328.41437     -413.2471       0              7122.3343      30.944         21.33497       32.498347      21455.061      7292.7838      7827.8653      6246.3539     -478.71794     -938.4798      -807.48164    
  95862000   247.93512     -411.8472      -328.8105      -411.84522      0              4595.5004      30.944         21.33497       32.49194       21450.831      3298.0296      6551.8607      3936.6109     -628.0918       190.3133       1047.6562    
  95864000   252.26189     -414.54726     -330.06147     -414.54533      0              5214.6278      30.944         21.33497       32.629618      21541.725      3720.2134      5933.1746      5990.4954     -648.26337      1568.3693     -265.37416    
  95866000   252.05575     -414.00109     -329.58433     -413.99938      0              5429.3725      30.944         21.33497       32.73661       21612.36       4994.6501      5331.6891      5961.7782     -587.70966      937.88695     -1.697256     
  95868000   256.30344     -412.51021     -326.67084     -412.50851      0              5742.1504      30.944         21.33497       32.46463       21432.802      6190.3426      4640.2397      6395.8691     -1476.5592      509.30482      732.19869    
  95870000   250.35348     -412.70604     -328.8594      -412.7037       0              6544.1842      30.944         21.33497       32.315739      21334.505      5330.5218      8036.5327      6265.498      -815.42332      481.15234     -422.34356    
  95872000   254.94115     -414.89883     -329.51571     -414.89714      0              7248.2089      30.944         21.33497       32.356298      21361.282      8876.4646      4789.4551      8078.707       345.83417     -313.37806     -656.44156    
  95874000   254.00699     -416.33476     -331.26451     -416.33321      0              6597.3607      30.944         21.33497       32.536712      21480.39       7650.9977      5873.939       6267.1453     -1494.7703     -399.13522      1053.48      
  95876000   252.4182      -409.6556      -325.11746     -409.6525       0              5962.0302      30.944         21.33497       32.681315      21575.855      6048.4435      5863.9672      5973.6798     -1323.1073      56.038032     -1272.8278    
  95878000   254.68944     -412.49447     -327.19566     -412.49256      0              6471.1674      30.944         21.33497       32.714981      21598.081      4693.35        6833.461       7886.6911      1915.1109      1032.2272     -1535.64      
  95880000   251.6108      -412.62204     -328.35431     -412.62114      0              4907.2707      30.944         21.33497       32.615688      21532.528      5411.9508      5202.6165      4107.2449      1278.8199     -1763.4773     -921.02559    
  95882000   258.86857     -413.16005     -326.46159     -413.15848      0              4115.0655      30.944         21.33497       32.669719      21568.2        5592.9846      3107.7029      3644.5089     -1155.488      -978.84246      667.58168    
  95884000   258.42308     -412.74679     -326.19753     -412.7436       0              3533.8831      30.944         21.33497       32.733713      21610.447      4594.9365      3246.4109      2760.3018     -161.54563      766.24229     -304.06625    
  95886000   256.58499     -412.8953      -326.96164     -412.89436      0              7731.4163      30.944         21.33497       32.570695      21502.825      7845.7373      7218.5306      8129.9811     -438.82586     -654.03217      1290.6104    
  95888000   244.43589     -414.27161     -332.40685     -414.2697       0              6526.8672      30.944         21.33497       32.456826      21427.65       7815.9071      7657.5434      4107.151      -126.61908     -1286.267      -515.05247    
  95890000   244.52535     -412.50873     -330.61401     -412.50715      0              6462.765       30.944         21.33497       32.451547      21424.164      4875.5034      8370.0217      6142.7699      1655.9437     -1452.4946     -503.08346    
  95892000   258.30614     -413.39486     -326.88477     -413.39298      0              7201.2574      30.944         21.33497       32.63357       21544.334      6141.7741      9839.7997      5622.1984      526.34388     -351.9595      -353.03798    
  95894000   249.84176     -411.39103     -327.71577     -411.38758      0              5932.565       30.944         21.33497       32.487646      21447.997      5844.5906      5355.2123      6597.8921      452.3723       1142.7073     -829.77117    
  95896000   256.42266     -412.68022     -326.80093     -412.679        0              7153.8803      30.944         21.33497       32.492451      21451.169      7437.7103      6224.721       7799.2097      675.89599      3.8695554      567.972      
  95898000   252.93129     -410.9624      -326.25241     -410.95955      0              4239.0886      30.944         21.33497       32.531133      21476.707      1709.9397      3635.9873      7371.3388     -12.637365     -748.08089      597.71108    
  95900000   243.04937     -414.04018     -332.63978     -414.03936      0              6443.272       30.944         21.33497       32.507609      21461.176      5256.9633      6597.3187      7475.5341     -286.38097     -364.93081      406.2894     
  95902000   258.81285     -412.1372      -325.4574      -412.13575      0              7451.4719      30.944         21.33497       32.541022      21483.235      6342.363       8211.8459      7800.2068      257.12431      556.15028      612.19015    
  95904000   254.99646     -413.12038     -327.71874     -413.11949      0              5791.4355      30.944         21.33497       32.715786      21598.612      4735.3955      3829.4587      8809.4524      485.30364     -868.97061     -268.98858    
  95906000   254.22654     -413.27576     -328.13198     -413.27292      0              4531.728       30.944         21.33497       32.697498      21586.539      6788.4258      3344.7199      3462.0385      1733.0978      786.35076      43.090228    
  95908000   261.85672     -414.29943     -326.6002      -414.298        0              7435.6457      30.944         21.33497       32.537115      21480.655      5594.4339      9194.3965      7518.1066     -473.2843      -90.854556     -2042.3985    
  95910000   257.3362      -413.7603      -327.57505     -413.75949      0              4692.8662      30.944         21.33497       32.663015      21563.774      5357.3268      2989.7353      5731.5366     -1873.3905      444.64359     -253.05822    
  95912000   258.33329     -414.10773     -327.58854     -414.10694      0              7672.1722      30.944         21.33497       32.656056      21559.179      8613.3796      6451.394       7951.7429     -1727.1935      271.21295     -268.5443     
  95914000   249.76379     -409.48292     -325.83377     -409.48013      0              5951.1614      30.944         21.33497       32.828724      21673.173      5127.9049      6253.9749      6471.6042     -892.61038     -4.746234       371.15266    
  95916000   256.81104     -410.75963     -324.75027     -410.75626      0              4860.1456      30.944         21.33497       32.682892      21576.896      6475.8474      3422.9738      4681.6155     -821.23178      200.37264      37.132666    
  95918000   255.2146      -412.80771     -327.33302     -412.80693      0              6732.9737      30.944         21.33497       32.618368      21534.298      4638.6326      7605.0603      7955.2282      1295.3694      1031.1736     -406.42415    
  95920000   255.47265     -415.3604      -329.79928     -415.35909      0              3299.9968      30.944         21.33497       32.818523      21666.438      2359.2689      3949.2236      3591.4981     -994.67781      1608.7528      1266.9916    
  95922000   251.3626      -413.93213     -329.74752     -413.93122      0              6821.644       30.944         21.33497       32.692418      21583.185      5941.1845      7383.6195      7140.1282     -1432.0323     -1061.6061      1154.035     
  95924000   249.0109      -412.61031     -329.21331     -412.60862      0              5905.6771      30.944         21.33497       32.683147      21577.064      5542.1889      5417.0747      6757.7678     -2072.0936      418.18333     -678.6968     
  95926000   261.98467     -415.21307     -327.47099     -415.21084      0              5664.1884      30.944         21.33497       32.667782      21566.92       5156.9649      6083.0298      5752.5706     -550.2167       528.11845      1602.8005    
  95928000   262.23903     -412.70602     -324.87875     -412.70496      0              4093.0832      30.944         21.33497       32.62495       21538.644      3318.9165      4103.392       4856.9411      1081.554       683.6527       829.90839    
  95930000   266.08206     -412.72134     -323.60699     -412.71997      0              3985.5188      30.944         21.33497       32.616266      21532.91       3937.3465      3163.6402      4855.5697     -335.35796     -1114.123       824.34196    
  95932000   254.40398     -410.97224     -325.76903     -410.97132      0              7762.7575      30.944         21.33497       32.425362      21406.877      6487.995       7323.8614      9476.416       559.78743      1211.6845      1151.4802    
  95934000   253.15326     -413.72697     -328.94265     -413.72499      0              5349.6718      30.944         21.33497       32.459656      21429.518      3714.9346      6894.0427      5440.0382      961.4477       761.16666      863.43834    
  95936000   256.45279     -409.77314     -323.88376     -409.77041      0              6768.9747      30.944         21.33497       32.596693      21519.988      7163.2212      6730.9988      6412.7042      461.71962      945.99521      573.38949    
  95938000   253.51078     -412.71064     -327.80657     -412.70983      0              4734.0977      30.944         21.33497       32.437672      21415.004      5525.9102      4635.9848      4040.398       2502.5367      378.84253     -869.18701    
  95940000   262.16332     -414.74118     -326.93927     -414.73974      0              6565.0941      30.944         21.33497       32.413314      21398.923      6183.6255      6073.3393      7438.3174      800.48552      593.78992      95.869149    
  95942000   252.1172      -411.08434     -326.647       -411.08267      0              6315.6582      30.944         21.33497       32.355028      21360.443      6514.1697      5132.0768      7300.7281     -1520.0639      632.84894      788.6766     
  95944000   244.89594     -410.6738      -328.65496     -410.67148      0              5925.3634      30.944         21.33497       32.481473      21443.921      6081.2576      4667.4619      7027.3708      815.51596      2090.2547      1361.63      
  95946000   246.92582     -411.35214     -328.65346     -411.35069      0              7792.9025      30.944         21.33497       32.395712      21387.303      7829.8064      7159.0946      8389.8067     -1194.5668      609.01636     -203.78536    
  95948000   259.51458     -410.90019     -323.98538     -410.89865      0              8511.2102      30.944         21.33497       32.267047      21302.36       8538.7467      7461.0688      9533.815      -1014.0367      1142.1045     -2421.2382    
  95950000   258.95739     -414.79472     -328.06651     -414.79327      0              7453.1745      30.944         21.33497       32.37479       21373.49       6859.5927      7369.9156      8130.0151     -87.66808       363.1578      -760.69648    
  95952000   258.73135     -410.86106     -324.20856     -410.86006      0              5474.8883      30.944         21.33497       32.583054      21510.984      6519.7861      4665.494       5239.385       232.67901      788.15395      1611.0087    
  95954000   248.94787     -414.02081     -330.64493     -414.01732      0              5577.5786      30.944         21.33497       32.515521      21466.4        7327.3345      4807.8764      4597.5248     -1465.0286      1443.2517      1335.3283    
  95956000   252.87559     -414.2439      -329.55257     -414.24247      0              6932.323       30.944         21.33497       32.364699      21366.828      4799.2636      7601.855       8395.8504     -522.01449     -11.477719     -1270.8282    
  95958000   254.2516      -411.37387     -326.22169     -411.37223      0              5599.0027      30.944         21.33497       32.525177      21472.774      4224.7263      7553.5531      5018.7287     -995.91076     -217.26829      556.22253    
  95960000   256.81294     -412.41495     -326.40495     -412.41418      0              5869.0136      30.944         21.33497       32.452071      21424.51       7521.243       6195.5663      3890.2315     -1547.011      -1582.2801     -1749.745     
  95962000   253.03177     -412.32468     -327.58104     -412.32214      0              6215.1668      30.944         21.33497       32.493743      21452.022      6721.3889      6659.9525      5264.1589      7.4834175      657.56644      158.03038    
  95964000   257.76285     -412.5482      -326.22006     -412.54674      0              3992.3238      30.944         21.33497       32.530593      21476.35       4604.5653      3889.097       3483.3091     -785.83236     -531.41026      2663.7758    
  95966000   252.78041     -411.75706     -327.0976      -411.7556       0              6140.8037      30.944         21.33497       32.365594      21367.419      4707.5319      5539.8972      8174.9819     -324.45064     -1.0466803      1340.4007    
  95968000   254.52318     -412.21115     -326.96802     -412.20768      0              6979.6779      30.944         21.33497       32.283985      21313.542      6301.7752      5808.717       8828.5415     -267.75024      416.63057      1086.4475    
  95970000   255.17314     -412.94214     -327.48133     -412.93995      0              6700.1485      30.944         21.33497       32.436947      21414.526      7178.3432      6307.8073      6614.2949      842.17367      1431.6434      521.77863    
  95972000   254.80574     -415.05616     -329.7184      -415.05391      0              5917.4838      30.944         21.33497       32.267272      21302.508      5107.8114      5468.0723      7176.5678      1986.4232     -1038.1681     -738.66614    
  95974000   258.12678     -412.09747     -325.64745     -412.09492      0              5029.8016      30.944         21.33497       32.571417      21503.301      4732.0489      6520.432       3836.9238     -52.774422     -263.76812     -1049.0047    
  95976000   256.61729     -411.42859     -325.48411     -411.42656      0              7443.65        30.944         21.33497       32.445567      21420.217      8040.7537      7567.9068      6722.2895     -458.49322     -120.50029     -317.23094    
  95978000   251.30416     -414.31558     -330.15055     -414.31436      0              5797.5458      30.944         21.33497       32.432836      21411.812      5764.4182      6533.2742      5094.945       545.51488     -947.26302      965.97815    
  95980000   260.26415     -411.20345     -324.03759     -411.2021       0              5448.384       30.944         21.33497       32.532334      21477.499      5119.899       5799.0255      5426.2276     -1111.6842      568.34398     -572.25746    
  95982000   251.15928     -414.66903     -330.55251     -414.66635      0              5728.3925      30.944         21.33497       32.384008      21379.576      6927.1788      7001.2687      3256.73        1092.3557     -406.68429     -1212.5309    
  95984000   252.24213     -414.19479     -329.71561     -414.19378      0              6420.1293      30.944         21.33497       32.455948      21427.07       7541.5598      6389.7072      5329.121      -65.114886     -982.46178      380.50895    
  95986000   258.96044     -414.33335     -327.60412     -414.33178      0              5968.8162      30.944         21.33497       32.474335      21439.209      6642.234       5624.9452      5639.2694     -177.255       -449.68734     -1344.4174    
  95988000   252.58353     -412.61969     -328.02618     -412.61668      0              6396.9356      30.944         21.33497       32.45572       21426.92       6298.4382      6518.4566      6373.912       170.75834      182.13223     -96.102302    
  95990000   260.0521      -414.92504     -327.83021     -414.92331      0              5880.2799      30.944         21.33497       32.508014      21461.444      5903.3073      6854.5061      4883.0263     -1144.9219     -623.29403      795.27717    
  95992000   257.45911     -412.36647     -326.14006     -412.36525      0              7542.4312      30.944         21.33497       32.519767      21469.203      6448.0132      9138.5157      7040.7646      713.28406      1288.5275      394.43419    
  95994000   253.60775     -411.77777     -326.84123     -411.77646      0              6530.8661      30.944         21.33497       32.484376      21445.838      6875.5136      5446.3075      7270.7771      763.05165     -977.64752      567.01134    
  95996000   252.84903     -410.72011     -326.03767     -410.71861      0              7108.5679      30.944         21.33497       32.431391      21410.858      5821.5568      8086.6293      7417.5177      51.789994     -1938.2602      579.10705    
  95998000   252.30704     -413.72027     -329.21935     -413.7168       0              6612.1066      30.944         21.33497       32.50167       21457.255      6804.9778      6615.5643      6415.7777     -182.90376     -686.27477     -740.36685    
  96000000   248.7826      -412.29936     -328.97883     -412.29839      0              5764.2806      30.944         21.33497       32.527037      21474.002      4883.4406      6962.5787      5446.8227      498.92412     -1303.5355     -1360.8645    
  96002000   254.85703     -414.39384     -329.0389      -414.3906       0              5308.998       30.944         21.33497       32.651819      21556.382      3326.0171      5585.7013      7015.2756     -1206.8212      543.12277      397.66061    
  96004000   254.43359     -412.53907     -327.32594     -412.53643      0              3810.4063      30.944         21.33497       32.728338      21606.899      3907.4974      4172.9785      3350.743      -392.32997      333.04303     -357.3869     
  96006000   251.98637     -414.79003     -330.39651     -414.78756      0              5272.673       30.944         21.33497       32.504737      21459.28       6288.8642      6057.5662      3471.5885     -719.34939     -330.28189     -1129.287     
  96008000   256.01628     -413.11662     -327.37343     -413.11507      0              8192.1651      30.944         21.33497       32.257061      21295.767      8293.6817      7984.3833      8298.4304     -636.47524      1798.571      -56.635102    
  96010000   257.43734     -411.11038     -324.89126     -411.1079       0              4654.798       30.944         21.33497       32.295432      21321.099      5855.9786      2753.6614      5354.7539     -961.68039      1551.967      -416.49662    
  96012000   251.34539     -414.10378     -329.92494     -414.10034      0              8027.596       30.944         21.33497       32.239302      21284.043      8153.9984      8188.572       7740.2176      1414.105       267.11354     -136.52303    
  96014000   251.40089     -413.86669     -329.66926     -413.86406      0              5387.9646      30.944         21.33497       32.503498      21458.462      6203.4753      5038.393       4922.0256     -459.34747      353.64998     -583.23054    
  96016000   254.21757     -415.20127     -330.06049     -415.19851      0              7139.4189      30.944         21.33497       32.494203      21452.326      7730.5293      6783.0817      6904.6459     -1334.336      -363.4295      -981.27794    
  96018000   258.88692     -414.21214     -327.50754     -414.21072      0              4921.3085      30.944         21.33497       32.590921      21516.178      5805.1291      3519.6463      5439.1501     -1056.5629      619.85779     -46.714188    
  96020000   250.79827     -415.73655     -331.74094     -415.7341       0              5534.888       30.944         21.33497       32.310486      21331.038      6258.3564      5783.2981      4563.0096      1217.8623     -81.769336     -638.92491    
  96022000   256.23976     -412.95248     -327.13445     -412.9515       0              5984.9355      30.944         21.33497       32.422038      21404.683      6395.6356      5378.93        6180.2409     -671.08617     -446.09052      1771.6543    
  96024000   258.44456     -413.1417      -326.58525     -413.13991      0              7618.1856      30.944         21.33497       32.397148      21388.251      7964.1663      5666.3789      9224.0116     -102.71711      436.03751      322.46173    
  96026000   251.59342     -411.54864     -327.28672     -411.54744      0              8318.3784      30.944         21.33497       32.314279      21333.542      7559.5524      8853.3283      8542.2544     -1082.6234     -1593.3705      551.59322    
  96028000   254.66176     -413.61235     -328.32281     -413.61071      0              5689.904       30.944         21.33497       32.396614      21387.899      7085.304       4252.3522      5732.0557     -318.22753     -867.53385      494.83603    
  96030000   253.68722     -414.2792      -329.31604     -414.27735      0              6552.6392      30.944         21.33497       32.557223      21493.93       4833.5956      6180.1365      8644.1854     -69.091182     -42.100823      1480.182     
  96032000   251.13933     -413.93336     -329.82353     -413.93106      0              6568.2421      30.944         21.33497       32.390076      21383.582      7334.6702      5180.4083      7189.6478      526.16015      1093.3413      949.59621    
  96034000   249.09281     -414.74087     -331.31644     -414.73843      0              7478.3037      30.944         21.33497       32.438594      21415.613      8991.1426      7046.4473      6397.3211     -283.97049     -721.60664     -1730.5308    
  96036000   259.92906     -414.69099     -327.63736     -414.68814      0              6558.0399      30.944         21.33497       32.456356      21427.339      7132.5234      4955.9626      7585.6338     -111.54952     -508.06999     -341.23311    
  96038000   250.37182     -416.36867     -332.51588     -416.36586      0              7276.664       30.944         21.33497       32.428846      21409.177      7671.3293      7012.9526      7145.7101     -406.97601      948.50169      58.202085    
  96040000   253.28024     -413.20357     -328.37671     -413.20114      0              5097.2907      30.944         21.33497       32.487311      21447.775      4551.2263      7514.857       3225.789      -2794.9175      837.02167      677.94317    
  96042000   254.27636     -413.2233      -328.06283     -413.22191      0              5501.487       30.944         21.33497       32.683216      21577.11       6554.444       4278.5148      5671.5021     -284.01889     -651.04151      399.98534    
  96044000   256.30301     -413.90907     -328.06985     -413.90744      0              7549.966       30.944         21.33497       32.664418      21564.7        6345.2056      8405.5132      7899.1793     -1475.3258      17.625252     -660.49194    
  96046000   248.86488     -411.84798     -328.49989     -411.84661      0              4956.6335      30.944         21.33497       32.432224      21411.408      3687.2015      6829.8905      4352.8085      1291.469      -1020.6108     -347.888      
  96048000   255.06948     -414.54379     -329.1177      -414.54118      0              7236.2287      30.944         21.33497       32.378239      21375.767      6354.2818      7701.9982      7652.406      -1777.4318      1737.9017      333.98885    
  96050000   253.31339     -412.18824     -327.35029     -412.18527      0              6005.7082      30.944         21.33497       32.132967      21213.841      8007.0578      4891.7647      5118.3021     -588.30743      1285.2897     -2115.7644    
  96052000   248.81649     -413.94484     -330.61296     -413.94273      0              7587.176       30.944         21.33497       32.308064      21329.439      7977.7661      6811.3247      7972.4371     -1826.8865     -853.53923      514.84521    
  96054000   253.08824     -414.04289     -329.28034     -414.04118      0              7074.4985      30.944         21.33497       32.50237       21457.717      6773.3372      7444.1519      7006.0063     -547.61429     -817.89932     -377.19435    
  96056000   250.40413     -415.84556     -331.98195     -415.84371      0              6970.1834      30.944         21.33497       32.446813      21421.039      5485.4668      8065.1824      7359.9011      190.16606      752.48529     -728.81217    
  96058000   252.81125     -419.10697     -334.43718     -419.10388      0              7788.7506      30.944         21.33497       32.307052      21328.77       7728.4389      7803.7404      7834.0725     -1262.395      -1764.2742     -211.59477    
  96060000   255.4403      -414.19286     -328.64257     -414.1914       0              4423.0405      30.944         21.33497       32.439336      21416.103      5111.8456      4778.25        3379.026      -2218.1208      662.6838      -665.80228    
  96062000   253.05161     -416.09336     -331.34308     -416.09166      0              7245.8105      30.944         21.33497       32.310388      21330.973      7574.7689      7606.0897      6556.5728     -1303.5789      1012.2359      885.50978    
  96064000   253.0762      -413.68565     -328.92713     -413.68471      0              6719.282       30.944         21.33497       32.265734      21301.493      5565.5366      5869.19        8723.1194      899.27497     -1280.206      -654.88691    
  96066000   253.71755     -413.921       -328.94768     -413.91935      0              8559.5156      30.944         21.33497       32.286676      21315.319      8093.3973      11114.772      6470.378       554.27191      492.49741      837.54875    
  96068000   261.31859     -413.27157     -325.75256     -413.27047      0              5319.0466      30.944         21.33497       32.405888      21394.021      5325.5871      4150.6628      6480.8898      441.36235     -1106.62        1046.8096    
  96070000   248.06777     -415.2751      -332.19397     -415.27286      0              5131.8435      30.944         21.33497       32.418342      21402.243      5494.1174      5417.4229      4483.9902     -755.15969     -924.30632     -633.72206    
  96072000   255.05568     -415.07721     -329.65574     -415.07607      0              6195.8575      30.944         21.33497       32.509626      21462.507      7120.0889      5378.9252      6088.5585      4.324229       1115.64       -1898.6766    
  96074000   253.49372     -417.47608     -332.57772     -417.4735       0              6568.6055      30.944         21.33497       32.413754      21399.214      5963.8123      8674.9973      5067.0069     -1146.666       625.05836      799.56397    
  96076000   256.8418      -416.52427     -330.5046      -416.52085      0              7095.4349      30.944         21.33497       32.473343      21438.554      6222.9044      6162.9095      8900.4907     -280.53959     -377.19529      70.320446    
  96078000   253.93464     -413.84272     -328.7967      -413.84134      0              6659.0327      30.944         21.33497       32.586018      21512.941      7329.4796      7665.841       4981.7775      828.36311     -2550.0958      1113.9205    
  96080000   255.11457     -415.06969     -329.6285      -415.06808      0              7344.3088      30.944         21.33497       32.6324        21543.562      5994.6742      8531.3415      7506.9109     -360.24867     -68.269641     -939.51982    
  96082000   246.0962      -414.17803     -331.75721     -414.17557      0              5679.0873      30.944         21.33497       32.632557      21543.666      6489.2735      4110.641       6437.3474     -176.96228     -1085.8897      39.248553    
  96084000   244.05094     -417.0007      -335.26486     -416.99877      0              5290.7107      30.944         21.33497       32.602585      21523.878      6737.106       5062.9959      4072.0302     -1536.4087     -110.43733     -565.30914    
  96086000   254.26838     -414.4298      -329.272       -414.427        0              5541.5269      30.944         21.33497       32.400445      21390.427      4396.9544      6634.8526      5592.7735     -393.99455     -382.75857      1076.0606    
  96088000   255.52041     -414.6663      -329.08919     -414.66482      0              6660.0487      30.944         21.33497       32.361858      21364.953      8822.7085      4759.6695      6397.7683     -1440.048      -88.856239      1736.9585    
  96090000   243.88586     -411.25365     -329.5731      -411.25205      0              6727.878       30.944         21.33497       32.432053      21411.295      7352.2916      6717.2055      6114.137      -433.00073      622.2318       594.99972    
  96092000   257.41848     -416.52222     -330.30941     -416.52004      0              5975.6526      30.944         21.33497       32.423114      21405.393      3622.8063      6093.8544      8210.2972      656.13008      1685.3957      813.87142    
  96094000   257.85873     -412.8693      -326.50905     -412.86818      0              6521.6768      30.944         21.33497       32.335514      21347.561      6758.9985      6760.3813      6045.6506     -1326.7803      598.42372     -1331.5481    
  96096000   258.46768     -412.01585     -325.45165     -412.0164       0              8712.6025      30.944         21.33497       32.339846      21350.421      10327.317      7259.1563      8551.3342     -1154.6495     -1333.7215      1058.1132    
  96098000   247.60701     -416.21787     -333.29106     -416.21832      0              7991.2079      30.944         21.33497       32.468465      21435.334      9248.0994      7148.62        7576.9043      1780.4542     -1174.728       1003.5196    
  96100000   256.48611     -417.73509     -331.83455     -417.736        0              6450.9882      30.944         21.33497       32.496136      21453.602      7841.6175      5307.1209      6204.2262     -450.06555     -642.7405      -408.2882     
  96102000   258.29992     -413.98301     -327.475       -413.98073      0              6922.9998      30.944         21.33497       32.392327      21385.068      8303.9221      7132.0563      5333.0211     -1139.3908     -2624.5095      1690.9404    
  96104000   258.85389     -412.21639     -325.52285     -412.21385      0              6675.0461      30.944         21.33497       32.565012      21499.073      6974.2118      6766.0266      6284.8998      242.2034       302.86079     -171.72598    
  96106000   250.99704     -411.94555     -327.88337     -411.943        0              5675.3022      30.944         21.33497       32.544117      21485.278      7011.1258      6388.5784      3626.2024      671.91066      262.3233      -1287.1094    
  96108000   255.81654     -412.26183     -326.58553     -412.2591       0              6778.5888      30.944         21.33497       32.525109      21472.729      7406.103       7713.9337      5215.7297     -515.67432      270.81378      2195.7427    
  96110000   258.25729     -413.70209     -327.20835     -413.69977      0              6282.858       30.944         21.33497       32.533083      21477.994      5087.3051      5648.7849      8112.484      -692.66141     -828.61666      6.4723211    
  96112000   250.37807     -415.24476     -331.38988     -415.24274      0              4660.6413      30.944         21.33497       32.529022      21475.313      5923.8966      3295.5544      4762.4729      61.186967     -232.5406       256.55014    
  96114000   253.83976     -413.83336     -328.81912     -413.83184      0              7129.8765      30.944         21.33497       32.565909      21499.665      4743.9754      7090.2623      9555.3916      495.46919     -516.68991      1876.6314    
  96116000   257.17271     -415.40459     -329.27409     -415.40201      0              5996.9442      30.944         21.33497       32.515453      21466.354      6722.1605      7055.9853      4212.6869      334.25522     -26.38463      -129.69483    
  96118000   254.14144     -413.79709     -328.68181     -413.79467      0              5015.2785      30.944         21.33497       32.491457      21450.513      4155.6347      5832.4123      5057.7885      119.16279     -867.08708      763.9665     
  96120000   247.11596     -414.34772     -331.58536     -414.34668      0              7028.9357      30.944         21.33497       32.653642      21557.585      5669.531       8597.6497      6819.6264      1335.4236     -791.05188     -927.64754    
  96122000   252.47141     -415.54618     -330.99021     -415.54514      0              5235.6382      30.944         21.33497       32.640886      21549.164      6664.6029      4073.1073      4969.2044      1101.2751     -1995.8341      152.96156    
  96124000   260.03716     -414.06323     -326.97339     -414.06125      0              5171.6427      30.944         21.33497       32.610223      21528.921      5839.9482      5060.9797      4614.0002     -133.9173       890.11577     -1006.2177    
  96126000   250.72973     -417.21648     -333.24383     -417.21445      0              8298.1775      30.944         21.33497       32.464751      21432.881      6696.6464      8036.2062      10161.68      -259.48537     -91.276942      720.21925    
  96128000   261.17666     -416.05451     -328.58304     -416.05851      0              6601.8853      30.944         21.33497       32.536824      21480.464      6744.6538      6051.6677      7009.3343     -751.00475     -50.394256     -2165.7519    
  96130000   248.23725     -414.10333     -330.96544     -414.10637      0              6070.8565      30.944         21.33497       32.683133      21577.055      7357.6788      6753.0332      4101.8576      1018.633       1399.9334      1103.5131    
  96132000   257.99344     -415.22728     -328.82192     -415.23205      0              4889.1984      30.944         21.33497       32.618988      21534.707      6512.7018      4466.3101      3688.5835     -480.12018      7.8699854     -981.80728    
  96134000   251.65237     -416.63505     -332.35339     -416.63682      0              5116.3943      30.944         21.33497       32.569506      21502.04       5268.1426      3983.8286      6097.2118     -1392.3802      1274.8054      2518.464     
  96136000   250.43284     -416.74223     -332.86901     -416.73984      0              5801.7674      30.944         21.33497       32.510182      21462.875      6873.0565      6282.9477      4249.2981      839.39045     -1140.3777     -575.45678    
  96138000   260.21518     -417.11428     -329.96483     -417.11781      0              6250.3939      30.944         21.33497       32.348907      21356.402      6113.0738      5907.9329      6730.175      -893.68558      183.63608      735.30915    
  96140000   254.06828     -410.48374     -325.39296     -410.48159      0              6349.9135      30.944         21.33497       32.653219      21557.306      6050.4667      5240.2592      7759.0148      1025.147       1137.4963     -33.798909    
  96142000   250.11307     -415.76962     -332.0035      -415.76739      0              5890.8641      30.944         21.33497       32.654794      21558.346      6459.2034      5755.6431      5457.7459     -174.93478      176.23564      42.937909    
  96144000   256.80516     -416.4145      -330.4071      -416.41247      0              6646.9179      30.944         21.33497       32.839093      21680.018      6668.4016      7916.7574      5355.5946     -1320.7249      204.61979      1274.9343    
  96146000   259.54553     -415.39001     -328.46483     -415.38818      0              5938.4397      30.944         21.33497       32.716782      21599.27       5667.3441      6007.5181      6140.4571      1089.0862     -542.72084      172.29864    
  96148000   263.66172     -415.98919     -327.68544     -415.9864       0              5869.7056      30.944         21.33497       32.841911      21681.879      6943.2654      4448.0786      6217.7729      61.088583      272.63583      1533.405     
  96150000   255.10712     -414.00988     -328.57118     -414.00733      0              5079.0946      30.944         21.33497       32.901727      21721.368      4222.7916      5351.1302      5663.3619     -257.50817      215.68144     -423.80485    
  96152000   264.18028     -412.03262     -323.5552      -412.02994      0              4856.8946      30.944         21.33497       32.602839      21524.046      3079.8729      6132.7798      5358.0309      1046.9806      58.911408     -436.64141    
  96154000   255.01892     -411.66492     -326.25576     -411.66295      0              6694.1673      30.944         21.33497       32.485892      21446.839      5041.4746      7569.4548      7471.5724      9.7907224     -482.56147      170.53306    
  96156000   256.81322     -413.02966     -327.01956     -413.02765      0              7161.2625      30.944         21.33497       32.556886      21493.708      6422.9345      8707.5569      6353.2962      989.74951      82.865284      987.77721    
  96158000   253.07135     -413.26184     -328.50495     -413.2587       0              5609.2152      30.944         21.33497       32.555324      21492.677      5819.9418      5157.7383      5849.9654      1262.4596      1022.6568     -942.52949    
  96160000   256.27263     -414.38327     -328.55423     -414.38077      0              7881.4358      30.944         21.33497       32.596158      21519.635      7278.7192      9052.7819      7312.8062     -1754.564       1313.4973      776.21268    
  96162000   252.80983     -414.36604     -329.69673     -414.36347      0              5211.9543      30.944         21.33497       32.648472      21554.172      5947.033       3988.5478      5700.282       747.83611      625.2252       1434.2806    
  96164000   249.85556     -412.8034      -329.12351     -412.8007       0              5356.3514      30.944         21.33497       32.672043      21569.733      5581.3142      6073.7057      4414.0344      428.63693     -325.38273     -1010.3533    
  96166000   250.71384     -416.36547     -332.39813     -416.36257      0              6823.6527      30.944         21.33497       32.64234       21550.124      5226.5318      7714.4625      7529.9637      2254.2086     -14.887778      1629.3371    
  96168000   253.9827      -416.52733     -331.46521     -416.52497      0              4938.2897      30.944         21.33497       32.57523       21505.818      3665.1163      6362.5177      4787.2353     -1527.7418     -421.40444      1824.8675    
  96170000   259.2176      -415.08808     -328.27272     -415.08624      0              6835.1438      30.944         21.33497       32.67107       21569.091      7138.3058      6132.5334      7234.5922      563.34787     -191.43069      183.37341    
  96172000   256.77584     -417.34869     -331.35111     -417.3527       0              5574.1358      30.944         21.33497       32.526223      21473.464      4250.6063      4784.3194      7687.4817      432.75544      894.76263      462.15289    
  96174000   254.73863     -416.58306     -331.26777     -416.58114      0              4393.474       30.944         21.33497       32.738844      21613.835      3113.3066      3824.4723      6242.6431      616.88824     -51.924193      1127.0836    
  96176000   258.90456     -413.35737     -326.64685     -413.35533      0              6152.6296      30.944         21.33497       32.745229      21618.05       4289.7549      6182.4088      7985.7252      1825.5244     -0.20375649     112.75833    
  96178000   249.93116     -415.88739     -332.18219     -415.88489      0              5939.1252      30.944         21.33497       32.568411      21501.317      3353.973       8002.1636      6461.2389      580.69469      1726.8169      934.51144    
  96180000   251.80044     -414.40639     -330.07514     -414.40307      0              5522.6798      30.944         21.33497       32.797886      21652.814      6327.7433      5592.0802      4648.2159     -2014.1532     -2028.0339     -148.56313    
  96182000   250.13727     -415.88584     -332.1116      -415.88376      0              8611.9082      30.944         21.33497       32.791385      21648.522      9029.3639      8929.2015      7877.1592      48.287375      996.10246      1515.8842    
  96184000   256.29085     -412.88872     -327.05358     -412.88647      0              5937.9494      30.944         21.33497       32.774032      21637.066      7642.041       5433.2569      4738.5502     -375.22471      740.66427     -734.45057    
  96186000   256.08939     -411.82204     -326.05437     -411.8197       0              4674.842       30.944         21.33497       32.803159      21656.295      3906.7704      5077.9647      5039.7909      804.37419      315.03933      904.45105    
  96188000   251.97515     -413.85492     -329.46516     -413.85355      0              5993.6572      30.944         21.33497       32.763564      21630.155      8722.5024      5207.3722      4051.0971      637.41964      115.8648       1097.9671    
  96190000   253.2092      -413.35383     -328.55077     -413.35117      0              6908.9838      30.944         21.33497       32.658296      21560.658      8305.2329      6063.3642      6358.3543      196.15974      393.52627      551.51898    
  96192000   249.19017     -413.41036     -329.95332     -413.40823      0              6369.9974      30.944         21.33497       32.504244      21458.955      7078.371       8621.3623      3410.2589     -887.10609     -463.88374     -140.01842    
  96194000   256.79024     -412.40855     -326.40615     -412.40589      0              5707.8859      30.944         21.33497       32.652175      21556.617      5251.0549      4538.8576      7333.7451     -1754.686       1628.1167      1321.3368    
  96196000   254.01475     -415.24615     -330.1733      -415.2436       0              5585.1507      30.944         21.33497       32.51215       21464.174      5224.3061      5984.9541      5546.1919      56.550014     -86.579991     -1498.1673    
  96198000   255.24727     -415.17659     -329.69095     -415.1806       0              7479.6571      30.944         21.33497       32.425342      21406.864      8363.6285      6528.717       7546.6259     -706.92052      996.40132     -173.30045    
  96200000   251.60915     -415.38357     -331.11639     -415.38708      0              6698.0916      30.944         21.33497       32.446027      21420.52       7144.792       6528.577       6420.9058      1133.1759      2147.3082     -820.46128    
  96202000   261.70174     -416.08218     -328.43485     -416.08048      0              6586.7007      30.944         21.33497       32.577882      21507.569      7070.8631      5949.9373      6739.3016     -693.88713      707.35651      1407.0106    
  96204000   257.11446     -415.89725     -329.78626     -415.89531      0              8739.6922      30.944         21.33497       32.509832      21462.644      8212.0198      11125.849      6881.2077     -123.3809       256.89172      38.364941    
  96206000   257.9239      -415.43759     -329.05551     -415.4356       0              6045.8716      30.944         21.33497       32.643523      21550.905      6098.3316      5244.0838      6795.1993     -184.6065       682.51307      99.06766     
  96208000   254.43105     -413.76437     -328.5521      -413.76131      0              7012.2954      30.944         21.33497       32.637324      21546.812      5650.9601      8123.1038      7262.8223      2558.3777     -818.70885      201.80431    
  96210000   245.15041     -413.47085     -331.36679     -413.4695       0              5642.9054      30.944         21.33497       32.764409      21630.712      5944.3118      5673.8244      5310.58        521.96159     -368.09245      435.25332    
  96212000   255.10191     -413.57522     -328.13826     -413.57255      0              6062.0092      30.944         21.33497       32.557285      21493.971      6912.3172      6581.7781      4691.9324     -2127.5793     -868.86952     -410.1343     
  96214000   259.34014     -416.4123      -329.5559      -416.41416      0              5003.2284      30.944         21.33497       32.747661      21619.656      5501.9681      4581.1706      4926.5464     -1954.2658      346.28689     -1796.7148    
  96216000   253.9564      -413.88587     -328.83257     -413.88374      0              4485.8707      30.944         21.33497       32.681046      21575.677      4674.2841      4885.8629      3897.4653     -291.1889      -916.72846      371.30241    
  96218000   250.437       -418.4133      -334.53869     -418.41135      0              6872.1413      30.944         21.33497       32.617902      21533.99       10010.346      5762.04        4844.0376      97.617851     -1432.5732     -330.97215    
  96220000   251.96937     -414.98419     -330.59636     -414.98225      0              8088.0096      30.944         21.33497       32.531756      21477.118      7734.3103      7083.2954      9446.4232     -1440.574       179.06986      138.51545    
  96222000   256.31627     -411.3168      -325.47314     -411.31413      0              6219.5731      30.944         21.33497       32.342419      21352.119      5510.8893      5841.4113      7306.4187      1101.8223      1132.5802     -409.80656    
  96224000   263.60599     -414.61381     -326.32872     -414.61783      0              7649.5318      30.944         21.33497       32.488118      21448.308      7217.0525      6619.2249      9112.3181      1787.057       49.876974      289.27866    
  96226000   253.47985     -411.96989     -327.07618     -411.96799      0              7405.961       30.944         21.33497       32.430227      21410.089      6992.4405      6960.7377      8264.7049      81.58841      -574.45018     -1713.8641    
  96228000   251.16542     -416.14451     -332.02594     -416.1429       0              7082.3042      30.944         21.33497       32.356641      21361.509      5579.7786      7032.8246      8634.3094      416.23423     -385.22917      606.87457    
  96230000   256.09148     -412.64376     -326.87539     -412.64614      0              6716.2732      30.944         21.33497       32.490371      21449.795      7816.0212      5556.9691      6775.8294     -358.86347      1532.0982      1407.3681    
  96232000   258.81181     -414.37516     -327.69571     -414.37804      0              7796.8555      30.944         21.33497       32.497763      21454.676      9063.0817      6570.481       7757.0038     -574.67957     -1711.7682      191.8487     
  96234000   255.06378     -411.98383     -326.55964     -411.98602      0              8601.0125      30.944         21.33497       32.411691      21397.852      8842.6689      9037.5729      7922.7956      80.457838      321.095       -455.84529    
  96236000   250.6005      -412.32676     -328.39738     -412.33076      0              7206.6871      30.944         21.33497       32.450681      21423.593      8840.788       7865.1735      4914.0997      2174.7471      101.55873     -161.40632    
  96238000   252.7551      -415.34252     -330.69154     -415.33996      0              6703.2034      30.944         21.33497       32.561952      21497.053      8619.1844      5664.3456      5826.0803      786.71786     -404.0142      -220.60722    
  96240000   259.53081     -415.29275     -328.3725      -415.29678      0              7015.5362      30.944         21.33497       32.502902      21458.069      6185.401       7548.6493      7312.5582      507.88203      227.34159     -1085.9131    
  96242000   258.63328     -414.08389     -327.46424     -414.0813       0              7328.1854      30.944         21.33497       32.616192      21532.861      8082.6468      7505.2999      6396.6097      769.10141      565.59219     -1842.0157    
  96244000   250.62783     -414.55523     -330.6167      -414.55901      0              5346.1973      30.944         21.33497       32.497159      21454.277      4168.3077      5884.9411      5985.3431      2168.2594      949.19695     -1158.4748    
  96246000   256.94944     -413.39814     -327.34242     -413.39631      0              6925.8662      30.944         21.33497       32.452461      21424.768      6622.7871      7484.5634      6670.2481     -1622.5962      1430.4367      95.249215    
  96248000   256.28761     -412.43879     -326.60473     -412.44283      0              6010.5855      30.944         21.33497       32.493262      21451.704      7103.6819      4828.2964      6099.7783      1025.6277      1813.2483     -578.81967    
  96250000   262.17243     -414.92404     -327.11908     -414.92441      0              6028.8901      30.944         21.33497       32.355275      21360.607      8411.2049      4618.5414      5056.9241      1467.6541      314.24494     -308.61245    
  96252000   252.03488     -412.70164     -328.29187     -412.69894      0              6315.1294      30.944         21.33497       32.517499      21467.705      7153.0837      6595.4843      5196.8201     -1321.9877      1067.5203      241.69523    
[...]
 102920000   256.95676     -415.27396     -329.21579     -415.27269      0              7636.0227      30.944         21.33497       32.696427      21585.832      6404.6302      9013.3421      7490.0959      1017.5063      14.345112      741.1424     
 102922000   249.62889     -414.31983     -330.71586     -414.3186       0              4143.0514      30.944         21.33497       32.600598      21522.566      4267.8664      3643.6177      4517.6701     -257.74898     -1321.9069     -168.56845    
 102924000   258.77321     -411.49596     -324.82943     -411.49502      0              4144.5796      30.944         21.33497       32.681607      21576.048      3749.423       4182.794       4501.5219     -607.33482      924.40745      1151.4799    
 102926000   250.9751      -413.11357     -329.05874     -413.11112      0              6080.3783      30.944         21.33497       32.849048      21686.591      5984.651       6966.2674      5290.2166      791.29008     -223.91322     -615.76702    
 102928000   247.94186     -416.02913     -332.99017     -416.02799      0              5563.5005      30.944         21.33497       32.630119      21542.055      6783.7842      4980.4605      4926.2569      973.14871     -364.8872      -1679.3383    
 102930000   254.31425     -414.31692     -329.14376     -414.31265      0              5953.9553      30.944         21.33497       32.593972      21518.192      7513.7238      6763.7936      3584.3485      75.409115     -535.25406     -272.79463    
 102932000   255.88858     -413.24499     -327.54457     -413.24353      0              5465.9809      30.944         21.33497       32.578993      21508.303      5675.8629      5279.47        5442.6098     -108.97502      119.82345     -257.22756    
 102934000   258.5612      -415.1327      -328.53719     -415.13161      0              6178.9986      30.944         21.33497       32.355156      21360.528      6992.5815      4580.852       6963.5623     -2192.1625     -63.853119      494.83525    
 102936000   256.24097     -412.68028     -326.86184     -412.67918      0              7428.0023      30.944         21.33497       32.402332      21391.673      9576.0414      6900.0044      5807.9612     -153.51258     -787.16756     -1144.6568    
 102938000   264.59671     -413.51861     -324.90172     -413.5166       0              5841.5772      30.944         21.33497       32.522895      21471.268      5968.5878      6123.6288      5432.515      -331.74376      1189.0058     -850.63661    
 102940000   254.79128     -416.85659     -331.52367     -416.85487      0              5783.7881      30.944         21.33497       32.676161      21572.452      4208.4561      5325.7378      7817.1703      68.941345     -965.04027     -1934.2645    
 102942000   247.55028     -414.25907     -331.35126     -414.25804      0              6518.3519      30.944         21.33497       32.785424      21644.586      6839.714       6458.295       6257.0466     -539.85246     -192.48574     -454.02798    
 102944000   255.76638     -415.1592      -329.4997      -415.15816      0              5279.2157      30.944         21.33497       32.733197      21610.107      4058.5668      4722.7104      7056.3699      593.81586     -308.88213      1326.3233    
 102946000   248.85092     -413.06138     -329.71796     -413.06011      0              6586.4158      30.944         21.33497       32.566371      21499.97       6905.1077      6151.3851      6702.7545     -1044.8091     -390.78195     -941.00628    
 102948000   250.30399     -412.33423     -328.50416     -412.33081      0              4073.872       30.944         21.33497       32.676059      21572.385      5201.0592      2607.8481      4412.7086     -59.068233     -521.28445     -1407.3735    
 102950000   258.36508     -413.89361     -327.36377     -413.89217      0              5995.521       30.944         21.33497       32.521235      21470.172      6419.3903      5289.724       6277.4488      1224.8838     -510.29049      611.35198    
 102952000   250.24742     -413.58447     -329.77335     -413.58362      0              5506.5681      30.944         21.33497       32.635782      21545.794      5998.5923      4470.703       6050.4091      1332.4516     -575.31004     -1080.2435    
 102954000   257.84184     -413.18402     -326.82943     -413.18301      0              5656.8699      30.944         21.33497       32.687115      21579.684      6092.0481      4743.3416      6135.2202     -1758.7242     -1303.5822      468.69028    
 102956000   255.03172     -413.98704     -328.57359     -413.98581      0              6153.2145      30.944         21.33497       32.707576      21593.192      5279.2586      7025.5588      6154.8262      340.29895     -690.45858      526.97565    
 102958000   252.41309     -417.11559     -332.57915     -417.1147       0              4808.7372      30.944         21.33497       32.65665       21559.571      4876.0293      3078.1502      6472.032      -1527.6187      697.91856      1555.3408    
 102960000   254.53957     -415.64156     -330.39294     -415.6403       0              4838.7721      30.944         21.33497       32.746748      21619.053      5036.4264      4235.6282      5244.2618     -345.67769     -241.72711     -200.6579     
 102962000   263.83352     -415.11504     -326.75375     -415.11375      0              6468.4497      30.944         21.33497       32.711517      21595.794      8234.1547      5439.1226      5732.0719     -72.752987      387.3555      -36.961646    
 102964000   252.08969     -412.28566     -327.85754     -412.28452      0              4649.7486      30.944         21.33497       32.558318      21494.653      3691.8299      3266.013       6991.4028     -706.65235      1090.5945     -607.24298    
 102966000   248.57182     -415.65969     -332.40975     -415.65846      0              6278.5047      30.944         21.33497       32.579729      21508.789      6489.2825      5978.413       6367.8186      1020.8258      595.64188     -271.25939    
 102968000   264.31521     -414.51022     -325.98761     -414.50939      0              7059.8608      30.944         21.33497       32.634467      21544.927      8642.1328      5678.9519      6858.4977     -160.18964      50.638009     -1472.7428    
 102970000   265.81235     -414.16069     -325.13667     -414.15988      0              5557.4062      30.944         21.33497       32.585789      21512.789      6723.7732      4635.339       5313.1065     -657.22724      908.883        496.68364    
 102972000   248.89078     -414.92583     -331.56907     -414.92488      0              6958.7893      30.944         21.33497       32.639943      21548.541      8300.1969      7177.0281      5399.1428      1762.2261      2272.0833      1296.4533    
 102974000   256.26106     -413.88038     -328.0552      -413.87941      0              6913.8661      30.944         21.33497       32.577152      21507.087      6976.9115      6273.22        7491.4668     -762.10335     -266.32116      262.50232    
 102976000   260.19263     -412.94457     -325.80267     -412.94351      0              7929.7554      30.944         21.33497       32.409427      21396.357      8359.4904      6741.4148      8688.3611      2394.1115     -378.96616      770.65116    
 102978000   251.92019     -414.38857     -330.01722     -414.38739      0              6188.8208      30.944         21.33497       32.564601      21498.802      7686.0746      4277.8516      6602.5361     -1217.9136      3023.1727     -1316.2202    
 102980000   258.3754      -414.17671     -327.64342     -414.17478      0              6154.8979      30.944         21.33497       32.473959      21438.961      5112.7027      8988.0325      4363.9587      1177.3238     -348.58219      1072.4184    
 102982000   261.12918     -413.51543     -326.05986     -413.51446      0              6071.4         30.944         21.33497       32.447702      21421.626      4926.5331      7601.4164      5686.2504      407.0872       2407.9906     -1120.3237    
 102984000   251.06146     -413.91262     -329.82886     -413.91181      0              8014.6296      30.944         21.33497       32.388212      21382.352      8232.6082      7870.978       7940.3026      690.07471     -449.5166      -345.76452    
 102986000   249.11613     -412.2597      -328.82746     -412.25775      0              7054.8748      30.944         21.33497       32.543507      21484.876      5889.8367      6317.3535      8957.4341      530.87989      957.13426     -2186.4362    
 102988000   253.84129     -411.54966     -326.5349      -411.54841      0              5068.0079      30.944         21.33497       32.398874      21389.39       4927.459       4327.097       5949.4676     -228.20402     -1260.0685      387.18998    
 102990000   258.42595     -413.33241     -326.78219     -413.33069      0              7573.9753      30.944         21.33497       32.492659      21451.306      8373.7516      7638.8705      6709.3039     -539.67926      210.78412      987.13517    
 102992000   254.83508     -415.30873     -329.96114     -415.30688      0              7158.7476      30.944         21.33497       32.418168      21402.128      6334.8294      8291.9801      6849.4332     -1183.8526      1035.7521     -638.77178    
 102994000   256.49929     -416.16631     -330.26135     -416.16449      0              4871.5707      30.944         21.33497       32.511656      21463.848      5240.2282      4784.1152      4590.3687     -1642.5181      319.81421     -1139.7764    
 102996000   261.86979     -415.17436     -327.47075     -415.17198      0              7270.669       30.944         21.33497       32.328827      21343.146      6130.5709      6320.9591      9360.4772      534.96545     -634.81873     -574.1909     
 102998000   253.22506     -416.19721     -331.38883     -416.19545      0              5898.8662      30.944         21.33497       32.356311      21361.291      4177.2929      6328.1468      7191.1589     -1080.912      -319.32926      274.95606    
 103000000   252.96521     -415.59223     -330.87089     -415.58885      0              5753.4762      30.944         21.33497       32.585773      21512.779      5336.0305      6506.8565      5417.5417     -67.741255      9.5003339      1199.741     
 103002000   252.35056     -413.35214     -328.83665     -413.35089      0              5816.3356      30.944         21.33497       32.583229      21511.1        4642.116       6276.9116      6529.9792     -620.10106      516.93244     -789.0921     
 103004000   252.53779     -413.42711     -328.84891     -413.42518      0              5235.7798      30.944         21.33497       32.607758      21527.293      6409.4217      6807.2653      2490.6523      1570.3778      279.442        269.81433    
 103006000   251.27576     -414.34953     -330.194       -414.34846      0              6120.3136      30.944         21.33497       32.372219      21371.793      6378.579       5035.1284      6947.2335     -1477.7298      1577.2796      502.43682    
 103008000   250.23582     -414.22519     -330.41796     -414.22439      0              5885.9925      30.944         21.33497       32.494094      21452.253      4646.5469      8635.5256      4375.9049      1329.7308      426.22107     -358.4454     
 103010000   262.09678     -415.42074     -327.64112     -415.41967      0              3861.6588      30.944         21.33497       32.608312      21527.659      4246.1602      3478.3766      3860.4395      735.6206       1415.1658     -1777.596     
 103012000   250.26164     -413.67323     -329.85734     -413.67228      0              7722.1303      30.944         21.33497       32.530024      21475.974      5900.6306      9105.7533      8160.0069      128.38294      389.11917     -481.43241    
 103014000   251.52759     -417.23089     -332.99103     -417.23001      0              4707.1808      30.944         21.33497       32.447802      21421.692      4431.2999      4575.385       5114.8576      801.32264     -775.73661     -425.48447    
 103016000   253.06296     -417.449       -332.69492     -417.44825      0              8168.5171      30.944         21.33497       32.250846      21291.664      8305.6296      8317.4431      7882.4785     -399.39111     -1227.1262     -1081.5902    
 103018000   250.82275     -414.89167     -330.88786     -414.89041      0              7034.7649      30.944         21.33497       32.436366      21414.142      6948.9311      7272.4267      6882.937       2673.5385      817.24863     -883.88807    
 103020000   255.11832     -415.12388     -329.68143     -415.12292      0              6410.8994      30.944         21.33497       32.436541      21414.258      6626.348       6289.1425      6317.2078     -631.2233      -723.89192     -2218.1476    
 103022000   242.70775     -415.29091     -334.00492     -415.29016      0              7797.0924      30.944         21.33497       32.272456      21305.931      7281.4183      7237.8149      8872.044      -1062.505       850.8362       807.37154    
 103024000   250.69765     -414.2475      -330.28559     -414.24577      0              7989.7164      30.944         21.33497       32.355483      21360.744      7141.2125      7115.2772      9712.6594      469.74507      399.93354     -1573.3287    
 103026000   252.23378     -412.10514     -327.62876     -412.10391      0              6811.3969      30.944         21.33497       32.460165      21429.854      6315.2224      7302.6229      6816.3453      1799.4296      496.90699     -2416.6168    
 103028000   255.25542     -413.08565     -327.59728     -413.08467      0              5328.6851      30.944         21.33497       32.438912      21415.823      4650.2567      7991.114       3344.6845      1524.1595      931.91839     -176.31375    
 103030000   259.65764     -414.6348      -327.67207     -414.63296      0              6464.6086      30.944         21.33497       32.447556      21421.53       6043.2001      9316.7426      4033.8832      1479.5722     -941.28016     -132.15984    
 103032000   256.7253      -414.64485     -328.6642      -414.64403      0              5741.6379      30.944         21.33497       32.509161      21462.2        6003.8328      4328.0066      6893.0744      265.83808     -175.77647     -916.30465    
 103034000   259.34847     -414.17416     -327.31497     -414.17319      0              7223.8865      30.944         21.33497       32.399713      21389.944      7198.1482      7997.3794      6476.1319     -1358.8385     -1015.2112     -764.31948    
 103036000   255.62968     -416.35955     -330.74584     -416.35849      0              5117.2585      30.944         21.33497       32.48376       21445.431      4085.1126      5182.9926      6083.6702      1775.715       167.57813      756.96853    
 103038000   250.17697     -413.48827     -329.70074     -413.4867       0              3511.4283      30.944         21.33497       32.519362      21468.935      2010.3377      6157.6468      2366.3003      1727.354      -158.46656     -352.5407     
 103040000   254.82585     -413.34312     -327.99862     -413.34134      0              4758.277       30.944         21.33497       32.625136      21538.766      6363.1874      5756.5904      2155.0531      380.43628     -760.12871     -68.678247    
 103042000   249.69754     -417.56344     -333.93648     -417.56083      0              4868.2151      30.944         21.33497       32.450547      21423.504      4890.8365      4748.6084      4965.2003     -1151.4494     -390.95748      1944.1728    
 103044000   255.47677     -414.79028     -329.22779     -414.78857      0              8539.2308      30.944         21.33497       32.370441      21370.619      8715.0304      8935.0839      7967.578      -1106.7707      217.91896     -582.33276    
 103046000   250.59702     -413.15909     -329.23088     -413.15725      0              6531.2643      30.944         21.33497       32.207963      21263.353      6835.4076      4676.7171      8081.6681     -81.78923       548.16586     -1384.7911    
 103048000   262.25987     -418.06567     -330.23143     -418.06401      0              6704.8889      30.944         21.33497       32.315248      21334.182      6076.4205      7020.1383      7018.1078     -1716.953      -354.74549      715.26796    
 103050000   251.70364     -414.19266     -329.89383     -414.19175      0              4753.2925      30.944         21.33497       32.454632      21426.201      5804.6233      4445.0409      4010.2134     -1605.4911     -9.3278629     -202.99727    
 103052000   256.92691     -412.34625     -326.29808     -412.34545      0              5095.4051      30.944         21.33497       32.551625      21490.235      3976.9992      5439.6658      5869.5504      6.6708803      821.79982     -2364.4022    
 103054000   253.87981     -415.055       -330.02734     -415.05378      0              4745.7599      30.944         21.33497       32.393345      21385.74       4475.6867      3802.1298      5959.4632      486.96075     -137.48231     -379.63228    
 103056000   260.28752     -414.44654     -327.27286     -414.4455       0              6737.9212      30.944         21.33497       32.607732      21527.276      6920.1399      6395.1969      6898.4268      929.68814     -770.68246      1025.4828    
 103058000   253.70822     -416.01564     -331.04545     -416.0142       0              6356.4463      30.944         21.33497       32.40357       21392.49       6120.6659      5309.9547      7638.7183      536.51676     -2250.5153      596.35023    
 103060000   258.96541     -413.81524     -327.08435     -413.81416      0              7787.5849      30.944         21.33497       32.376519      21374.632      7171.9957      6525.0138      9665.7453     -252.37653      828.1739      -469.99526    
 103062000   253.6922      -413.36419     -328.39937     -413.3635       0              7313.9264      30.944         21.33497       32.526783      21473.834      8029.281       6895.2634      7017.2348     -871.22277     -123.01986      699.04739    
WARNING: Wall time limit reached (../timer.cpp:193)
Loop time of 85800 on 4 procs for 7377000 steps with 2592 atoms

Performance: 3.714 ns/day, 6.462 hours/ns, 85.979 timesteps/s
1436.1% CPU use with 4 MPI tasks x no OpenMP threads

MPI task timing breakdown:
Section |  min time  |  avg time  |  max time  |%varavg| %total
---------------------------------------------------------------
Pair    | 20785      | 20840      | 20913      |  32.2 | 24.29
Bond    | 0.71652    | 0.74391    | 0.78259    |   3.0 |  0.00
Neigh   | 626.24     | 633.72     | 640.02     |  23.7 |  0.74
Comm    | 2382.6     | 2447.6     | 2509.5     |  91.2 |  2.85
Output  | 6737.6     | 6737.6     | 6737.7     |   0.0 |  7.85
Modify  | 55117      | 55119      | 55122      |   0.7 | 64.24
Other   |            | 20.54      |            |       |  0.02

Nlocal:            648 ave         656 max         638 min
Histogram: 1 0 0 0 0 0 2 0 0 1
Nghost:        4253.75 ave        4262 max        4247 min
Histogram: 2 0 0 0 0 0 0 1 0 1
Neighs:              0 ave           0 max           0 min
Histogram: 4 0 0 0 0 0 0 0 0 0
FullNghs:       167474 ave      171110 max      163110 min
Histogram: 1 0 0 0 0 1 1 0 0 1

Total # of neighbors = 669894
Ave neighs/atom = 258.44676
Ave special neighs/atom = 0
Neighbor list builds = 147540
Dangerous builds not checked
unfix 3
unfix 1
unfix 2


# Finalize simulation
write_restart	restart.lmp.${pid}
write_restart	restart.lmp.0
System init for write_restart ...
Generated 0 of 1 mixed pair_coeff terms from geometric mixing rule
write_data	data.final.${pid} nocoeff
write_data	data.final.0 nocoeff
System init for write_data ...
Generated 0 of 1 mixed pair_coeff terms from geometric mixing rule
Total wall time: 23:50:15
