LAMMPS (23 Jun 2022)
include procedure.lmp
echo both
include		in.partitions
variable        pid world 0
include		in.temp
variable	temperature equal 255
variable        tempDamp equal 0.100 # this is 0.1 ps
include		in.pressure
variable        pressure equal 6079.5
variable        pressureDamp equal 1.0 #this is 1ps

variable	barostat string	   tri
variable	direction string   z
variable	direction_x_bool equal 0
variable	direction_y_bool equal 0
variable	direction_z_bool equal 1

include		in.seed
variable        seed world 745823

units           metal
atom_style	full
box tilt large
read_restart 	restart.lmp.${pid}
read_restart 	restart.lmp.0
Reading restart file ...
  restart file = 23 Jun 2022, LAMMPS = 23 Jun 2022
  restoring atom style full from restart
  triclinic box = (0 0 -0.9442276) to (30.944 21.33497 31.916943) with tilt (-9.144178 0.99158191 -10.935299)
WARNING: Triclinic box skew is large (../domain.cpp:224)
  2 by 1 by 2 MPI processor grid
Summary of lammps deepmd module ...
  >>> Info of deepmd-kit:
  installed to:       /u/sigbjobo/software/DEEPMD_FROM_SOURCE/deepmd-kit/install
  source:             v2.1.3
  source branch:       master
  source commit:      5a32c49
  source commit at:   2022-07-01 09:52:58 +0800
  surpport model ver.:1.1 
  build float prec:   double
  build with tf inc:  /u/sigbjobo/software/DEEPMD_FROM_SOURCE/tensorflow/install/include;/u/sigbjobo/software/DEEPMD_FROM_SOURCE/tensorflow/install/include
  build with tf lib:  /u/sigbjobo/software/DEEPMD_FROM_SOURCE/tensorflow/install/lib/libtensorflow_cc.so;/u/sigbjobo/software/DEEPMD_FROM_SOURCE/tensorflow/install/lib/libtensorflow_framework.so
  set tf intra_op_parallelism_threads: 0
  set tf inter_op_parallelism_threads: 0
  >>> Info of lammps module:
  use deepmd-kit at:  /u/sigbjobo/software/DEEPMD_FROM_SOURCE/deepmd-kit/install
  source:             v2.1.3
  source branch:      master
  source commit:      5a32c49
  source commit at:   2022-07-01 09:52:58 +0800
  build float prec:   double
  build with tf inc:  /u/sigbjobo/software/DEEPMD_FROM_SOURCE/tensorflow/install/include;/u/sigbjobo/software/DEEPMD_FROM_SOURCE/tensorflow/install/include
  build with tf lib:  /u/sigbjobo/software/DEEPMD_FROM_SOURCE/tensorflow/install/lib/libtensorflow_cc.so;/u/sigbjobo/software/DEEPMD_FROM_SOURCE/tensorflow/install/lib/libtensorflow_framework.so
  restoring pair style deepmd from restart
  2592 atoms
Finding 1-2 1-3 1-4 neighbors ...
  special bond factors lj:    0        0        0       
  special bond factors coul:  0        0        0       
     0 = max # of 1-2 neighbors
     0 = max # of 1-3 neighbors
     0 = max # of 1-4 neighbors
     1 = max # of special neighbors
  special bonds CPU = 0.000 seconds
  read_restart CPU = 0.036 seconds
include 	in.setup
variable	out_freq equal 2000
variable	out_freq2 equal 2000

timestep        0.0005

neigh_modify    delay 7 every 1

include         in.deepmd
# This is deepMD model

# create groups ###
#group ox type 2
#group hy type 1

mass 2 15.999
mass 1 1.008

pair_style      deepmd ../graph.pb
pair_coeff      * *

bond_style      none
angle_style     none
dihedral_style  none
improper_style  none
neigh_modify exclude none


neighbor        2.0 bin
neigh_modify    every 50 delay 0 check no

thermo          ${out_freq}
thermo          2000
thermo_style 	custom step temp pe etotal epair emol press lx ly lz vol pxx pyy pzz pxy pxz pyz

restart 	${out_freq} restart.lmp.${pid} restart2.lmp.${pid}
restart 	2000 restart.lmp.${pid} restart2.lmp.${pid}
restart 	2000 restart.lmp.0 restart2.lmp.${pid}
restart 	2000 restart.lmp.0 restart2.lmp.0


timer           timeout 23:50:00 every 1000
New timer settings: style=normal  mode=nosync  timeout=23:50:00


# Set number of time steps
variable 	nsteps_wall		equal	 6000000
variable 	nsteps_enhanced_coex    equal	60000000

variable     nsteps_enhanced_coex_upto equal (${nsteps_wall}+${nsteps_enhanced_coex})
variable     nsteps_enhanced_coex_upto equal (6000000+${nsteps_enhanced_coex})
variable     nsteps_enhanced_coex_upto equal (6000000+60000000)


# Set temperature for first step
if "$(step) < 1  " then    "velocity 	all create ${temperature} ${seed} dist gaussian"


# Always run thermo and barostat


######################################
# Run simulation with wall potential #
######################################
if " $(step) < ${nsteps_wall} " then    "fix             3 all plumed plumedfile plumed.equil.dat outfile plumed.equil.out"   "fix             1 all nph ${direction} ${pressure} ${pressure} ${pressureDamp}"   "fix             2 all temp/csvr ${temperature} ${temperature} ${tempDamp} ${seed}"   "run             ${nsteps_wall} upto"
if " $(step) == ${nsteps_wall} " then    "unfix 3"   "unfix 1"   "unfix 2"


############################
# Run enhanced coesistence #
############################
if "$(step) == ${nsteps_wall}" then    "fix             3 all plumed plumedfile plumed.start.dat outfile plumed.out" else    "fix             3 all plumed plumedfile plumed.dat outfile plumed.out"
fix             3 all plumed plumedfile plumed.dat outfile plumed.out

if "$(step) < ${nsteps_enhanced_coex_upto} && $(step) >= ${nsteps_wall} " then    "include         in.dump"    "fix             1 all nph ${direction} ${pressure} ${pressure} ${pressureDamp}"   "fix             2 all temp/csvr ${temperature} ${temperature} ${tempDamp} ${seed}"   "run             ${nsteps_enhanced_coex_upto} upto"    "unfix 3"   "unfix 1"   "unfix 2"
include         in.dump
dump            myDump all atom ${out_freq2} dump.water.${pid}
dump            myDump all atom 2000 dump.water.${pid}
dump            myDump all atom 2000 dump.water.0
dump            myDump2 all dcd ${out_freq2} dump.${pid}.dcd
dump            myDump2 all dcd 2000 dump.${pid}.dcd
dump            myDump2 all dcd 2000 dump.0.dcd
dump_modify     myDump append yes
dump_modify     myDump2 append yes

fix             1 all nph ${direction} ${pressure} ${pressure} ${pressureDamp}
fix             1 all nph z ${pressure} ${pressure} ${pressureDamp}
fix             1 all nph z 6079.5 ${pressure} ${pressureDamp}
fix             1 all nph z 6079.5 6079.5 ${pressureDamp}
fix             1 all nph z 6079.5 6079.5 1
fix             2 all temp/csvr ${temperature} ${temperature} ${tempDamp} ${seed}
fix             2 all temp/csvr 255 ${temperature} ${tempDamp} ${seed}
fix             2 all temp/csvr 255 255 ${tempDamp} ${seed}
fix             2 all temp/csvr 255 255 0.1 ${seed}
fix             2 all temp/csvr 255 255 0.1 745823
run             ${nsteps_enhanced_coex_upto} upto
run             66000000 upto

CITE-CITE-CITE-CITE-CITE-CITE-CITE-CITE-CITE-CITE-CITE-CITE-CITE

Your simulation uses code contributions which should be cited:

- USER-DEEPMD package:

@article{Wang_ComputPhysCommun_2018_v228_p178,
  author = {Wang, Han and Zhang, Linfeng and Han, Jiequn and E, Weinan},
  doi = {10.1016/j.cpc.2018.03.016},
  url = {https://doi.org/10.1016/j.cpc.2018.03.016},
  year = 2018,
  month = {jul},
  publisher = {Elsevier {BV}},
  volume = 228,
  journal = {Comput. Phys. Commun.},
  title = {{DeePMD-kit: A deep learning package for many-body potential energy representation and molecular dynamics}},
  pages = {178--184}
}

CITE-CITE-CITE-CITE-CITE-CITE-CITE-CITE-CITE-CITE-CITE-CITE-CITE

Generated 0 of 1 mixed pair_coeff terms from geometric mixing rule
Neighbor list info ...
  update every 50 steps, delay 0 steps, check no
  max neighbors/atom: 2000, page size: 100000
  master list distance cutoff = 8
  ghost atom cutoff = 8
  binsize = 4, bins = 11 9 9
  1 neighbor lists, perpetual/occasional/extra = 1 0 0
  (1) pair deepmd, perpetual
      attributes: full, newton on
      pair build: full/bin
      stencil: full/bin/3d
      bin: standard
Per MPI rank memory allocation (min/avg/max) = 6.237 | 6.238 | 6.239 Mbytes
   Step          Temp          PotEng         TotEng         E_pair         E_mol          Press            Lx             Ly             Lz           Volume          Pxx            Pyy            Pzz            Pxy            Pxz            Pyz      
  41031000   251.41384     -410.63199     -326.43022     -410.63199      0              4947.2835      30.944         21.33497       32.86117       21694.593      6601.7553      3390.9598      4849.1353      234.17233      733.59987      1246.6003    
  41032000   251.47082     -409.7502      -325.52934     -409.71848      0              7276.0636      30.944         21.33497       32.70819       21593.597      8656.6854      5536.9711      7634.5343      225.21604     -47.145891      1267.8582    
  41034000   260.21933     -411.93394     -324.78309     -411.89831      0              7003.9972      30.944         21.33497       32.776394      21638.625      6203.2953      6792.0665      8016.6299     -735.86432      304.04635      88.279421    
  41036000   253.93451     -411.02913     -325.98315     -410.9933       0              6994.2414      30.944         21.33497       32.611234      21529.588      4813.9117      8062.4791      8106.3335      977.41476     -187.40888      63.75241     
  41038000   256.69513     -410.83744     -324.8669      -410.78415      0              5859.7587      30.944         21.33497       32.735992      21611.952      4935.7608      6989.3186      5654.1968      898.56689     -1596.8582     -475.50134    
  41040000   259.83779     -410.46022     -323.43715     -410.40675      0              8771.2498      30.944         21.33497       32.771604      21635.463      8394.8335      8116.7381      9802.1777      323.51496     -363.60765      194.41813    
  41042000   255.89311     -410.30098     -324.59904     -410.27214      0              6594.8576      30.944         21.33497       32.74007       21614.644      8280.075       5941.8625      5562.6354     -487.59321      395.90489      19.332835    
  41044000   261.72586     -410.82749     -323.17209     -410.79972      0              7904.489       30.944         21.33497       32.764454      21630.742      7702.5553      7376.7218      8634.19       -1583.0874      1330.6348      1151.0963    
  41046000   258.03898     -411.85946     -325.43884     -411.82027      0              6726.7858      30.944         21.33497       32.845666      21684.357      4256.351       8717.8552      7206.1512      554.67944      364.94504     -1301.096     
  41048000   253.9982      -411.37838     -326.31107     -411.33804      0              7043.116       30.944         21.33497       32.800073      21654.258      7267.7137      6754.0169      7107.6173      422.77582      662.042        908.37912    
  41050000   258.90227     -414.39607     -327.68632     -414.34109      0              5557.5965      30.944         21.33497       32.810295      21661.006      5060.5266      4006.7616      7605.5014      326.65706      1983.6456      240.66595    
  41052000   251.01151     -412.62426     -328.55724     -412.56937      0              5722.6683      30.944         21.33497       32.612047      21530.125      3864.0199      5327.5344      7976.4506      957.37403     -1293.7571      1315.9699    
  41054000   249.2301      -412.35676     -328.88635     -412.32637      0              7000.6693      30.944         21.33497       32.568895      21501.636      6702.1761      7005.1057      7294.7262      529.10114      72.234813      88.030201    
  41056000   265.26743     -410.83046     -321.98894     -410.79004      0              3962.1813      30.944         21.33497       32.691314      21582.456      4635.1877      4432.6498      2818.7063      1218.103       1626.5496     -272.91985    
  41058000   257.91414     -410.30988     -323.93108     -410.27489      0              6061.7025      30.944         21.33497       32.71166       21595.888      4215.4506      5511.1505      8458.5064     -297.28476      504.20823      1308.1056    
  41060000   249.85678     -411.87729     -328.197       -411.82262      0              5640.0402      30.944         21.33497       32.889189      21713.091      5507.6242      5534.4239      5878.0726     -966.58171      1117.9231      704.81436    
  41062000   259.32275     -410.10054     -323.24997     -410.05173      0              4742.774       30.944         21.33497       32.934334      21742.896      5680.8573      3524.5535      5022.9114     -1530.8637      410.78362      601.2247     
  41064000   261.36848     -413.15162     -325.61591     -413.12815      0              4306.4943      30.944         21.33497       32.82931       21673.56       5149.2672      4018.4808      3751.7348      844.85651      1604.8679      979.67562    
  41066000   255.82981     -414.3579      -328.67716     -414.32741      0              4076.4896      30.944         21.33497       32.78546       21644.61       2213.7509      5273.4118      4742.306       322.30323     -362.36976      448.09776    
  41068000   255.30938     -413.50615     -327.99971     -413.45321      0              7741.5639      30.944         21.33497       32.783124      21643.068      9207.7856      6266.1383      7750.7678     -515.70751      733.29201      26.302376    
  41070000   251.66514     -410.77715     -326.49122     -410.7249       0              6692.445       30.944         21.33497       32.804362      21657.089      5027.3362      6474.7471      8575.2516     -861.65567     -176.88679     -317.90784    
  41072000   247.78113     -410.9155      -327.93036     -410.88069      0              5636.7755      30.944         21.33497       32.556376      21493.371      5412.0059      5684.3326      5813.9882     -11.675414     -388.13669     -1376.4497    
  41074000   255.42423     -410.9157      -325.3708      -410.86328      0              6467.2165      30.944         21.33497       32.651024      21555.857      4760.0826      7629.5684      7011.9986      704.19959      581.55417     -136.34952    
  41076000   249.10255     -410.86399     -327.4363      -410.8132       0              6361.0198      30.944         21.33497       32.718359      21600.311      6160.1095      6536.687       6386.2628     -63.005793     -1174.3953     -1680.6498    
  41078000   256.11813     -410.49542     -324.71812     -410.45208      0              5865.9975      30.944         21.33497       32.732544      21609.676      5276.5699      6106.8643      6214.5583      310.71729     -611.80463     -488.42901    
  41080000   256.44756     -410.141       -324.25337     -410.08803      0              5648.786       30.944         21.33497       32.778996      21640.343      5271.7195      5925.0866      5749.552       1387.5315      1022.4958      1587.8309    
  41082000   256.78431     -408.28411     -322.28369     -408.22966      0              6495.9794      30.944         21.33497       32.814373      21663.699      6508.2705      4499.4936      8480.1741      380.15189      312.10473      1566.3566    
  41084000   254.51205     -411.82908     -326.58968     -411.77593      0              5229.6821      30.944         21.33497       32.854439      21690.149      5374.9164      3187.7413      7126.3886     -429.28836     -263.08347     -957.742      
  41086000   256.00975     -410.53028     -324.78928     -410.49057      0              7130.5047      30.944         21.33497       32.712658      21596.547      6796.4813      8263.3508      6331.6819     -1045.9274      1858.5269     -643.28059    
  41088000   244.5512      -410.69787     -328.79449     -410.65348      0              4959.6977      30.944         21.33497       32.782415      21642.6        5516.7493      5536.7308      3825.6131     -187.1913      -10.609742     -29.210569    
  41090000   256.18862     -411.28839     -325.48748     -411.2373       0              5797.2412      30.944         21.33497       32.616684      21533.186      5902.5564      6339.2671      5149.9002      279.98737      870.25696      753.22669    
  41092000   249.65386     -409.85498     -326.24265     -409.81024      0              5412.9049      30.944         21.33497       32.680874      21575.564      3769.6119      3944.3616      8524.7413      92.274277     -831.80683      710.94355    
  41094000   265.96898     -411.55655     -322.48007     -411.50455      0              7168.5438      30.944         21.33497       32.499569      21455.868      7961.1322      6579.2213      6965.278       2040.9385     -858.70279      224.11864    
  41096000   253.30935     -414.70526     -329.86865     -414.68022      0              5183.1069      30.944         21.33497       32.676985      21572.996      4805.0496      4165.9822      6578.2887     -851.97206      630.31006     -730.71283    
  41098000   255.06548     -412.00648     -326.58172     -411.95231      0              4840.1315      30.944         21.33497       32.81249       21662.455      4161.5128      5516.8833      4841.9983     -565.4979       509.62428      441.46995    
  41100000   246.65709     -411.35989     -328.75122     -411.3253       0              6108.4967      30.944         21.33497       32.644719      21551.695      4961.0821      4909.1255      8455.2826      775.84496     -1419.4684      586.01268    
  41102000   250.06389     -413.08084     -329.33118     -413.031        0              6318.6875      30.944         21.33497       32.809791      21660.673      6267.792       5954.6525      6733.6181      1189.5496     -344.00295      1233.695     
  41104000   256.6897      -413.81062     -327.84189     -413.76061      0              6443.3641      30.944         21.33497       32.712836      21596.665      7450.2947      4453.2037      7426.5938     -64.805202      1824.6155      2054.2221    
  41106000   259.8111      -412.28553     -325.27141     -412.24109      0              7151.8627      30.944         21.33497       32.566657      21500.159      7724.3538      8840.6279      4890.6065      1855.5908      897.4128      -406.4717     
  41108000   252.31254     -414.33104     -329.82828     -414.28861      0              6361.7007      30.944         21.33497       32.580325      21509.183      4641.5765      6834.3866      7609.139      -1317.3694      1824.1564      206.32207    
  41110000   247.31436     -412.19565     -329.36685     -412.14783      0              6866.6054      30.944         21.33497       32.566056      21499.762      6497.812       7724.3971      6377.607       1495.0635     -1524.8961      1117.6405    
  41112000   250.74875     -411.83563     -327.8566      -411.79575      0              8068.556       30.944         21.33497       32.621898      21536.628      8004.7099      7363.1655      8837.7925     -202.55957      1947.2442     -1109.778     
  41114000   256.56082     -410.31097     -324.38541     -410.27479      0              4479.2617      30.944         21.33497       32.695866      21585.462      5456.3523      4602.4711      3378.9617     -23.460213      513.01251      645.30934    
  41116000   255.45268     -411.28437     -325.72994     -411.23402      0              5245.4312      30.944         21.33497       32.709931      21594.747      4807.8488      5987.0227      4941.4222      1789.992       831.42389     -351.60145    
  41118000   252.11804     -410.88834     -326.45073     -410.84509      0              6442.3081      30.944         21.33497       32.652079      21556.553      6241.9775      6792.9515      6291.9952     -729.99966     -1516.0345     -228.46214    
  41120000   248.0896      -413.79746     -330.70902     -413.74506      0              4047.8691      30.944         21.33497       32.711387      21595.708      2321.4892      5074.766       4747.352       114.35859      1451.1648     -1274.416     
  41122000   248.38982     -409.92853     -326.73954     -409.87609      0              6159.5916      30.944         21.33497       32.704043      21590.859      8180.5647      5280.8921      5017.3182      222.75132      1211.0425      13.490313    
  41124000   260.27066     -412.89472     -325.72668     -412.84645      0              6706.6958      30.944         21.33497       32.660775      21562.295      6456.2435      8177.255       5486.5891      2130.8011     -1146.5198      211.97397    
  41126000   249.37923     -410.31483     -326.79448     -410.27646      0              3764.7217      30.944         21.33497       32.563978      21498.39       4961.9442      4665.7826      1666.4384      587.59021     -139.62672     -703.05917    
  41128000   250.61511     -410.08326     -326.14899     -410.02967      0              8166.9129      30.944         21.33497       32.404757      21393.274      5737.1244      8806.0073      9957.6069      1670.2316      820.39451     -1511.5168    
  41130000   257.72847     -412.91256     -326.59594     -412.86009      0              5443.2875      30.944         21.33497       32.696419      21585.827      4878.0333      5630.4495      5821.3796      1394.0291      378.43928     -1769.3947    
  41132000   258.10711     -413.13347     -326.69004     -413.09239      0              5229.105       30.944         21.33497       32.587379      21513.839      2890.8842      7307.9042      5488.5266      382.40181      2115.3699     -364.51899    
  41134000   255.79034     -412.67258     -327.00506     -412.62476      0              6285.3102      30.944         21.33497       32.652304      21556.702      7069.3892      4784.8821      7001.6592     -349.42734     -774.81927     -8.457329     
  41136000   246.31644     -408.32942     -325.83483     -408.28232      0              6150.3045      30.944         21.33497       32.70409       21590.891      6087.3088      5440.2486      6923.3563     -124.53967     -377.72384     -1083.781     
  41138000   251.64941     -410.1633      -325.88263     -410.1142       0              5668.6422      30.944         21.33497       32.725305      21604.897      3820.3981      7043.4183      6142.1102     -894.06554      1087.7889     -1277.2813    
  41140000   255.34784     -410.67952     -325.1602      -410.62713      0              5382.4997      30.944         21.33497       32.711178      21595.57       5781.0948      5856.9931      4509.4111     -82.248321     -605.74199     -705.35666    
  41142000   249.29738     -408.47201     -324.97907     -408.4317       0              7424.1129      30.944         21.33497       32.765153      21631.204      7368.6695      8633.217       6270.4521      488.52223     -448.63543      805.06632    
  41144000   258.49051     -410.95449     -324.38265     -410.91958      0              5896.7478      30.944         21.33497       32.722595      21603.107      5973.46        6997.7523      4719.0311      19.431742      797.68993      58.330539    
  41146000   257.02344     -409.71548     -323.63498     -409.6622       0              6530.9596      30.944         21.33497       32.505936      21460.071      6248.2458      7637.8668      5706.7663      972.61594      804.29897      583.3307     
  41148000   252.37448     -411.92239     -327.39889     -411.86917      0              7523.8262      30.944         21.33497       32.33966       21350.298      8665.755       6519.5593      7386.1645      870.22101      739.20487      456.96767    
  41150000   258.76939     -410.78583     -324.12058     -410.73588      0              6662.0341      30.944         21.33497       32.856886      21691.765      8862.6074      5316.226       5807.2689      551.47605     -2290.7025      1088.7082    
  41152000   253.77032     -412.40892     -327.41793     -412.35679      0              6879.1293      30.944         21.33497       32.627591      21540.387      7323.7056      6025.4173      7288.265       1559.2046      528.18263      1612.0467    
  41154000   252.19798     -412.81349     -328.3491      -412.76128      0              5588.9027      30.944         21.33497       32.441388      21417.458      5680.0011      6569.6081      4517.099       63.472646      1559.4544      876.70909    
  41156000   262.34607     -410.88697     -323.02385     -410.84284      0              5757.962       30.944         21.33497       32.646637      21552.961      7456.8503      4472.6853      5344.3504      681.86975      289.10012      833.43825    
  41158000   246.17597     -409.98616     -327.53862     -409.93319      0              5007.2959      30.944         21.33497       32.860572      21694.199      5096.6105      4952.203       4973.0742      16.930917     -918.73864     -1046.9878    
  41160000   253.02853     -410.7828      -326.04025     -410.73337      0              4242.4616      30.944         21.33497       32.596559      21519.9        2152.3681      4660.405       5914.6115     -1111.5228      1973.8039      1762.8301    
  41162000   248.14746     -413.24255     -330.13473     -413.21751      0              5330.6922      30.944         21.33497       32.781964      21642.302      6371.4229      5345.5883      4275.0653     -205.13931     -530.84984      46.357058    
  41164000   258.0907      -410.82342     -324.38548     -410.78856      0              5011.1727      30.944         21.33497       32.844051      21683.292      6286.8067      6258.6466      2488.0646     -284.49906     -1217.037      -881.78913    
  41166000   255.07866     -413.98439     -328.55522     -413.93149      0              4537.7647      30.944         21.33497       32.870209      21700.561      6537.5661      3986.5907      3089.1373     -252.62737     -944.44806     -712.19561    
  41168000   254.89383     -410.5526      -325.18534     -410.50863      0              4358.0772      30.944         21.33497       32.757727      21626.301      5614.0735      3571.7406      3888.4174      953.55383     -584.06757      1685.0719    
  41170000   248.73725     -415.99334     -332.688       -415.96098      0              7117.6981      30.944         21.33497       32.72002       21601.407      6351.3318      8137.0935      6864.669      -1418.9966      259.70115      1691.6772    
  41172000   253.7037      -411.4323      -326.46362     -411.39065      0              6440.1352      30.944         21.33497       32.736152      21612.058      7691.3984      6791.9664      4837.0407      1185.886      -1208.8407     -470.48602    
  41174000   255.35535     -411.30182     -325.77999     -411.27033      0              4862.1224      30.944         21.33497       32.64852       21554.204      6505.8385      4196.0597      3884.4689     -638.5812      -368.55991      1004.7817    
  41176000   255.89157     -411.81581     -326.11439     -411.76332      0              6104.4237      30.944         21.33497       32.645853      21552.443      6213.6962      6319.0849      5780.49       -650.53329     -153.36534     -724.98556    
  41178000   248.28657     -411.16545     -328.01104     -411.11297      0              6200.6697      30.944         21.33497       32.572088      21503.744      5516.0274      4720.8158      8365.1659      939.23655      338.9008       415.728      
  41180000   263.34164     -409.64993     -321.45338     -409.6169       0              6084.3686      30.944         21.33497       32.447561      21421.533      5430.6057      4815.9306      8006.5694      74.44133      -480.65306      733.51015    
  41182000   256.33218     -411.4843      -325.63531     -411.45179      0              5987.0586      30.944         21.33497       32.293288      21319.684      7758.1157      5221.1683      4981.8917     -857.05619      146.0698      -962.41886    
  41184000   251.62715     -410.27698     -326.00377     -410.25638      0              7777.2548      30.944         21.33497       32.200052      21258.13       6896.1351      8159.8217      8275.8077      686.24754     -433.10334      583.26324    
  41186000   257.34437     -411.31458     -325.1266      -411.28546      0              6288.1343      30.944         21.33497       32.351839      21358.338      6195.393       6536.0536      6132.9565     -529.07005      145.64731     -1267.8233    
  41188000   251.90907     -411.35306     -326.98543     -411.30631      0              6931.9843      30.944         21.33497       32.458884      21429.009      5329.4559      8173.3514      7293.1455      1074.6149     -1048.0352      923.61931    
  41190000   254.80722     -410.67667     -325.33841     -410.63737      0              6102.9561      30.944         21.33497       32.511368      21463.658      7234.1584      4306.0218      6768.6881     -84.531397      1419.7354     -16.500917    
  41192000   249.47715     -410.76741     -327.21425     -410.73226      0              7649.353       30.944         21.33497       32.544408      21485.47       8413.2276      8382.2259      6152.6055     -517.33404      1539.8602     -1980.9295    
  41194000   248.79851     -410.74389     -327.41802     -410.69587      0              6345.5568      30.944         21.33497       32.753602      21623.578      6593.5991      6473.3078      5969.7635      688.35349     -682.17175      965.27198    
  41196000   260.31563     -411.05681     -323.87371     -411.03605      0              5782.9218      30.944         21.33497       32.563326      21497.96       6436.0152      4967.6556      5945.0947      759.24002      680.5455      -1175.8362    
  41198000   248.46007     -412.43529     -329.22277     -412.40617      0              8310.799       30.944         21.33497       32.422011      21404.665      9560.4712      7810.1865      7561.7394     -898.51789     -631.49366     -498.16269    
  41200000   254.16518     -410.69443     -325.5712      -410.67286      0              6577.6832      30.944         21.33497       32.435115      21413.316      7005.2577      6452.7286      6275.0633      60.65287      -1117.539       477.98015    
  41202000   253.12559     -413.64783     -328.87277     -413.62243      0              7037.4207      30.944         21.33497       32.407721      21395.231      7658.5853      6597.6013      6856.0756     -675.01589     -449.1204       554.27088    
  41204000   257.47192     -411.52243     -325.29173     -411.49709      0              5818.6525      30.944         21.33497       32.366591      21368.078      5867.9596      5232.9965      6355.0014      117.45907     -1584.9506     -674.02502    
  41206000   247.24038     -409.95786     -327.15383     -409.91305      0              5121.2043      30.944         21.33497       32.86013       21693.907      5594.8398      6056.2941      3712.4789      1140.4975     -227.05582     -1628.2281    
  41208000   247.16164     -410.65033     -327.87268     -410.61769      0              5209.0228      30.944         21.33497       32.828694      21673.153      4731.1553      4855.0957      6040.8173      817.45738     -2137.5182     -1843.2457    
  41210000   250.55668     -412.14095     -328.22625     -412.10244      0              4733.433       30.944         21.33497       32.636965      21546.575      5443.8015      5130.0233      3626.4742     -246.10776     -802.07396     -504.5814     
  41212000   249.19762     -410.93356     -327.47403     -410.90613      0              8054.2957      30.944         21.33497       32.524142      21472.091      7039.7855      6979.2227      10143.879     -713.74389      557.5547      -1441.7711    
  41214000   260.60557     -412.05561     -324.7754      -412.02259      0              5344.6191      30.944         21.33497       32.568597      21501.44       4597.0281      5129.1814      6307.6478      1381.0796     -886.50436     -845.20303    
  41216000   254.62365     -412.55273     -327.27595     -412.52557      0              7002.9511      30.944         21.33497       32.611446      21529.728      6726.4638      8990.568       5291.8214     -531.94414      211.9106       425.88428    
  41218000   250.94433     -411.5267      -327.48217     -411.49442      0              4085.935       30.944         21.33497       32.567169      21500.497      4205.2996      6132.3287      1920.1766      1189.0814     -1523.1362     -1240.1289    
  41220000   252.16142     -413.44106     -328.98891     -413.42209      0              5781.1738      30.944         21.33497       32.528006      21474.642      4733.4642      6425.6293      6184.4278     -436.70927      738.03298      87.289282    
  41222000   254.92983     -408.98567     -323.60635     -408.95737      0              5548.3183      30.944         21.33497       32.550184      21489.284      4557.3495      5630.0248      6457.5805      845.34154      758.40355      655.9709     
  41224000   250.03598     -409.19378     -325.45347     -409.17769      0              5790.2726      30.944         21.33497       32.684506      21577.962      7624.2158      4826.9639      4919.6381     -1663.0077     -850.63896     -1544.0445    
  41226000   257.49009     -410.27615     -324.03936     -410.23478      0              5235.7581      30.944         21.33497       32.722251      21602.88       3914.0717      6751.702       5041.5006      296.61463      2039.9327      303.40779    
  41228000   253.04629     -408.84044     -324.09193     -408.79942      0              7444.5044      30.944         21.33497       32.586627      21513.343      8995.6657      5451.1109      7886.7366     -298.69934      1126.9042      178.32978    
  41230000   258.07256     -409.79082     -323.35896     -409.74658      0              5949.8599      30.944         21.33497       32.553968      21491.782      4129.9059      6302.1967      7417.4773     -1824.6634     -222.98488     -283.88535    
  41232000   256.02266     -410.33959     -324.59426     -410.31049      0              7273.5397      30.944         21.33497       32.543822      21485.084      7711.7701      4944.9866      9163.8623     -994.26684     -1774.0594      1342.7142    
  41234000   247.35769     -413.56204     -330.71873     -413.54532      0              7310.6161      30.944         21.33497       32.543304      21484.742      7746.7733      6950.2125      7234.8624      581.3705      -177.63986      750.50883    
  41236000   247.22646     -411.78691     -328.98755     -411.77329      0              5634.4626      30.944         21.33497       32.381337      21377.812      5271.8712      6329.4026      5302.1141      1266.6209     -118.79527      676.26039    
  41238000   259.76765     -412.04429     -325.04471     -412.02658      0              4564.1986      30.944         21.33497       32.411426      21397.677      2175.4407      6170.6824      5346.4727     -177.95099     -324.73482     -1592.4469    
  41240000   250.54924     -409.58396     -325.67176     -409.56361      0              5652.0072      30.944         21.33497       32.460305      21429.946      6190.6589      6748.6086      4016.7543     -154.29321      262.95341     -1777.571     
  41242000   255.52866     -411.51837     -325.93849     -411.49339      0              5048.3512      30.944         21.33497       32.524134      21472.085      8065.2612      4216.0566      2863.7358      1318.4833     -297.89937      872.95889    
  41244000   251.84064     -409.24662     -324.9019      -409.2176       0              2445.6279      30.944         21.33497       32.824525      21670.401      4254.2649      2927.4644      155.15433     -491.8765       579.31096     -2257.3267    
  41246000   245.11432     -412.65451     -330.56253     -412.64485      0              5504.5067      30.944         21.33497       32.599089      21521.57       6682.4375      5842.6056      3988.4769      138.82373     -656.11656     -368.72832    
  41248000   261.23114     -411.80426     -324.31454     -411.79459      0              7816.9061      30.944         21.33497       32.491531      21450.562      6958.0578      11438.305      5054.3558     -88.708428      175.7109      -1356.6489    
  41250000   256.61489     -412.66249     -326.71881     -412.64239      0              7290.7714      30.944         21.33497       32.602772      21524.002      8051.9831      7110.1599      6710.1712     -1133.1796      768.49783     -1363.7162    
  41252000   259.66038     -412.51838     -325.55473     -412.484        0              3832.9772      30.944         21.33497       32.849456      21686.86       3681.5652      4586.7226      3230.6437      277.73562      13.774411     -1000.3637    
  41254000   252.06288     -407.76524     -323.3461      -407.71308      0              5866.2946      30.944         21.33497       32.641239      21549.397      7004.5508      6230.0524      4364.2807      84.513936      2691.506      -115.70303    
  41256000   255.45483     -409.15494     -323.59978     -409.14135      0              3731.9794      30.944         21.33497       32.642065      21549.942      3490.8672      2891.8402      4813.2308     -123.80812     -332.38136      655.96363    
  41258000   255.18489     -408.64065     -323.17591     -408.61329      0              7278.0237      30.944         21.33497       32.621509      21536.371      5727.1474      7745.5851      8361.3388      901.45711      706.05596     -268.82802    
  41260000   258.17215     -410.52767     -324.06245     -410.49786      0              6288.0936      30.944         21.33497       32.680199      21575.118      7203.3832      5873.9748      5786.9227      666.31318     -845.11254     -877.06961    
  41262000   259.65834     -410.25467     -323.29171     -410.22925      0              5698.7635      30.944         21.33497       32.563207      21497.881      5130.4003      5779.9752      6185.9151     -466.00162     -943.59504     -1576.7746    
  41264000   255.09774     -410.12901     -324.69345     -410.10171      0              8063.6671      30.944         21.33497       32.511627      21463.829      7892.3025      7674.8998      8623.7991      1485.6433      294.97442     -1287.3776    
  41266000   254.42636     -412.05571     -326.845       -412.02602      0              6510.979       30.944         21.33497       32.519084      21468.752      6247.1111      6259.5012      7026.3247     -383.56244      78.502477      138.41476    
  41268000   253.43803     -411.16206     -326.28236     -411.135        0              6340.8391      30.944         21.33497       32.559604      21495.503      5577.0969      7351.3491      6094.0714     -426.8183       2146.8613     -14.100292    
  41270000   256.59297     -414.36985     -328.43351     -414.34116      0              6649.8567      30.944         21.33497       32.788932      21646.903      4357.3485      9051.2796      6540.9421      854.69461      507.34007      1736.4864    
  41272000   253.00399     -409.91502     -325.18068     -409.88391      0              7953.3478      30.944         21.33497       32.739577      21614.319      7248.9047      8950.4715      7660.6671     -865.80528     -672.11494      968.31876    
  41274000   260.2129      -410.00628     -322.85759     -409.95977      0              5815.3104      30.944         21.33497       32.679353      21574.56       6894.7581      6494.7912      4056.3821      737.58975     -672.30789     -1284.8744    
  41276000   265.13012     -409.99017     -321.19464     -409.94071      0              6352.5636      30.944         21.33497       32.724299      21604.233      7483.9395      7154.882       4418.8693      1002.3937     -2113.8817      425.34374    
  41278000   259.00511     -409.69482     -322.95063     -409.64882      0              5391.6532      30.944         21.33497       32.780144      21641.101      6227.6767      3773.952       6173.3308      504.22874      305.68143      762.67159    
  41280000   253.35335     -410.45973     -325.60839     -410.42313      0              7135.2075      30.944         21.33497       32.566572      21500.103      7238.3535      6975.078       7192.191      -404.39374      238.42896     -325.77583    
  41282000   259.6161      -407.61294     -320.66413     -407.56277      0              5442.3294      30.944         21.33497       32.578757      21508.147      4960.6413      6716.1821      4650.1647     -1091.5692      62.199967     -832.36923    
  41284000   250.16192     -408.9999      -325.21741     -408.97948      0              5465.3033      30.944         21.33497       32.48713       21447.656      5048.4613      5890.6899      5456.7586     -1593.0574     -21.479399      409.76108    
  41286000   254.23936     -409.52048     -324.37241     -409.49047      0              6708.6996      30.944         21.33497       32.698906      21587.468      7260.5973      6789.7833      6075.7182     -149.65594      2919.9281     -133.14961    
  41288000   253.46556     -410.40336     -325.51444     -410.37507      0              6100.9795      30.944         21.33497       32.762125      21629.205      6745.5536      5111.0519      6446.333       879.13271      1031.9954     -392.44898    
  41290000   252.13811     -411.31846     -326.87412     -411.30186      0              5872.3191      30.944         21.33497       32.436105      21413.97       5431.8689      4988.2099      7196.8785      103.77186     -495.41431     -1574.5379    
  41292000   251.5933      -409.89388     -325.63201     -409.86774      0              5812.1415      30.944         21.33497       32.488198      21448.361      5330.2881      6178.0269      5928.1096      416.3189       606.16246     -511.50792    
  41294000   263.65131     -410.96333     -322.66306     -410.92023      0              7099.2824      30.944         21.33497       32.713936      21597.391      6737.5571      8020.9007      6539.3895     -503.11699      527.28359     -60.43555     
  41296000   250.29577     -410.761       -326.93369     -410.7269       0              3525.124       30.944         21.33497       32.626714      21539.808      3549.1687      4050.9855      2975.2178      617.16142      157.84167      1322.8056    
  41298000   264.09196     -411.14987     -322.70203     -411.09881      0              5615.6012      30.944         21.33497       32.672029      21569.724      6831.6633      4886.779       5128.3614     -331.08981      348.76441     -89.056072    
  41300000   248.99683     -410.06576     -326.67347     -410.0349       0              6847.6468      30.944         21.33497       32.497522      21454.517      6635.9906      6207.5775      7699.3724     -643.6479      -745.4404       473.33674    
  41302000   253.46498     -412.32004     -327.43131     -412.2871       0              6049.5428      30.944         21.33497       32.471424      21437.287      6176.6695      6512.0585      5459.9003      4.5409419     -27.178777      297.33718    
  41304000   249.97767     -407.36269     -323.64191     -407.3166       0              4191.3969      30.944         21.33497       32.460762      21430.248      2666.358       5405.6722      4502.1605      1316.4883     -315.69583      878.48704    
  41306000   261.23435     -412.1448      -324.65401     -412.09615      0              4893.1942      30.944         21.33497       32.741585      21615.645      4607.4454      5516.7592      4555.378      -819.64694      46.757901      445.18315    
  41308000   257.22944     -410.89099     -324.7415      -410.85977      0              6864.0184      30.944         21.33497       32.653834      21557.712      6921.6127      5121.9164      8548.5262     -125.47147      999.1088       2219.2368    
  41310000   258.67011     -409.09226     -322.46027     -409.05499      0              4046.6314      30.944         21.33497       32.691749      21582.743      3542.064       3810.6551      4787.1751     -236.81741      393.73659      1705.0781    
  41312000   262.19482     -412.32469     -324.51222     -412.2948       0              5250.7813      30.944         21.33497       32.628247      21540.82       4861.8199      5843.1379      5047.386      -502.93931      2530.6229      1376.4335    
  41314000   252.57191     -409.47641     -324.88678     -409.42667      0              5997.8299      30.944         21.33497       32.647844      21553.758      6619.7979      4909.9248      6463.7668     -95.846208      343.60168     -830.84354    
  41316000   251.80271     -410.48079     -326.14878     -410.44112      0              6695.1725      30.944         21.33497       32.817549      21665.795      7027.05        6843.688       6214.7796     -817.40211      1179.0821      1007.5225    
  41318000   252.3038      -412.60726     -328.10743     -412.55586      0              5497.531       30.944         21.33497       32.639407      21548.188      3822.5752      7028.6336      5641.3842      862.90439      2990.6011      1353.1371    
  41320000   266.83672     -412.92595     -323.55885     -412.87807      0              8240.8891      30.944         21.33497       32.519278      21468.88       9552.7954      6923.3448      8246.5271      707.76483     -195.58696     -261.69738    
  41322000   258.8255      -409.86265     -323.17861     -409.81671      0              6262.8625      30.944         21.33497       32.57037       21502.61       6308.1568      7164.614       5315.8167      529.34799     -180.65382     -1087.4981    
  41324000   257.00897     -414.26652     -328.19086     -414.23639      0              6830.9087      30.944         21.33497       32.614398      21531.677      7316.8136      5182.2405      7993.6719     -391.49214      1137.3408     -1051.6082    
  41326000   266.4256      -412.08563     -322.85622     -412.03922      0              4359.5038      30.944         21.33497       32.776075      21638.414      5818.4864      5273.5818      1986.4431      513.81697     -287.45297      591.72041    
  41328000   246.12196     -410.35944     -327.92998     -410.31202      0              4312.3679      30.944         21.33497       32.613297      21530.95       3884.4777      5547.5866      3505.0395     -401.81665     -266.18146      295.80647    
  41330000   249.92402     -411.71021     -328.0074      -411.681        0              6004.2822      30.944         21.33497       32.513441      21465.026      6821.3762      5877.84        5313.6304     -924.60245      1903.2543      1004.393     
  41332000   253.06194     -411.13979     -326.38605     -411.09121      0              9260.2754      30.944         21.33497       32.386809      21381.425      11016.203      7078.101       9686.5225     -3255.5748     -598.60504      331.26193    
  41334000   249.76145     -410.73067     -327.08231     -410.68579      0              6645.5994      30.944         21.33497       32.340669      21350.964      6578.6879      6390.1974      6967.9128     -79.342525     -147.08002     -248.44535    
  41336000   251.88298     -409.7936      -325.43471     -409.75276      0              5951.4409      30.944         21.33497       32.427567      21408.333      7715.1685      5333.4843      4805.6697     -1015.4929      156.02681      1087.5109    
  41338000   258.17719     -411.07436     -324.60746     -411.02735      0              5236.8679      30.944         21.33497       32.450564      21423.515      6542.9123      4069.9734      5097.7179     -912.4874       647.94406      720.8295     
  41340000   253.38537     -410.80347     -325.9414      -410.76775      0              5725.3569      30.944         21.33497       32.653279      21557.346      5897.8974      7148.3215      4129.8518      190.30704      1166.3782     -546.74078    
  41342000   254.46325     -409.91568     -324.69262     -409.86761      0              6578.5734      30.944         21.33497       32.773675      21636.83       6698.8611      8196.5157      4840.3436     -1105.0232      1120.9295     -1157.6983    
  41344000   255.47982     -413.53667     -327.97315     -413.50041      0              5033.7712      30.944         21.33497       32.700601      21588.587      4424.1267      4539.8197      6137.3671     -642.74381      313.34984      958.64649    
  41346000   255.99883     -412.52959     -326.79224     -412.48442      0              5495.9431      30.944         21.33497       32.674835      21571.577      4795.3372      4350.6746      7341.8175     -603.33994      370.48894     -312.03094    
  41348000   258.13479     -412.80417     -326.35147     -412.7638       0              5476.9405      30.944         21.33497       32.672964      21570.342      7213.0802      3586.8073      5630.9339     -463.14381     -3.4398953      1144.6225    
  41350000   257.00544     -410.76132     -324.68685     -410.70977      0              4996.0864      30.944         21.33497       32.703052      21590.205      6633.5951      5241.3223      3113.3419     -247.32979     -943.6811      -1139.7116    
  41352000   251.59781     -411.36407     -327.10068     -411.31359      0              6232.338       30.944         21.33497       32.737267      21612.794      5750.4191      6034.7235      6911.8715      656.41509     -1422.5197      576.97442    
  41354000   257.38964     -409.80445     -323.60131     -409.77264      0              6065.5839      30.944         21.33497       32.581671      21510.071      6982.2866      5007.4212      6207.0439     -275.05389     -822.74612     -344.29068    
  41356000   258.75927     -409.88837     -323.22651     -409.83687      0              5700.5807      30.944         21.33497       32.538725      21481.719      5156.5368      5445.1177      6500.0877     -512.08159      318.13278     -1259.3951    
  41358000   247.86112     -409.17926     -326.16734     -409.12916      0              6549.9575      30.944         21.33497       32.564972      21499.046      6834.8697      6764.8771      6050.1257     -720.61682      69.092435      526.53546    
  41360000   257.46989     -412.16259     -325.93256     -412.1111       0              7409.4642      30.944         21.33497       32.526075      21473.367      5816.7235      8393.5417      8018.1275     -714.27842     -1213.9184      267.22881    
  41362000   253.62886     -411.6381      -326.69449     -411.60585      0              6112.3509      30.944         21.33497       32.756308      21625.364      5380.5914      5213.1987      7743.2625      13.676141      1411.3903      2002.9761    
  41364000   262.82151     -411.79083     -323.76848     -411.74022      0              5160.1269      30.944         21.33497       32.613967      21531.392      2985.2787      8478.998       4016.1038      786.82007      317.33961      865.85554    
  41366000   250.35777     -413.65776     -329.80968     -413.6064       0              4960.4863      30.944         21.33497       32.651515      21556.181      6551.4147      3768.8118      4561.2324      223.57637     -770.73257      741.66859    
  41368000   253.77517     -410.32931     -325.3367      -410.28893      0              7597.8471      30.944         21.33497       32.510065      21462.797      8297.4274      6032.9699      8463.144       1543.1919     -714.73458      728.08376    
  41370000   259.82385     -410.98838     -323.96998     -410.95048      0              7136.3681      30.944         21.33497       32.473279      21438.511      6465.5206      7864.1617      7079.422       1768.7927      1163.8172      439.95305    
  41372000   255.24241     -411.67101     -326.187       -411.63498      0              7027.8536      30.944         21.33497       32.608871      21528.028      8408.864       6838.1781      5836.5186      336.84218     -194.45246      791.50167    
  41374000   246.37118     -409.31208     -326.79916     -409.28877      0              6492.7239      30.944         21.33497       32.313174      21332.812      6145.0195      6353.1883      6979.9638      160.85668      939.98247      619.97261    
  41376000   255.55593     -412.79981     -327.2108      -412.76414      0              9275.7091      30.944         21.33497       32.351719      21358.259      9497.0242      8631.0475      9699.0556     -905.45492      330.50717      488.47956    
  41378000   254.8071      -413.91448     -328.57626     -413.87068      0              7317.6927      30.944         21.33497       32.474151      21439.087      8372.9573      6846.4064      6733.7146      950.93866      1013.4277      367.96407    
  41380000   259.36474     -415.59753     -328.73289     -415.56075      0              6918.1133      30.944         21.33497       32.599794      21522.035      7841.756       7512.9493      5399.6346      2349.9858     -118.81477      571.2973     
  41382000   253.51316     -411.41769     -326.51283     -411.36683      0              5003.4871      30.944         21.33497       32.802556      21655.897      4715.2491      6201.8471      4093.365       1792.5314     -206.89662     -1058.7498    
  41384000   250.5582      -415.73625     -331.82104     -415.70754      0              4333.7753      30.944         21.33497       32.632503      21543.629      4009.7271      4211.5743      4780.0247      211.34035      619.83794     -361.81913    
  41386000   254.63056     -410.9915      -325.71241     -410.96591      0              7245.0145      30.944         21.33497       32.47394       21438.948      8408.618       9145.9899      4180.4357     -90.475794      213.77461     -191.85386    
  41388000   252.67481     -410.341       -325.71691     -410.30582      0              6579.6713      30.944         21.33497       32.581967      21510.266      7805.4794      8076.2711      3857.2634      677.10281     -415.98222      1425.597     
  41390000   253.40682     -411.07135     -326.20211     -411.03095      0              7036.5112      30.944         21.33497       32.526437      21473.606      5433.4865      7880.3914      7795.6559      846.87412     -107.09194      413.43591    
  41392000   253.69987     -411.185       -326.2176      -411.13405      0              5140.9989      30.944         21.33497       32.683404      21577.234      4041.7465      6045.5989      5335.6514      285.03355      1792.0623      1733.2955    
  41394000   256.65894     -412.23324     -326.27481     -412.18988      0              5763.4726      30.944         21.33497       32.764602      21630.84       5565.465       5840.8406      5884.1122      1284.1847      391.42665      2341.3555    
  41396000   255.01701     -410.00246     -324.59394     -409.95861      0              7477.6285      30.944         21.33497       32.588654      21514.681      7399.7818      8599.4347      6433.6691      69.091666     -147.06969      207.73534    
  41398000   250.21809     -411.68209     -327.88079     -411.65162      0              7248.1365      30.944         21.33497       32.522877      21471.256      8990.0797      7691.6386      5062.6912     -1082.4979      0.63797853     162.52304    
  41400000   256.48467     -412.43987     -326.53981     -412.39066      0              5219.6724      30.944         21.33497       32.679718      21574.801      3182.8916      5948.0364      6528.0891      782.80746      1559.3412      1541.9126    
  41402000   254.05295     -414.9297      -329.84405     -414.89847      0              5117.615       30.944         21.33497       32.568689      21501.5        6406.4473      3418.8434      5527.5542     -47.621279      458.9936       679.58029    
  41404000   245.35283     -413.31797     -331.14611     -413.28173      0              6040.4623      30.944         21.33497       32.407609      21395.157      7523.6243      5099.1217      5498.6409     -50.000843     -44.37821       1665.9067    
  41406000   257.922       -412.1869      -325.80546     -412.14322      0              5439.9101      30.944         21.33497       32.581193      21509.756      6389.7681      5016.0372      4913.9251     -32.064586      249.98591      286.54143    
  41408000   250.66477     -412.75177     -328.80087     -412.70061      0              5894.1458      30.944         21.33497       32.587613      21513.993      9093.8124      3213.5057      5375.1193      940.20241      951.61504      2575.6197    
  41410000   250.64025     -410.82752     -326.88484     -410.8014       0              5093.9553      30.944         21.33497       32.455341      21426.669      5526.1934      4785.2789      4970.3934      1316.3614     -451.17106      114.90775    
  41412000   251.01955     -411.36919     -327.29947     -411.35258      0              6588.1672      30.944         21.33497       32.564568      21498.78       8746.7621      6353.7807      4663.9586     -597.83838      428.08938     -301.16828    
  41414000   254.43685     -407.63085     -322.41663     -407.59362      0              5968.6012      30.944         21.33497       32.419522      21403.022      6277.983       6276.4828      5351.3379      235.60688      116.61389     -1373.859     
  41416000   252.42014     -412.97384     -328.43505     -412.92831      0              5656.5968      30.944         21.33497       32.491434      21450.497      5982.2151      3816.338       7171.2373     -335.31041      1340.6366     -814.74298    
  41418000   254.2345      -410.97067     -325.82423     -410.92088      0              5484.2526      30.944         21.33497       32.534966      21479.237      5804.1783      5246.8054      5401.7743      1385.5668     -918.9262       625.63387    
  41420000   248.98336     -413.56751     -330.17974     -413.54543      0              5354.148       30.944         21.33497       32.474905      21439.585      3887.8818      4981.8211      7192.741       1823.095       1706.2272      348.02162    
  41422000   254.81138     -413.7972      -328.45754     -413.7805       0              6144.4041      30.944         21.33497       32.623382      21537.608      5776.1318      6643.7881      6013.2925     -793.21452      568.32677     -700.86191    
  41424000   258.75446     -412.76702     -326.10678     -412.74693      0              5844.4972      30.944         21.33497       32.47824       21441.787      7175.7664      6274.2458      4083.4794      856.22982     -1204.5665      466.20648    
  41426000   257.25373     -413.92934     -327.77171     -413.90694      0              6661.8574      30.944         21.33497       32.458876      21429.003      6244.2987      7814.6012      5926.6724     -2997.4301     -845.63821      399.37199    
  41428000   253.32744     -413.89979     -329.05713     -413.86577      0              6902.3548      30.944         21.33497       32.631442      21542.929      7395.9703      7317.9931      5993.101      -281.31118     -825.01753     -519.33969    
  41430000   248.59082     -415.90638     -332.65007     -415.88056      0              5707.0696      30.944         21.33497       32.446786      21421.022      5765.2739      3990.4764      7365.4584     -492.57218     -2939.8146      1787.1377    
  41432000   255.81981     -412.79789     -327.1205      -412.76026      0              6047.7272      30.944         21.33497       32.637022      21546.613      6880.079       8108.4494      3154.6533      47.607718      1135.2955      1543.8585    
  41434000   252.31838     -412.36476     -327.86005     -412.34184      0              5127.6459      30.944         21.33497       32.777011      21639.032      5488.9991      7129.2292      2764.7095      1186.1501     -1637.6901     -778.55011    
  41436000   252.33974     -412.19923     -327.68736     -412.15979      0              4774.0388      30.944         21.33497       32.724364      21604.275      5352.501       4684.8013      4284.8139     -1340.4713      329.23472      1614.5623    
  41438000   254.59075     -413.70195     -328.43619     -413.65971      0              4950.9077      30.944         21.33497       32.912763      21728.654      7232.5332      3045.5993      4574.5905     -1223.6221     -663.52698     -2077.5685    
  41440000   262.6673      -411.92098     -323.95027     -411.87141      0              4116.792       30.944         21.33497       32.817309      21665.637      4195.4185      5277.1444      2877.8132      1028.3599      260.05218     -631.41051    
  41442000   263.44225     -412.23117     -324.00092     -412.18245      0              6714.5552      30.944         21.33497       32.850628      21687.633      8431.273       5904.1508      5808.2416     -766.10406      1989.6412      1427.5816    
  41444000   250.58656     -414.50643     -330.58172     -414.45647      0              6876.0942      30.944         21.33497       32.70001       21588.197      6313.2655      7938.7814      6376.2356      1742.3727     -330.58115     -487.90116    
  41446000   246.9988      -412.21641     -329.49329     -412.16651      0              6954.2614      30.944         21.33497       32.772959      21636.357      6804.4978      6565.88        7492.4064     -1031.801      -1090.2725     -374.24587    
  41448000   256.12364     -413.25278     -327.47363     -413.20428      0              5033.0975      30.944         21.33497       32.672184      21569.826      6134.9208      4625.0546      4339.3171      775.09802     -116.99222     -2027.6524    
  41450000   258.44624     -411.34992     -324.7929      -411.3081       0              7517.7343      30.944         21.33497       32.449798      21423.01       5655.2004      8065.3848      8832.6178     -168.23254      1778.2486     -266.35427    
  41452000   261.06896     -414.53768     -327.10229     -414.50344      0              6206.0984      30.944         21.33497       32.725813      21605.232      5585.2438      5985.814       7047.2374      659.0769      -127.74723      7.8572138    
  41454000   254.53431     -410.53164     -325.28478     -410.48413      0              7543.3752      30.944         21.33497       32.606152      21526.233      8783.4277      6847.1435      6999.5544     -853.31366     -620.97218      181.9044     
  41456000   257.16716     -412.41874     -326.29011     -412.37344      0              5482.7248      30.944         21.33497       32.688805      21580.8        5860.9262      4760.3377      5826.9105      265.23375     -117.12662     -596.91185    
  41458000   248.41573     -412.39656     -329.1989      -412.35016      0              6148.7979      30.944         21.33497       32.751457      21622.162      5888.2795      4807.4604      7750.6537     -335.87227      1288.4545      1474.0664    
  41460000   257.65593     -413.63843     -327.3461      -413.59084      0              7396.3594      30.944         21.33497       32.535938      21479.878      6003.0399      7211.4564      8974.5818     -412.79387      114.57855     -84.113834    
  41462000   254.16984     -412.43198     -327.30718     -412.39062      0              6182.8099      30.944         21.33497       32.684679      21578.076      6338.004       4793.8405      7416.5852     -455.10485     -614.68286      756.8756     
  41464000   258.25025     -413.59205     -327.10067     -413.55275      0              5578.2314      30.944         21.33497       32.7625        21629.452      6921.5198      5740.6121      4072.5623      494.12935      653.78164     -711.8264     
  41466000   252.84936     -414.77829     -330.09574     -414.72828      0              4974.7006      30.944         21.33497       32.878467      21706.013      5831.5924      6138.0762      2954.4331     -906.13442      525.11586     -734.20056    
  41468000   254.13507     -412.99272     -327.87958     -412.94247      0              6016.6137      30.944         21.33497       32.724913      21604.638      4772.7527      7448.1004      5828.9881     -769.13095      1596.0557     -1425.2212    
  41470000   256.03395     -410.61434     -324.86523     -410.57068      0              6116.395       30.944         21.33497       32.744605      21617.638      7551.5851      5239.9188      5557.6812     -1122.8453     -13.032109      482.17442    
  41472000   249.69986     -414.07119     -330.44345     -414.02618      0              4988.4538      30.944         21.33497       32.692806      21583.441      5751.6247      5810.2974      3403.4393      2642.3683     -35.394968      2013.1698    
  41474000   252.59613     -411.72937     -327.13163     -411.68227      0              6628.6845      30.944         21.33497       32.738068      21613.323      6288.8983      7838.7644      5758.3908      1772.1055     -2030.4887      125.72098    
  41476000   246.83151     -411.90305     -329.23596     -411.85623      0              7214.25        30.944         21.33497       32.665195      21565.213      6399.2998      7116.3924      8127.0579     -200.48069     -330.92545     -425.954      
  41478000   255.5012      -411.97799     -326.40731     -411.93903      0              5867.4461      30.944         21.33497       32.588301      21514.448      4602.7243      6709.8966      6289.7173     -528.23272      515.81627      55.08523     
  41480000   251.51358     -414.32174     -330.08656     -414.28042      0              2721.9289      30.944         21.33497       32.727475      21606.329      2262.772       4334.7497      1568.265      -658.52747      1437.8579      1003.1467    
  41482000   253.20746     -416.29653     -331.49405     -416.27599      0              5431.0251      30.944         21.33497       32.654641      21558.245      6437.2439      4175.347       5680.4843      46.514069      248.14872      1733.824     
  41484000   249.63075     -413.45466     -329.85006     -413.42618      0              6170.1458      30.944         21.33497       32.558828      21494.99       6083.8978      6127.1074      6299.4322      963.2566      -334.76555     -1105.5467    
  41486000   255.73108     -409.26622     -323.61854     -409.2337       0              7196.1584      30.944         21.33497       32.56917       21501.818      6936.5094      7579.4597      7072.5062      362.47263      1253.7991     -994.15544    
  41488000   250.73462     -413.82255     -329.84826     -413.78837      0              7187.0642      30.944         21.33497       32.551939      21490.442      6747.635       8881.1832      5932.3745     -143.65742      663.44481      257.11471    
  41490000   250.73557     -412.50699     -328.53238     -412.47126      0              5942.5179      30.944         21.33497       32.626533      21539.688      5610.1061      7091.5836      5125.8639     -40.724922      249.45414     -341.61637    
  41492000   260.24966     -414.59451     -327.43351     -414.56718      0              5879.0176      30.944         21.33497       32.803238      21656.347      7100.9706      6544.1025      3991.9797      472.23895     -130.94746      137.29783    
  41494000   259.94107     -413.4685      -326.41084     -413.43721      0              6140.5488      30.944         21.33497       32.787053      21645.662      6980.1625      3533.9034      7907.5807      75.356145      1612.8628      752.72176    
  41496000   260.62881     -414.22944     -326.94146     -414.19477      0              6772.2687      30.944         21.33497       32.584627      21512.022      6368.1235      8632.6827      5315.9998      488.71036      700.55654     -629.48915    
  41498000   257.85778     -410.00396     -323.64403     -409.95688      0              3924.3751      30.944         21.33497       32.644008      21551.225      5417.2839      1799.7724      4556.0688     -2304.3116      793.20104     -11.164533    
  41500000   257.05993     -412.83886     -326.74614     -412.7922       0              7014.863       30.944         21.33497       32.646298      21552.737      8008.8481      5685.6387      7350.1023     -123.05409     -1678.819       1572.8259    
  41502000   254.87928     -410.13441     -324.77202     -410.0844       0              6170.1422      30.944         21.33497       32.722088      21602.772      6508.0572      6619.8174      5382.552      -1070.5737      549.98171     -866.71599    
  41504000   249.35428     -410.11914     -326.60714     -410.07672      0              6103.6659      30.944         21.33497       32.732042      21609.344      6120.7668      6536.1037      5654.1272     -76.489331      807.95249      893.80907    
  41506000   257.19417     -411.99313     -325.85545     -411.95612      0              6704.8065      30.944         21.33497       32.542994      21484.537      6444.9665      6317.7622      7351.6908      1293.3347     -888.06771     -732.53444    
  41508000   253.71628     -411.6631      -326.69021     -411.63412      0              6930.8114      30.944         21.33497       32.520439      21469.646      4061.0996      7835.615       8895.7197      1306.7176      158.00028      114.96612    
  41510000   250.12775     -411.84234     -328.0713      -411.81448      0              7149.0813      30.944         21.33497       32.585201      21512.401      6493.3865      8321.9943      6631.8631     -1037.1214      907.61551      887.36651    
  41512000   250.92175     -413.06312     -329.02615     -413.02461      0              5512.2999      30.944         21.33497       32.653885      21557.746      6305.7505      3867.2225      6363.9267     -911.40714      283.73831     -577.68283    
  41514000   253.01737     -412.63108     -327.89226     -412.5956       0              5721.3286      30.944         21.33497       32.571172      21503.14       3153.1123      7423.6481      6587.2255      583.39269      1205.613      -502.49074    
  41516000   257.23325     -409.97762     -323.82685     -409.94456      0              3520.1594      30.944         21.33497       32.521236      21470.173      2661.9057      4609.1949      3289.3777     -161.00859      2354.3404     -2041.2745    
  41518000   252.30719     -413.08452     -328.58355     -413.03475      0              6976.9843      30.944         21.33497       32.452742      21424.953      6613.6256      7290.5305      7026.7967      1007.8166      968.30618      437.70779    
  41520000   254.57865     -412.65208     -327.39037     -412.62799      0              6913.6653      30.944         21.33497       32.658085      21560.519      5984.2128      8108.8074      6647.9758     -379.91091      2145.2433      797.26334    
  41522000   262.27466     -411.81077     -323.97157     -411.79273      0              6360.9763      30.944         21.33497       32.742272      21616.098      6935.1088      8597.6991      3550.1211      2139.9392     -814.37368     -1056.0696    
  41524000   250.91847     -412.20462     -328.16876     -412.19051      0              3405.281       30.944         21.33497       32.485706      21446.716      2435.0892      3980.2515      3800.5023      1218.2381      170.67604      2791.8244    
  41526000   255.51951     -411.42193     -325.84511     -411.39919      0              6635.6854      30.944         21.33497       32.560831      21496.313      7741.7531      6124.0882      6041.2149     -559.7667      -308.07734     -1254.9265    
  41528000   250.70504     -413.45033     -329.48595     -413.41697      0              6055.7019      30.944         21.33497       32.642938      21550.519      5740.7794      7705.7135      4720.6129     -1372.1196     -205.51512      158.12214    
  41530000   255.14742     -410.12227     -324.67007     -410.09426      0              6965.3291      30.944         21.33497       32.526889      21473.905      6634.0055      8077.5398      6184.4422      1050.0407     -1842.6704     -165.23717    
  41532000   261.67127     -410.23527     -322.59815     -410.18814      0              4511.2189      30.944         21.33497       32.629179      21541.435      4926.426       4786.5215      3820.7094      259.73087     -395.06784     -137.29942    
  41534000   252.64882     -410.57622     -325.96084     -410.5354       0              4022.3308      30.944         21.33497       32.644966      21551.858      4776.948       3127.0834      4162.961      -135.92283     -438.33201     -1507.1485    
  41536000   255.16831     -412.44149     -326.98229     -412.39999      0              7225.8741      30.944         21.33497       32.686572      21579.326      8267.5731      6766.6513      6643.398      -200.08656      375.85322      155.41922    
  41538000   248.84639     -412.16025     -328.81835     -412.14673      0              3856.7992      30.944         21.33497       32.626412      21539.609      615.4774       4780.1804      6174.7397      644.95675     -455.77477      332.86784    
  41540000   253.99106     -409.19998     -324.13506     -409.18052      0              7497.841       30.944         21.33497       32.685946      21578.912      7605.8026      7591.1489      7296.5714     -795.6053       1084.9047     -1477.6076    
  41542000   252.3764      -412.68596     -328.16182     -412.65455      0              5669.5658      30.944         21.33497       32.677527      21573.354      7722.5856      6456.6209      2829.4909     -608.26171     -284.66602      44.379061    
  41544000   256.50773     -412.70518     -326.7974      -412.65591      0              6897.566       30.944         21.33497       32.630906      21542.575      8869.2121      4138.3662      7685.1199      302.76221      1127.7009      1169.3775    
  41546000   254.40639     -413.51851     -328.3145      -413.50934      0              5660.421       30.944         21.33497       32.564056      21498.442      5364.6914      5542.2593      6074.3124     -416.57022     -149.34353     -984.75362    
  41548000   254.98952     -410.35586     -324.95655     -410.32821      0              6619.8326      30.944         21.33497       32.700313      21588.397      7253.4003      7354.9197      5251.1779     -424.15468     -33.394135     -1476.5019    
  41550000   253.54415     -412.56478     -327.64954     -412.53788      0              6649.9396      30.944         21.33497       32.523005      21471.34       8113.6002      5560.749       6275.4696      614.54849     -1824.3439      330.22334    
  41552000   257.73297     -412.13735     -325.81922     -412.11751      0              6936.1749      30.944         21.33497       32.553441      21491.434      7570.3369      7202.9093      6035.2784     -362.9444      -778.53939     -142.3343     
  41554000   255.531       -410.49059     -324.90992     -410.45161      0              6939.84        30.944         21.33497       32.583397      21511.21       8344.6897      7353.1793      5121.651       1053.7996      72.712902     -204.56776    
  41556000   250.38747     -411.41971     -327.56168     -411.38582      0              7682.7243      30.944         21.33497       32.681925      21576.257      6541.0578      7694.7276      8812.3875     -619.6511       614.80797     -216.73306    
  41558000   264.07318     -413.16295     -324.7214      -413.13716      0              6576.9415      30.944         21.33497       32.469648      21436.115      5255.3053      7279.319       7196.2001     -605.40958      518.1086      -1468.2737    
  41560000   258.28525     -413.12907     -326.62598     -413.10298      0              5114.6465      30.944         21.33497       32.513226      21464.885      4926.163       4890.5527      5527.2237      70.92302       301.95799     -2029.8545    
  41562000   257.38078     -412.95305     -326.75287     -412.91586      0              6693.3689      30.944         21.33497       32.645878      21552.46       9015.6706      4776.9202      6287.5159      712.81443      347.39497      633.06044    
  41564000   249.88254     -415.06196     -331.37304     -415.03667      0              6796.3382      30.944         21.33497       32.652302      21556.701      8116.5511      6553.9284      5718.535       320.06267     -2.2649258      1133.3075    
  41566000   256.75488     -414.01144     -328.02088     -413.99797      0              6355.372       30.944         21.33497       32.571714      21503.497      7045.8175      4194.5439      7825.7546      52.381557     -1560.352       1480.5608    
  41568000   256.13157     -410.17999     -324.39819     -410.16658      0              7136.1194      30.944         21.33497       32.551302      21490.022      7047.7762      6909.8597      7450.7223      1815.3765      84.229881     -631.95494    
  41570000   257.38751     -409.86119     -323.65876     -409.83122      0              4785.9208      30.944         21.33497       32.589954      21515.539      3145.015       5684.6516      5528.0959      1166.5934      385.41242      1581.3532    
  41572000   258.83451     -411.2288      -324.54175     -411.17948      0              6023.1297      30.944         21.33497       32.652809      21557.036      8176.9246      4558.6572      5333.8073     -134.42346     -497.81826      128.59026    
  41574000   252.8146      -414.00426     -329.33335     -413.96835      0              6594.6621      30.944         21.33497       32.584362      21511.848      5659.3264      7420.1422      6704.5178     -65.404801      185.60449      1259.8582    
  41576000   258.99395     -412.10024     -325.35979     -412.06676      0              7851.2403      30.944         21.33497       32.752462      21622.826      8125.6784      7430.3401      7997.7024      1581.4299     -427.21143      1172.8684    
  41578000   261.69216     -411.36305     -323.71894     -411.32115      0              6593.7189      30.944         21.33497       32.627313      21540.203      7188.2129      6181.7152      6411.2288      1353.7773     -1384.0279     -549.21886    
  41580000   258.39701     -409.73027     -323.18974     -409.69296      0              6703.9242      30.944         21.33497       32.671892      21569.634      6815.394       7165.9478      6130.4308      350.25307      1334.7614      448.4981     
  41582000   256.13328     -411.12848     -325.34611     -411.07889      0              4538.2905      30.944         21.33497       32.697886      21586.795      6430.9744      2563.4765      4620.4206      792.4369      -1051.8241     -830.84244    
  41584000   253.95224     -410.55797     -325.50606     -410.51011      0              6853.2258      30.944         21.33497       32.629659      21541.752      7829.7726      5992.6366      6737.2682     -504.00443     -688.81436      415.40294    
  41586000   253.30444     -410.14383     -325.30887     -410.10764      0              6407.0806      30.944         21.33497       32.749425      21620.821      6815.1957      8197.9546      4208.0915     -81.913231     -2365.3557     -710.52243    
  41588000   256.77252     -409.60716     -323.6107      -409.5584       0              6491.8589      30.944         21.33497       32.659264      21561.297      5524.6067      6606.6633      7344.3065      2804.0769      582.74781     -422.20393    
  41590000   256.77281     -413.91472     -327.91816     -413.88482      0              6430.5425      30.944         21.33497       32.613251      21530.92       6247.1652      6878.2769      6166.1853      55.631885     -894.72133      264.91573    
  41592000   259.85754     -411.38444     -324.35477     -411.33521      0              5622.5264      30.944         21.33497       32.669374      21567.971      6282.5036      4396.6025      6188.473       872.56944      242.91871     -510.49882    
  41594000   256.65346     -408.52239     -322.5658      -408.47617      0              7505.5049      30.944         21.33497       32.402927      21392.066      9359.5199      7012.7164      6144.2784      926.98698     -640.84326      843.37995    
  41596000   261.00798     -411.63959     -324.22461     -411.59936      0              5125.7236      30.944         21.33497       32.506572      21460.491      6916.6961      3443.8587      5016.6159     -1884.7123      802.07488     -657.39877    
  41598000   256.36315     -411.14        -325.28064     -411.11322      0              6162.3405      30.944         21.33497       32.347169      21355.255      4384.7681      5884.9799      8217.2735     -65.446907     -62.554832      488.51708    
[...]
  46318000   253.8129      -412.03428     -327.02903     -412.01107      0              7170.3915      30.944         21.33497       32.528156      21474.741      7939.8556      6163.0371      7408.2819      506.14547     -225.84492     -1254.0512    
  46320000   253.87704     -410.89611     -325.86938     -410.86304      0              6456.2054      30.944         21.33497       32.317519      21335.681      5528.944       6817.7699      7021.9023      792.89141      678.43264      925.80581    
  46322000   251.99774     -410.86671     -326.46938     -410.83477      0              5822.9664      30.944         21.33497       32.491755      21450.709      7144.1576      5207.9433      5116.7985      276.20818      1308.3282     -930.11538    
  46324000   266.77699     -409.92503     -320.57794     -409.89383      0              6315.2802      30.944         21.33497       32.532739      21477.767      7348.1229      6920.5274      4677.1902      97.815061     -203.72158     -15.163824    
  46326000   255.92119     -412.29088     -326.57954     -412.27321      0              7613.4308      30.944         21.33497       32.535688      21479.714      7116.1634      9293.557       6430.5718      774.39291     -847.27972      610.07582    
  46328000   251.01026     -410.71811     -326.6515      -410.69368      0              6547.0756      30.944         21.33497       32.30325       21326.26       7152.2106      5885.8212      6603.1949      1085.4982      2469.2954     -734.87401    
  46330000   254.82064     -409.50539     -324.16263     -409.48995      0              8648.691       30.944         21.33497       32.291888      21318.759      7732.8734      9300.9953      8912.2044      1190.2544      560.92375     -780.33954    
  46332000   253.63735     -412.01466     -327.0682      -412.00115      0              6425.729       30.944         21.33497       32.6046        21525.208      8088.922       4882.6435      6305.6214      532.17186     -1410.6198      1316.8135    
  46334000   253.42805     -410.65791     -325.78155     -410.63148      0              3910.3717      30.944         21.33497       32.65359       21557.551      3714.8031      3336.5532      4679.7586      1237.6218      350.263        1124.6702    
  46336000   253.73001     -409.45875     -324.48126     -409.43204      0              7127.047       30.944         21.33497       32.51524       21466.214      9584.4764      6771.4423      5025.2224      1035.492      -1636.3025      454.4578     
  46338000   250.64483     -414.67239     -330.72817     -414.65468      0              5469.2063      30.944         21.33497       32.509018      21462.106      4056.7651      5260.1843      7090.6696      1509.0391     -1571.8963     -1170.9083    
  46340000   251.43804     -409.58817     -325.37829     -409.55787      0              4306.5237      30.944         21.33497       32.51897       21468.676      4864.406       5069.6348      2985.5302     -152.46574     -432.13274      1369.4673    
  46342000   257.5974      -410.6758      -324.40308     -410.64612      0              6956.2811      30.944         21.33497       32.548299      21488.039      6470.2338      7363.6027      7035.0069      1303.891       1077.1062     -1204.0039    
  46344000   254.17477     -410.68521     -325.55877     -410.65978      0              5562.7016      30.944         21.33497       32.374691      21373.425      3742.9062      6183.0682      6762.1302      308.12136      1590.8014      1554.1803    
  46346000   254.50101     -411.70428     -326.46858     -411.67822      0              6798.3603      30.944         21.33497       32.432005      21411.263      5342.7235      6371.7154      8680.6418     -1763.9867     -525.66835      185.36585    
  46348000   253.12592     -410.0162      -325.24103     -409.98973      0              6070.8105      30.944         21.33497       32.462959      21431.699      4252.7901      8203.3705      5756.271       1343.523       957.49146     -1287.3412    
  46350000   258.32092     -412.12698     -325.61194     -412.11628      0              4827.7618      30.944         21.33497       32.502664      21457.912      4590.5799      4997.7004      4895.005      -256.19392     -1188.5093     -1687.9743    
  46352000   256.43008     -411.31211     -325.43033     -411.29322      0              7273.0544      30.944         21.33497       32.544517      21485.542      6187.0465      8599.4386      7032.678      -1845.4878     -90.779815     -1194.5243    
  46354000   254.22841     -412.52857     -327.38416     -412.50518      0              6609.1663      30.944         21.33497       32.577087      21507.045      5265.5946      6554.0323      8007.8721     -351.07537      1622.359       1536.7828    
  46356000   255.73286     -411.74103     -326.09276     -411.72928      0              5397.8723      30.944         21.33497       32.508307      21461.637      6268.6398      4578.6501      5346.3269      1270.0278     -47.886546     -428.33064    
  46358000   261.399       -412.02088     -324.47495     -412.00303      0              7398.9006      30.944         21.33497       32.578423      21507.926      7205.0574      7578.7573      7412.887       1049.8432      163.54201      169.76055    
  46360000   246.252       -412.14935     -329.67634     -412.11597      0              7082.0899      30.944         21.33497       32.484335      21445.81       7913.5034      7045.7229      6287.0432     -1621.347       423.23991     -319.73252    
  46362000   253.22016     -412.94822     -328.14149     -412.92768      0              5108.4059      30.944         21.33497       32.574176      21505.123      4634.5805      4457.235       6233.4023     -1269.0394     -2432.905       1917.7183    
  46364000   259.61719     -413.22491     -326.27573     -413.19142      0              6128.2636      30.944         21.33497       32.513631      21465.152      6972.5296      6907.295       4504.9663     -362.34646     -1163.0947     -153.69859    
  46366000   255.23271     -412.70508     -327.22432     -412.67165      0              6068.3757      30.944         21.33497       32.578635      21508.067      5397.4636      6230.5761      6577.0872      254.75725     -955.12884      723.15384    
  46368000   255.91276     -410.21449     -324.50597     -410.19207      0              4189.3456      30.944         21.33497       32.542227      21484.03       7543.0813      2602.6582      2422.2973      932.37999      388.54458     -424.26627    
  46370000   249.9242      -409.68984     -325.98697     -409.66481      0              5705.0012      30.944         21.33497       32.603186      21524.275      6772.4275      6258.6674      4083.9087      1191.2144     -886.91546     -1070.3517    
  46372000   251.75628     -412.42962     -328.11316     -412.41295      0              5533.2256      30.944         21.33497       32.621915      21536.64       6541.2679      5819.085       4239.324      -1213.7747      271.30001     -359.19583    
  46374000   258.5277      -412.20819     -325.62389     -412.18723      0              5445.6064      30.944         21.33497       32.80084       21654.764      5086.32        6434.0144      4816.4849     -732.1347       394.65886      1488.1656    
  46376000   252.57605     -412.01509     -327.42407     -411.98455      0              6452.5731      30.944         21.33497       32.657304      21560.003      7592.6145      5654.9281      6110.1768     -1390.8         53.734571      1082.1152    
  46378000   265.73488     -410.31341     -321.31533     -410.28867      0              6366.4917      30.944         21.33497       32.518991      21468.69       6158.0534      8516.9526      4424.4691      172.85332     -1148.4175     -1115.5972    
  46380000   260.32717     -411.776       -324.58904     -411.7443       0              4273.9824      30.944         21.33497       32.48968       21449.339      4023.2919      4399.764       4398.8912     -1352.4521     -504.38609     -485.52319    
  46382000   260.2895      -410.61807     -323.44373     -410.59306      0              6439.7992      30.944         21.33497       32.393753      21386.009      7439.6379      5227.0528      6652.707      -467.19753      19.082862      791.50799    
  46384000   253.91313     -408.86145     -323.82263     -408.83467      0              6665.0726      30.944         21.33497       32.645663      21552.318      5977.3813      6118.6422      7899.1942      94.330166      21.842054      1071.7877    
  46386000   251.97887     -410.2651      -325.8741      -410.23184      0              5882.9083      30.944         21.33497       32.582914      21510.891      5514.7349      6628.3969      5505.5931     -1447.6346     -910.11428     -880.54863    
  46388000   258.70748     -412.46375     -325.81924     -412.43192      0              6997.319       30.944         21.33497       32.540053      21482.595      7215.3488      7659.5491      6117.0591      1165.9093     -460.71469     -273.57708    
  46390000   259.1215      -413.68006     -326.89689     -413.64902      0              6670.4526      30.944         21.33497       32.369195      21369.796      5017.7281      8156.5364      6837.0933      136.49695     -248.33763     -1011.8443    
  46392000   263.22739     -412.19886     -324.04058     -412.17384      0              5822.2877      30.944         21.33497       32.442904      21418.459      6890.755       3905.0916      6671.0164      438.56666     -361.84042     -396.83907    
  46394000   255.13719     -409.67194     -324.22317     -409.64625      0              7054.0496      30.944         21.33497       32.517192      21467.502      6770.8318      7540.7412      6850.5759      691.99199     -615.56495     -77.248935    
  46396000   263.50977     -409.14189     -320.88903     -409.11853      0              5599.7534      30.944         21.33497       32.551864      21490.393      5477.0686      4845.3161      6476.8754     -68.305402      504.05608      1489.7949    
  46398000   255.84499     -411.70142     -326.01559     -411.68129      0              6799.8673      30.944         21.33497       32.504901      21459.388      5856.1159      6767.0569      7776.4293      966.41889      783.61813     -2649.2782    
  46400000   257.17736     -412.21168     -326.07963     -412.17897      0              4490.1279      30.944         21.33497       32.721604      21602.453      3270.5225      5726.3455      4473.5157      1281.1635     -176.07863      873.66124    
  46402000   253.82657     -410.1984      -325.18858     -410.17778      0              5541.7497      30.944         21.33497       32.791326      21648.483      7015.6248      3825.5123      5784.112       615.90717     -1552.5381      230.95685    
  46404000   243.8955      -412.7831      -331.09932     -412.75746      0              3440.1899      30.944         21.33497       32.755478      21624.817      4455.9752      2549.0216      3315.5728      1282.6166     -112.96871     -1267.7985    
  46406000   258.09866     -408.75333     -322.31273     -408.72272      0              6298.2228      30.944         21.33497       32.599691      21521.967      5735.7481      5797.6214      7361.2989      18.538707      1445.1795      94.945799    
  46408000   254.41624     -409.16884     -323.96153     -409.14595      0              7238.6797      30.944         21.33497       32.494253      21452.359      8599.8308      5520.7111      7595.4971     -1034.4346      114.88229      1739.7456    
  46410000   256.67712     -411.01165     -325.04714     -410.99307      0              7458.358       30.944         21.33497       32.601225      21522.98       7411.6499      7875.9939      7087.4302      680.93763      335.47068      114.16065    
  46412000   251.86627     -413.41006     -329.05677     -413.37924      0              6177.0688      30.944         21.33497       32.519279      21468.88       5424.1673      6967.5601      6139.4789      1395.6944      363.77498      731.9317     
  46414000   257.67102     -410.78154     -324.48416     -410.74897      0              6958.5664      30.944         21.33497       32.563061      21497.785      5344.2581      7134.9201      8396.5211      1718.3005      326.56272      1584.3653    
  46416000   257.42653     -412.7528      -326.5373      -412.72677      0              5597.3727      30.944         21.33497       32.686638      21579.369      3220.9784      6923.3008      6647.8387      1533.7651      1729.8785      733.11442    
  46418000   251.12247     -407.85053     -323.74634     -407.81764      0              7629.089       30.944         21.33497       32.314601      21333.754      8684.2009      7607.5178      6595.5484     -155.53139     -1869.8032     -28.959563    
  46420000   251.62804     -410.05269     -325.77917     -410.03011      0              7245.1064      30.944         21.33497       32.577336      21507.209      6717.5594      6097.2628      8920.497       990.05118      1745.0544     -1294.0759    
  46422000   259.74005     -410.11384     -323.12351     -410.08325      0              6021.8318      30.944         21.33497       32.657867      21560.375      5045.7478      6821.0604      6198.6872      835.68471      467.72483     -1059.8684    
  46424000   250.21641     -413.07162     -329.27089     -413.04204      0              5098.0797      30.944         21.33497       32.783279      21643.17       3451.6122      7209.3386      4633.2881     -135.03312     -391.34457      256.45047    
  46426000   257.97971     -413.73721     -327.33645     -413.71021      0              5920.0858      30.944         21.33497       32.630108      21542.049      6680.7392      5630.7518      5448.7664      1383.875       1652.8785     -843.41771    
  46428000   260.15961     -413.13059     -325.99974     -413.1012       0              5329.6138      30.944         21.33497       32.548391      21488.1        5408.4669      5462.4468      5117.9278      1524.2526     -1192.6402     -1066.2458    
  46430000   253.62845     -414.78714     -329.84366     -414.76127      0              7822.9512      30.944         21.33497       32.3274        21342.204      4932.2658      7247.474       11289.114      593.74846      2258.251       906.10363    
  46432000   257.37106     -414.28395     -328.08703     -414.26032      0              5843.7782      30.944         21.33497       32.535509      21479.595      6574.0352      5893.8929      5063.4065     -391.27123     -30.216797      86.665477    
  46434000   256.12734     -411.07825     -325.29787     -411.0519       0              6638.7739      30.944         21.33497       32.574638      21505.428      7843.5458      6981.6543      5091.1215      881.45393     -356.02436      267.67429    
  46436000   261.44179     -412.38813     -324.82787     -412.37689      0              5489.8973      30.944         21.33497       32.419217      21402.82       5631.2019      4878.0081      5960.4819      281.01753     -1292.792       1181.8828    
  46438000   251.15716     -412.89282     -328.77701     -412.86388      0              7734.2751      30.944         21.33497       32.380699      21377.391      7580.1059      6694.6166      8928.1026      601.71803     -962.22651      2172.439     
  46440000   254.1399      -412.83662     -327.72186     -412.81137      0              5823.9257      30.944         21.33497       32.677682      21573.456      5888.549       6317.8743      5265.3538      1375.1292      1505.567       7.4202059    
  46442000   254.43763     -412.90427     -327.68979     -412.88376      0              8122.7381      30.944         21.33497       32.664855      21564.988      9496.6161      7571.2402      7300.3581     -1973.2714     -924.49218     -27.098455    
  46444000   257.61775     -413.12952     -326.84998     -413.10351      0              5095.8697      30.944         21.33497       32.618973      21534.697      5833.3709      3870.8179      5583.4204      259.93868      364.25806      1256.2842    
  46446000   255.70666     -412.405       -326.76551     -412.37341      0              2350.9678      30.944         21.33497       32.684739      21578.115      4033.8282      386.17155      2632.9037     -830.42535      1444.4266     -74.87172     
  46448000   263.23389     -414.18715     -326.02669     -414.16675      0              4025.3262      30.944         21.33497       32.84072       21681.092      4586.1526      3163.6479      4326.178       900.07372      733.91517     -431.15986    
  46450000   261.63524     -413.48239     -325.85733     -413.45428      0              4696.1599      30.944         21.33497       32.702719      21589.985      4948.4736      2552.7591      6587.247       1265.8302      468.4235      -1232.2708    
  46452000   261.16399     -412.69185     -325.22462     -412.66854      0              8844.9004      30.944         21.33497       32.639809      21548.453      8133.4021      11276.719      7124.5807     -172.91006     -262.15531     -162.36779    
  46454000   263.30074     -413.5608      -325.37795     -413.53122      0              5616.1665      30.944         21.33497       32.656283      21559.329      6899.0706      6274.6902      3674.7386     -453.43885      891.84318     -1412.8776    
  46456000   250.92247     -413.29305     -329.25585     -413.26793      0              8308.3333      30.944         21.33497       32.575076      21505.717      8979.5349      6379.3326      9566.1324     -299.07097     -1026.057      -290.87563    
  46458000   252.93897     -413.07011     -328.35756     -413.03775      0              5939.8558      30.944         21.33497       32.542525      21484.227      6622.6148      6082.7322      5114.2205     -64.519835     -1727.9701      73.224351    
  46460000   248.09472     -412.72982     -329.63966     -412.70724      0              6119.0464      30.944         21.33497       32.599         21521.511      7803.6695      3614.7433      6938.7263     -853.86937      1410.7334      1322.9177    
  46462000   256.79285     -412.84539     -326.84212     -412.81665      0              6389.1326      30.944         21.33497       32.568881      21501.627      6666.5077      5955.6223      6545.2679      1052.0983      876.05953     -542.51594    
  46464000   260.20741     -412.51883     -325.37198     -412.50196      0              6409.398       30.944         21.33497       32.78833       21646.505      6086.7793      6985.0029      6156.4118     -1029.6514     -723.29167     -2130.8023    
  46466000   248.51984     -411.41075     -328.17821     -411.37826      0              6579.6119      30.944         21.33497       32.824282      21670.24       5753.8904      7688.0101      6296.9352     -340.69478     -399.25208     -439.58893    
  46468000   247.094       -414.30201     -331.54701     -414.2835       0              7298.3146      30.944         21.33497       32.729969      21607.976      6982.7247      7743.6315      7168.5875      571.28201      89.124368     -956.6915     
  46470000   251.49066     -412.43107     -328.20357     -412.40039      0              5694.9775      30.944         21.33497       32.76535       21631.334      6856.9969      5647.0453      4580.8903      1993.5178     -730.76815      895.11635    
  46472000   251.40041     -412.88187     -328.68459     -412.85487      0              5571.0719      30.944         21.33497       32.660939      21562.403      7345.8762      5620.6649      3746.6747      4.2357465      535.25446     -1128.4023    
ERROR on proc 0: Cannot open restart file restart2.lmp.0: Permission denied (../write_restart.cpp:233)
Last command: run             ${nsteps_enhanced_coex_upto} upto
