LAMMPS (23 Jun 2022)
include procedure.lmp
echo both
include		in.partitions
variable        pid world 0
include		in.temp
variable	temperature equal 255
variable        tempDamp equal 0.100 # this is 0.1 ps
include		in.pressure
variable        pressure equal 6079.5
variable        pressureDamp equal 1.0 #this is 1ps

variable	barostat string	   tri
variable	direction string   z
variable	direction_x_bool equal 0
variable	direction_y_bool equal 0
variable	direction_z_bool equal 1

include		in.seed
variable        seed world 745823

units           metal
atom_style	full
box tilt large
read_restart 	restart.lmp.${pid}
read_restart 	restart.lmp.0
Reading restart file ...
  restart file = 23 Jun 2022, LAMMPS = 23 Jun 2022
  restoring atom style full from restart
  triclinic box = (0 0 -0.81723627) to (30.944 21.33497 31.789951) with tilt (-9.144178 0.98391801 -10.850781)
WARNING: Triclinic box skew is large (../domain.cpp:224)
  2 by 1 by 2 MPI processor grid
Summary of lammps deepmd module ...
  >>> Info of deepmd-kit:
  installed to:       /u/sigbjobo/software/DEEPMD_FROM_SOURCE/deepmd-kit/install
  source:             v2.1.3
  source branch:       master
  source commit:      5a32c49
  source commit at:   2022-07-01 09:52:58 +0800
  surpport model ver.:1.1 
  build float prec:   double
  build with tf inc:  /u/sigbjobo/software/DEEPMD_FROM_SOURCE/tensorflow/install/include;/u/sigbjobo/software/DEEPMD_FROM_SOURCE/tensorflow/install/include
  build with tf lib:  /u/sigbjobo/software/DEEPMD_FROM_SOURCE/tensorflow/install/lib/libtensorflow_cc.so;/u/sigbjobo/software/DEEPMD_FROM_SOURCE/tensorflow/install/lib/libtensorflow_framework.so
  set tf intra_op_parallelism_threads: 0
  set tf inter_op_parallelism_threads: 0
  >>> Info of lammps module:
  use deepmd-kit at:  /u/sigbjobo/software/DEEPMD_FROM_SOURCE/deepmd-kit/install
  source:             v2.1.3
  source branch:      master
  source commit:      5a32c49
  source commit at:   2022-07-01 09:52:58 +0800
  build float prec:   double
  build with tf inc:  /u/sigbjobo/software/DEEPMD_FROM_SOURCE/tensorflow/install/include;/u/sigbjobo/software/DEEPMD_FROM_SOURCE/tensorflow/install/include
  build with tf lib:  /u/sigbjobo/software/DEEPMD_FROM_SOURCE/tensorflow/install/lib/libtensorflow_cc.so;/u/sigbjobo/software/DEEPMD_FROM_SOURCE/tensorflow/install/lib/libtensorflow_framework.so
  restoring pair style deepmd from restart
  2592 atoms
Finding 1-2 1-3 1-4 neighbors ...
  special bond factors lj:    0        0        0       
  special bond factors coul:  0        0        0       
     0 = max # of 1-2 neighbors
     0 = max # of 1-3 neighbors
     0 = max # of 1-4 neighbors
     1 = max # of special neighbors
  special bonds CPU = 0.001 seconds
  read_restart CPU = 0.038 seconds
include 	in.setup
variable	out_freq equal 2000
variable	out_freq2 equal 2000

timestep        0.0005

neigh_modify    delay 7 every 1

include         in.deepmd
# This is deepMD model

# create groups ###
#group ox type 2
#group hy type 1

mass 2 15.999
mass 1 1.008

pair_style      deepmd ../graph.pb
pair_coeff      * *

bond_style      none
angle_style     none
dihedral_style  none
improper_style  none
neigh_modify exclude none


neighbor        2.0 bin
neigh_modify    every 50 delay 0 check no

thermo          ${out_freq}
thermo          2000
thermo_style 	custom step temp pe etotal epair emol press lx ly lz vol pxx pyy pzz pxy pxz pyz

restart 	${out_freq} restart.lmp.${pid} restart2.lmp.${pid}
restart 	2000 restart.lmp.${pid} restart2.lmp.${pid}
restart 	2000 restart.lmp.0 restart2.lmp.${pid}
restart 	2000 restart.lmp.0 restart2.lmp.0


timer           timeout 23:50:00 every 1000
New timer settings: style=normal  mode=nosync  timeout=23:50:00


# Set number of time steps
variable 	nsteps_wall		equal	 6000000
variable 	nsteps_enhanced_coex    equal	100000000

variable     nsteps_enhanced_coex_upto equal (${nsteps_wall}+${nsteps_enhanced_coex})
variable     nsteps_enhanced_coex_upto equal (6000000+${nsteps_enhanced_coex})
variable     nsteps_enhanced_coex_upto equal (6000000+100000000)


# Set temperature for first step
if "$(step) < 1  " then    "velocity 	all create ${temperature} ${seed} dist gaussian"


# Always run thermo and barostat


######################################
# Run simulation with wall potential #
######################################
if " $(step) < ${nsteps_wall} " then    "fix             3 all plumed plumedfile plumed.equil.dat outfile plumed.equil.out"   "fix             1 all nph ${direction} ${pressure} ${pressure} ${pressureDamp}"   "fix             2 all temp/csvr ${temperature} ${temperature} ${tempDamp} ${seed}"   "run             ${nsteps_wall} upto"
if " $(step) == ${nsteps_wall} " then    "unfix 3"   "unfix 1"   "unfix 2"


############################
# Run enhanced coesistence #
############################
if "$(step) == ${nsteps_wall}" then    "fix             3 all plumed plumedfile plumed.start.dat outfile plumed.out" else    "fix             3 all plumed plumedfile plumed.dat outfile plumed.out"
fix             3 all plumed plumedfile plumed.dat outfile plumed.out

if "$(step) < ${nsteps_enhanced_coex_upto} && $(step) >= ${nsteps_wall} " then    "include         in.dump"    "fix             1 all nph ${direction} ${pressure} ${pressure} ${pressureDamp}"   "fix             2 all temp/csvr ${temperature} ${temperature} ${tempDamp} ${seed}"   "run             ${nsteps_enhanced_coex_upto} upto"    "unfix 3"   "unfix 1"   "unfix 2"
include         in.dump
dump            myDump all atom ${out_freq2} dump.water.${pid}
dump            myDump all atom 2000 dump.water.${pid}
dump            myDump all atom 2000 dump.water.0
dump            myDump2 all dcd ${out_freq2} dump.${pid}.dcd
dump            myDump2 all dcd 2000 dump.${pid}.dcd
dump            myDump2 all dcd 2000 dump.0.dcd
dump_modify     myDump append yes
dump_modify     myDump2 append yes

fix             1 all nph ${direction} ${pressure} ${pressure} ${pressureDamp}
fix             1 all nph z ${pressure} ${pressure} ${pressureDamp}
fix             1 all nph z 6079.5 ${pressure} ${pressureDamp}
fix             1 all nph z 6079.5 6079.5 ${pressureDamp}
fix             1 all nph z 6079.5 6079.5 1
fix             2 all temp/csvr ${temperature} ${temperature} ${tempDamp} ${seed}
fix             2 all temp/csvr 255 ${temperature} ${tempDamp} ${seed}
fix             2 all temp/csvr 255 255 ${tempDamp} ${seed}
fix             2 all temp/csvr 255 255 0.1 ${seed}
fix             2 all temp/csvr 255 255 0.1 745823
run             ${nsteps_enhanced_coex_upto} upto
run             106000000 upto

CITE-CITE-CITE-CITE-CITE-CITE-CITE-CITE-CITE-CITE-CITE-CITE-CITE

Your simulation uses code contributions which should be cited:

- USER-DEEPMD package:

@article{Wang_ComputPhysCommun_2018_v228_p178,
  author = {Wang, Han and Zhang, Linfeng and Han, Jiequn and E, Weinan},
  doi = {10.1016/j.cpc.2018.03.016},
  url = {https://doi.org/10.1016/j.cpc.2018.03.016},
  year = 2018,
  month = {jul},
  publisher = {Elsevier {BV}},
  volume = 228,
  journal = {Comput. Phys. Commun.},
  title = {{DeePMD-kit: A deep learning package for many-body potential energy representation and molecular dynamics}},
  pages = {178--184}
}

CITE-CITE-CITE-CITE-CITE-CITE-CITE-CITE-CITE-CITE-CITE-CITE-CITE

Generated 0 of 1 mixed pair_coeff terms from geometric mixing rule
Neighbor list info ...
  update every 50 steps, delay 0 steps, check no
  max neighbors/atom: 2000, page size: 100000
  master list distance cutoff = 8
  ghost atom cutoff = 8
  binsize = 4, bins = 11 9 9
  1 neighbor lists, perpetual/occasional/extra = 1 0 0
  (1) pair deepmd, perpetual
      attributes: full, newton on
      pair build: full/bin
      stencil: full/bin/3d
      bin: standard
Per MPI rank memory allocation (min/avg/max) = 7.308 | 7.308 | 7.309 Mbytes
   Step          Temp          PotEng         TotEng         E_pair         E_mol          Press            Lx             Ly             Lz           Volume          Pxx            Pyy            Pzz            Pxy            Pxz            Pyz      
  66000000   251.09022     -413.6929      -329.59952     -413.6929       0              4508.7038      30.944         21.33497       32.607188      21526.917      4469.8921      2874.8453      6181.3741      1446.6162      452.01222      1900.4499    
  66002000   255.92341     -410.33834     -324.62626     -410.34177      0              6863.0161      30.944         21.33497       32.525503      21472.99       8630.6142      5603.3739      6355.0603     -1016.0516      1516.2855     -192.59207    
  66004000   259.49818     -415.57216     -328.66284     -415.5739       0              4479.349       30.944         21.33497       32.61743       21533.678      4377.9645      3256.3207      5803.7618     -512.43746      2416.883      -418.52996    
  66006000   257.12997     -413.78937     -327.67319     -413.78955      0              6943.9978      30.944         21.33497       32.466462      21434.011      7010.753       7273.5285      6547.7119     -21.28504      -82.885281      989.94746    
  66008000   249.18203     -412.63805     -329.18374     -412.63932      0              5006.0171      30.944         21.33497       32.654271      21558.001      6133.4551      3509.7132      5374.8831     -1292.1945      177.75803     -193.09272    
  66010000   252.79847     -408.45022     -323.78471     -408.45363      0              4515.5156      30.944         21.33497       32.686354      21579.181      4398.3225      6480.1385      2668.0856     -159.56207      948.07419     -1721.5245    
  66012000   256.6596      -411.59286     -325.63421     -411.59272      0              6323.4311      30.944         21.33497       32.586076      21512.979      7383.2776      3359.4662      8227.5497     -960.06283      746.89902      1419.559     
  66014000   249.5955      -413.16658     -329.57379     -413.17         0              5075.591       30.944         21.33497       32.618792      21534.578      5264.1358      5703.2829      4259.3544      1029.4204     -2056.048      -612.99869    
  66016000   252.38411     -412.14102     -327.61429     -412.14446      0              6318.9962      30.944         21.33497       32.606293      21526.326      6520.4941      6694.7831      5741.7112     -1230.222       1076.9414     -679.03521    
  66018000   256.96178     -416.5259      -330.46605     -416.52738      0              3193.7877      30.944         21.33497       32.569383      21501.959      2224.9751      3309.7803      4046.6078     -899.21495      1170.7529      619.28348    
  66020000   250.40096     -415.3019      -331.43935     -415.30319      0              6403.7972      30.944         21.33497       32.464851      21432.947      7209.958       5717.6608      6283.7727      736.69477      50.441324      197.07162    
  66022000   254.08128     -414.03023     -328.9351      -414.03326      0              7389.5559      30.944         21.33497       32.437834      21415.111      8300.5812      8301.0227      5567.0637      661.18899     -1123.02        833.53437    
  66024000   259.59796     -413.37238     -326.42964     -413.37585      0              6928.8758      30.944         21.33497       32.397487      21388.474      6274.939       7395.3374      7116.351       514.23609      691.77063      648.73504    
  66026000   256.90679     -410.39587     -324.35443     -410.39724      0              6868.7902      30.944         21.33497       32.575773      21506.177      6354.2265      6372.0561      7880.0881     -656.39144     -300.50741      1715.2079    
  66028000   256.01126     -415.17151     -329.43        -415.17283      0              5362.0743      30.944         21.33497       32.589339      21515.133      7264.213       4389.1127      4432.8973     -2022.2567     -433.5399      -1.8495069    
  66030000   261.77295     -410.01626     -322.34508     -410.01973      0              4632.9441      30.944         21.33497       32.593078      21517.602      2961.3626      6296.9047      4640.565      -128.24121      1634.1103      1408.1027    
  66032000   250.97903     -412.44738     -328.39123     -412.45082      0              6933.0305      30.944         21.33497       32.816817      21665.312      7322.1989      6530.4511      6946.4414      83.69475      -676.50245     -335.79906    
  66034000   249.52882     -414.43544     -330.86499     -414.43887      0              6700.6318      30.944         21.33497       32.74682       21619.1        8799.3039      6605.3875      4697.2041      741.42793     -1291.5368      792.65564    
  66036000   255.40501     -413.45762     -327.91915     -413.45942      0              7638.05        30.944         21.33497       32.740322      21614.811      8508.5993      7228.8782      7176.6727      1340.2229      116.82616      1883.1133    
  66038000   257.52018     -411.68759     -325.44072     -411.68907      0              6409.2174      30.944         21.33497       32.701283      21589.037      6559.1317      5379.3467      7289.174       615.17241      2338.1238      510.84223    
  66040000   253.91935     -414.25615     -329.21525     -414.2597       0              6700.5814      30.944         21.33497       32.659718      21561.597      5218.8381      7567.4617      7315.4442      125.04151      640.68342      1638.8927    
  66042000   256.52615     -413.23047     -327.31652     -413.23356      0              3879.8902      30.944         21.33497       32.807556      21659.198      3349.1768      4161.3301      4129.1638      1837.2177     -461.82904      1181.6293    
  66044000   252.74714     -415.02652     -330.37821     -415.02894      0              4860.4947      30.944         21.33497       32.864768      21696.969      4242.0933      6534.7928      3804.5981     -152.03744     -744.85619     -544.40614    
  66046000   257.48808     -414.5908      -328.35468     -414.59206      0              7134.3031      30.944         21.33497       32.719078      21600.786      6692.2793      6819.5786      7891.0513     -383.99435     -545.30363      686.57115    
  66048000   253.72868     -413.66022     -328.68318     -413.66372      0              5775.4158      30.944         21.33497       32.831625      21675.088      4899.522       7002.1138      5424.6115      916.3658       695.09109      613.26292    
  66050000   257.45356     -411.7015      -325.47695     -411.70492      0              5822.6063      30.944         21.33497       32.788957      21646.919      4384.8021      7640.4333      5442.5837     -1026.3749     -11.200096     -591.85478    
  66052000   254.95773     -414.22841     -328.83975     -414.23068      0              4677.378       30.944         21.33497       32.782456      21642.627      4024.2648      6082.5767      3925.2925      390.88537     -552.2816       904.18545    
  66054000   256.07839     -411.27555     -325.51155     -411.27832      0              6077.8241      30.944         21.33497       32.582431      21510.573      7274.0194      3524.9233      7434.5298     -406.64204     -516.75398      1112.6603    
  66056000   251.53289     -408.86461     -324.62297     -408.86828      0              7972.5074      30.944         21.33497       32.523648      21471.765      6452.2773      8143.682       9321.5628     -1521.9905      1923.4437      1673.1785    
  66058000   259.98646     -413.51549     -326.44264     -413.51918      0              4974.8774      30.944         21.33497       32.565158      21499.169      6402.7117      6237.254       2284.6666      378.79962     -651.46845     -56.009371    
  66060000   254.74828     -413.57996     -328.26145     -413.57314      0              5494.7682      30.944         21.33497       32.719641      21601.157      5249.638       6521.0602      4713.6066     -654.68665      1019.393       780.14634    
  66062000   254.40188     -411.56572     -326.36322     -411.56818      0              6996.5385      30.944         21.33497       32.550927      21489.774      6368.3151      6595.5026      8025.7976     -1367.4431     -386.85527     -45.392463    
  66064000   258.64207     -410.41808     -323.79548     -410.41942      0              6026.3614      30.944         21.33497       32.495983      21453.501      4922.9336      6770.6463      6385.5045      351.87891      2392.2228      71.731955    
  66066000   257.30336     -409.22042     -323.04617     -409.22028      0              6705.0892      30.944         21.33497       32.479704      21442.754      6722.0366      6274.6325      7118.5984     -926.44615     -181.99141     -1696.3827    
  66068000   256.33635     -415.58253     -329.73214     -415.58557      0              6000.6666      30.944         21.33497       32.299616      21323.861      5832.2425      6271.5566      5898.2006     -22.880794     -420.95668     -320.42972    
  66070000   254.09887     -413.18469     -328.08366     -413.18827      0              6473.6905      30.944         21.33497       32.41056       21397.105      8070.529       6113.1172      5237.4254     -672.58237     -364.32218     -1251.723     
  66072000   259.55648     -410.9039      -323.97505     -410.9052       0              5642.3058      30.944         21.33497       32.670891      21568.973      4152.645       5951.4151      6822.8572      1075.9185     -5.7794143     -282.48127    
  66074000   259.44621     -414.59819     -327.70628     -414.60005      0              8190.0052      30.944         21.33497       32.521347      21470.246      7351.3183      9620.4202      7598.2771     -135.94813      443.31184      277.74346    
  66076000   254.86898     -412.51903     -327.16008     -412.52061      0              7272.5415      30.944         21.33497       32.472307      21437.87       7568.2925      4617.1227      9632.2093     -948.06198     -287.43315      2300.9483    
  66078000   256.7676      -409.86058     -323.86576     -409.86199      0              6923.6777      30.944         21.33497       32.465307      21433.249      7198.224       5450.7797      8122.0296      1408.3459     -678.22798      645.82956    
  66080000   255.80829     -411.68832     -326.01479     -411.69169      0              6179.4408      30.944         21.33497       32.609372      21528.359      5654.6517      6915.8727      5967.7979      640.58677      290.18709      37.879772    
  66082000   253.0236      -413.89491     -329.15401     -413.89658      0              6661.836       30.944         21.33497       32.524906      21472.595      6791.805       7521.7197      5671.9833     -902.82757      1194.8793     -740.67444    
  66084000   256.41569     -411.8032      -325.92624     -411.80691      0              5838.9064      30.944         21.33497       32.595242      21519.031      6203.5956      7081.3172      4231.8065      563.98299     -1130.3436     -602.57647    
  66086000   252.76836     -413.32198     -328.66656     -413.32343      0              7074.644       30.944         21.33497       32.635027      21545.296      6456.1867      8028.7292      6739.0162     -707.35204     -647.22679     -1376.2898    
  66088000   253.13582     -411.75562     -326.97714     -411.7542       0              7030.8809      30.944         21.33497       32.491855      21450.775      9017.7526      5019.0079      7055.8821     -617.10823      384.20459      1754.5792    
  66090000   248.09671     -415.63182     -332.541       -415.63333      0              7885.8619      30.944         21.33497       32.569707      21502.173      5650.1877      9266.7198      8740.6783      800.93128      584.70949      1082.6314    
  66092000   258.8773      -413.33236     -326.63098     -413.33406      0              6125.4656      30.944         21.33497       32.48682       21447.451      4942.0586      8155.0882      5279.2499      1512.408      -535.05836      478.26427    
  66094000   254.7543      -413.29765     -327.97711     -413.2992       0              5203.1933      30.944         21.33497       32.582253      21510.455      3176.5635      7250.5108      5182.5057     -39.223736      285.7109       729.17081    
  66096000   254.28822     -415.05376     -329.88932     -415.05738      0              5367.6283      30.944         21.33497       32.705904      21592.088      4756.8893      4708.7772      6637.2183      1581.6929      1814.3485      731.2483     
  66098000   248.40185     -412.27794     -329.08492     -412.28031      0              4593.6823      30.944         21.33497       32.82538       21670.965      5579.4716      2124.1716      6077.4038     -197.79103      1046.0266      1550.8325    
  66100000   256.65642     -411.61815     -325.66057     -411.62164      0              5769.2387      30.944         21.33497       32.874195      21703.192      5425.4153      6763.2167      5119.084       3100.6778     -1460.2048      969.28428    
  66102000   257.04529     -413.86795     -327.78013     -413.86635      0              6781.4148      30.944         21.33497       32.659718      21561.597      8173.8375      7052.6333      5117.7736     -262.51441     -1266.8242      203.34964    
  66104000   255.05489     -413.00217     -327.58096     -413.00579      0              6934.8985      30.944         21.33497       32.551234      21489.977      6083.8383      6509.6511      8211.2062     -2214.971       1773.9884      389.46208    
  66106000   252.88566     -411.2636      -326.56889     -411.2671       0              2823.4194      30.944         21.33497       32.787904      21646.224      2160.5092      2123.6704      4186.0787      381.4479      -423.57818      3050.9065    
  66108000   260.73719     -411.60742     -324.28314     -411.61022      0              5381.1275      30.944         21.33497       32.656775      21559.654      4030.0951      5325.9472      6787.3402      488.81646      1092.3504      779.50717    
  66110000   261.44868     -413.59965     -326.03708     -413.60252      0              5881.2469      30.944         21.33497       32.739535      21614.291      4936.7921      6398.6842      6308.2645      550.52303      104.37758      851.38117    
  66112000   247.80644     -411.39154     -328.39794     -411.39494      0              5155.5028      30.944         21.33497       32.931994      21741.35       6854.7333      5000.7542      3611.0209      102.30535     -196.8227       1329.2379    
  66114000   260.19894     -413.42806     -326.28404     -413.42955      0              6545.2376      30.944         21.33497       32.886523      21711.331      6365.4         6426.4225      6843.8902     -63.148896     -377.38081      837.91663    
  66116000   253.81614     -413.88039     -328.87405     -413.88224      0              6111.8672      30.944         21.33497       32.712966      21596.75       6507.8076      5744.2074      6083.5867      189.34837      881.4005       237.86579    
  66118000   254.95418     -413.72811     -328.34063     -413.73195      0              5320.1581      30.944         21.33497       32.631129      21542.722      4026.6956      6215.7853      5717.9934      666.42347      1285.8004      1754.6798    
  66120000   257.37135     -413.88001     -327.68299     -413.88157      0              4986.9899      30.944         21.33497       32.740611      21615.002      7343.0975      2815.149       4802.7231     -1558.4352      1143.7949      790.09475    
  66122000   258.65715     -413.89773     -327.27008     -413.89736      0              6589.8737      30.944         21.33497       32.676299      21572.543      7651.8327      5070.2169      7047.5714     -1523.1966      330.64088      299.80548    
  66124000   258.11523     -412.52381     -326.07766     -412.5214       0              6097.333       30.944         21.33497       32.505908      21460.053      6509.9119      5668.3746      6113.7125     -432.25593     -1232.4361      126.34845    
  66126000   259.39626     -413.98702     -327.11183     -413.9888       0              5933.9184      30.944         21.33497       32.580064      21509.01       6109.6882      5518.7515      6173.3154     -310.85785      1654.3103      1031.4293    
  66128000   259.71727     -414.37338     -327.39068     -414.37331      0              5184.9102      30.944         21.33497       32.445036      21419.866      4903.064       5796.4042      4855.2623      727.56522      913.03837     -111.57887    
  66130000   254.23838     -413.56307     -328.41532     -413.56689      0              5553.6609      30.944         21.33497       32.605722      21525.949      5099.8515      5508.1429      6052.9882      279.08414      1760.583       663.04846    
  66132000   249.02698     -411.71546     -328.31307     -411.71822      0              5294.4718      30.944         21.33497       32.739977      21614.583      4724.0819      4743.3364      6415.9971      1158.6065      734.86289      470.73111    
  66134000   258.21965     -413.68385     -327.20272     -413.68738      0              4204.1059      30.944         21.33497       32.568612      21501.449      5063.7952      2163.231       5385.2914      488.31535     -121.3763      -172.71189    
  66136000   248.27785     -411.53725     -328.38576     -411.54074      0              9638.1647      30.944         21.33497       32.632634      21543.716      9167.4567      11560.627      8186.41       -517.37511      878.42535     -1271.6443    
  66138000   258.73049     -412.41364     -325.76142     -412.41719      0              4802.2904      30.944         21.33497       32.629391      21541.575      4567.1034      4618.6804      5221.0873      199.64847      1407.0545      2030.6087    
  66140000   256.89886     -410.54977     -324.51099     -410.55151      0              7154.0586      30.944         21.33497       32.569887      21502.291      6260.313       6909.9202      8291.9425     -315.78702      1570.2044     -278.07765    
  66142000   261.73869     -414.28979     -326.63009     -414.29192      0              2552.6131      30.944         21.33497       32.66701       21566.411      2545.238       2363.2761      2749.3253     -617.96173     -166.02195     -1622.0309    
  66144000   260.30761     -413.07414     -325.89373     -413.07672      0              6610.5885      30.944         21.33497       32.504838      21459.346      6263.5402      5679.6341      7888.5913      1295.1844      447.50264     -375.56914    
  66146000   253.18609     -413.49075     -328.69543     -413.49171      0              6688.5366      30.944         21.33497       32.589981      21515.557      8362.202       4855.9365      6847.4713      862.80426     -1570.0711      387.78142    
  66148000   252.28955     -413.44214     -328.94708     -413.44602      0              8768.2584      30.944         21.33497       32.591543      21516.588      9015.8655      9434.6699      7854.2397      256.49339      490.70092     -757.27277    
  66150000   250.37367     -413.69768     -329.84427     -413.69909      0              4431.2646      30.944         21.33497       32.607351      21527.025      1563.688       5832.9679      5897.138       860.40844      153.93104      413.5944     
  66152000   252.23035     -412.95658     -328.48135     -412.95882      0              7246.422       30.944         21.33497       32.727194      21606.143      5787.6833      7454.2076      8497.3751     -1203.2339      104.23126     -2028.3116    
  66154000   256.6851      -412.80845     -326.84127     -412.81102      0              5874.3648      30.944         21.33497       32.522747      21471.17       5470.1151      6430.9652      5722.0142      599.10995      261.19152     -744.97845    
  66156000   249.23742     -415.04415     -331.57129     -415.04455      0              4925.1546      30.944         21.33497       32.651704      21556.306      5385.7732      5338.1878      4051.5029     -422.76629      1384.4704      336.14122    
  66158000   247.3298      -412.34814     -329.51417     -412.34977      0              6588.6928      30.944         21.33497       32.592623      21517.301      5394.6864      8061.3163      6310.0757      366.47601     -418.24347      2012.1255    
  66160000   255.17398     -412.85094     -327.38985     -412.85273      0              5322.6441      30.944         21.33497       32.589596      21515.303      6164.8784      5601.9159      4201.1381      583.38607     -205.1143       627.07665    
  66162000   247.01987     -410.41636     -327.68619     -410.41803      0              4330.2453      30.944         21.33497       32.59111       21516.302      4408.7434      5861.6948      2720.2976      406.88487      1013.9881     -226.599      
  66164000   255.36953     -411.45512     -325.92854     -411.45898      0              5851.2618      30.944         21.33497       32.613291      21530.946      6187.6157      5867.7393      5498.4304     -1744.2999      181.11015      219.13243    
  66166000   257.63054     -411.28074     -324.99691     -411.28031      0              5890.9151      30.944         21.33497       32.478416      21441.903      6226.6687      7449.7026      3996.3739      1056.754       1026.0584     -246.92607    
  66168000   249.36424     -411.31234     -327.79701     -411.31375      0              7640.157       30.944         21.33497       32.469641      21436.11       7039.9887      8532.1175      7348.3648     -441.92956      1975.7783     -1388.3371    
  66170000   255.41759     -413.77048     -328.2278      -413.77428      0              6263.6229      30.944         21.33497       32.547413      21487.454      7198.7633      6526.9669      5065.1386     -1120.0622     -452.73545      862.78404    
  66172000   255.21843     -414.50569     -329.02971     -414.50752      0              5364.0594      30.944         21.33497       32.608473      21527.765      5823.1769      4828.1732      5440.8282      2151.2984     -1534.514      -262.23995    
  66174000   250.16786     -414.07451     -330.29003     -414.07808      0              6784.3391      30.944         21.33497       32.550799      21489.69       6689.7916      6609.5509      7053.6749     -125.95047      417.78531     -897.28212    
  66176000   245.25546     -413.99545     -331.8562      -413.99917      0              3642.772       30.944         21.33497       32.638399      21547.522      4268.3136      3649.4042      3010.5984     -1.0598332      609.96917      418.39274    
  66178000   257.40856     -411.76654     -325.55706     -411.77045      0              9355.5467      30.944         21.33497       32.353721      21359.581      8903.1201      9491.2109      9672.309       1073.5587      476.97906     -975.97881    
  66180000   256.65302     -412.33681     -326.38037     -412.34069      0              5711.364       30.944         21.33497       32.347244      21355.305      6169.2848      5602.5183      5362.2888     -795.03086     -1092.6078      174.26352    
  66182000   251.26063     -411.89191     -327.74145     -411.89221      0              6316.5827      30.944         21.33497       32.453642      21425.547      6087.418       5771.4238      7090.9063     -294.47867     -578.1465      -1474.1964    
  66184000   257.03253     -411.78051     -325.69697     -411.7836       0              6055.5631      30.944         21.33497       32.7633        21629.98       3635.2027      7940.8972      6590.5894     -1409.0827      49.259578      895.04616    
  66186000   256.94933     -410.22105     -324.16536     -410.21871      0              6975.3968      30.944         21.33497       32.658508      21560.798      6539.6846      8629.6143      5756.8913      1217.2198      112.79312     -618.96519    
  66188000   254.12382     -411.66592     -326.55654     -411.66763      0              5087.1852      30.944         21.33497       32.813177      21662.909      2119.4651      4960.8976      8181.193      -533.98707      242.02863     -32.424764    
  66190000   260.27561     -410.07016     -322.90047     -410.07414      0              6733.7639      30.944         21.33497       32.684875      21578.205      5683.4246      9001.6285      5516.2386      679.82124      1692.4264      1052.9766    
  66192000   255.6067      -411.17943     -325.57342     -411.1811       0              6399.629       30.944         21.33497       32.790972      21648.249      6193.5067      4870.4895      8134.8908     -385.28958     -454.45183      322.69588    
  66194000   253.62856     -411.2399      -326.29639     -411.23965      0              6852.6424      30.944         21.33497       32.753619      21623.589      5646.0308      9156.8774      5755.0189      178.46105      830.47071     -637.35079    
  66196000   259.49719     -409.84206     -322.93307     -409.84565      0              4501.5516      30.944         21.33497       32.746551      21618.923      2913.8353      5493.5885      5097.2309      597.36851     -268.98618     -812.01542    
  66198000   260.60553     -412.31484     -325.03466     -412.31799      0              5570.8882      30.944         21.33497       32.485947      21446.875      2513.9516      7151.4837      7047.2294     -314.05911      687.93944     -1000.4177    
  66200000   251.93598     -410.34348     -325.96684     -410.34515      0              7175.338       30.944         21.33497       32.538802      21481.769      5873.8708      6377.364       9274.7791      1222.9928     -794.90463     -355.43551    
  66202000   253.91756     -409.94677     -324.90647     -409.95         0              5469.0718      30.944         21.33497       32.611971      21530.075      5779.3458      5907.5274      4720.3423     -1214.4014     -927.35438      1264.2027    
  66204000   254.48965     -411.99501     -326.76311     -411.99855      0              7103.5215      30.944         21.33497       32.652842      21557.058      9457.0278      7085.237       4768.2996      656.44651     -836.47148     -1088.4799    
  66206000   250.9936      -412.51474     -328.45372     -412.51874      0              5712.576       30.944         21.33497       32.737955      21613.248      5785.2122      6156.55        5195.9657     -774.55805      1136.909       536.49678    
  66208000   251.1778      -410.99255     -326.86984     -410.99444      0              7346.9691      30.944         21.33497       32.648386      21554.116      6585.9354      5608.9464      9846.0253     -967.52647      1250.0657      282.61773    
  66210000   253.43474     -410.26916     -325.39056     -410.27218      0              5903.7279      30.944         21.33497       32.775991      21638.359      6695.2002      5994.3035      5021.6801     -1027.8193      955.92211      662.06121    
  66212000   248.73001     -412.18757     -328.88465     -412.19153      0              5768.6115      30.944         21.33497       32.886361      21711.224      7753.5171      6126.9431      3425.3741     -69.979471      466.82296     -1153.8245    
  66214000   254.53806     -410.52814     -325.28002     -410.53176      0              7131.4568      30.944         21.33497       32.717422      21599.692      8131.7667      6307.7         6954.9037     -432.60079      976.49227     -554.12054    
  66216000   255.98721     -414.65791     -328.92446     -414.66155      0              7038.4702      30.944         21.33497       32.635885      21545.862      7620.3626      7481.9042      6013.1439     -1399.804      -462.76199     -624.28343    
  66218000   256.52724     -411.50296     -325.58864     -411.50672      0              6842.4112      30.944         21.33497       32.691382      21582.501      7501.6117      6814.9668      6210.6552     -150.77145     -913.50939     -1053.5459    
  66220000   254.77567     -414.33247     -329.00478     -414.33631      0              5740.2805      30.944         21.33497       32.714623      21597.845      4863.3685      6752.3722      5605.1008     -1032.7504     -240.02285     -86.88074     
  66222000   254.55784     -416.10377     -330.84903     -416.10781      0              6733.6676      30.944         21.33497       32.618886      21534.64       6076.6635      6505.6283      7618.7108      1459.6711      839.04253      935.89809    
  66224000   257.95195     -411.00626     -324.61479     -411.01026      0              5362.2415      30.944         21.33497       32.536247      21480.083      6053.9256      5526.6637      4506.1353     -290.14892     -76.456673      727.69159    
  66226000   255.7097      -413.85299     -328.21248     -413.8554       0              6098.6149      30.944         21.33497       32.744401      21617.504      5137.1861      6331.3003      6827.3583      504.48936      336.4757       463.38383    
  66228000   259.47077     -409.67987     -322.77973     -409.67975      0              5029.4954      30.944         21.33497       32.827807      21672.567      5251.9967      5094.3201      4742.1695     -1594.6597     -537.32461      796.00432    
  66230000   253.62076     -412.57509     -327.6342      -412.57688      0              3914.9746      30.944         21.33497       32.589901      21515.504      5514.2096      2553.5201      3677.1942     -242.43736      45.37818       113.39414    
  66232000   251.66222     -411.08303     -326.79808     -411.08686      0              5699.2568      30.944         21.33497       32.558935      21495.061      6134.1486      6071.7685      4891.8534     -1022.2563     -297.86853      2350.6549    
  66234000   258.06035     -411.37961     -324.95184     -411.38004      0              6246.1614      30.944         21.33497       32.438114      21415.296      6871.2326      4719.6708      7147.5808     -743.55114     -143.30392      339.029      
  66236000   253.85039     -413.43415     -328.41635     -413.43679      0              5952.0755      30.944         21.33497       32.746343      21618.786      7274.6825      5678.8983      4902.6457     -110.15308     -1449.0788     -171.17023    
  66238000   254.39296     -412.57325     -327.37373     -412.5757       0              4947.3853      30.944         21.33497       32.994927      21782.898      4177.2871      4197.2891      6467.5796      828.74616      1031.7415      1369.7738    
  66240000   254.97686     -413.49664     -328.10156     -413.49814      0              6421.345       30.944         21.33497       32.799606      21653.949      7094.7456      4332.9131      7836.3762     -173.12063     -729.56174     -334.56856    
  66242000   263.95922     -413.61901     -325.21563     -413.62056      0              5299.4897      30.944         21.33497       32.772879      21636.305      5055.6934      5979.2118      4863.5638      404.23213     -1412.4004      607.43713    
  66244000   252.747       -412.46977     -327.8215      -412.47305      0              5129.9922      30.944         21.33497       32.655883      21559.065      6146.4623      5264.7073      3978.8069      184.42599      916.96134     -50.342171    
  66246000   253.48097     -411.65579     -326.7617      -411.65781      0              3834.6143      30.944         21.33497       32.862836      21695.693      5217.7937      4489.8196      1796.2296     -355.36066     -106.26083      158.02964    
  66248000   252.49656     -413.27882     -328.71443     -413.28082      0              9351.1801      30.944         21.33497       32.68561       21578.691      8275.1054      10695.206      9083.2291     -982.15953      298.4952       401.14047    
  66250000   261.73035     -410.96389     -323.30698     -410.96788      0              4168.3936      30.944         21.33497       32.534173      21478.714      4187.3325      2937.3745      5380.4737     -969.74196      303.78102      67.672288    
  66252000   246.92762     -412.01155     -329.31227     -412.01562      0              6025.9952      30.944         21.33497       32.665655      21565.516      6568.2804      3761.6703      7748.0348      913.33922      291.74804     -479.51048    
  66254000   257.90624     -413.6061      -327.22994     -413.61006      0              5784.1333      30.944         21.33497       32.664891      21565.012      4727.1844      5398.9448      7226.2705      1499.3673     -200.8175      -880.56941    
  66256000   258.7582      -410.85242     -324.19092     -410.85508      0              7485.3021      30.944         21.33497       32.538656      21481.673      8926.1486      7338.982       6190.7756     -602.68617      98.632736     -793.43707    
  66258000   248.11534     -412.20118     -329.10412     -412.2052       0              7526.8688      30.944         21.33497       32.719143      21600.828      6582.3024      8247.402       7750.9021      139.18056      98.734155     -668.03112    
  66260000   247.43951     -414.08867     -331.21795     -414.09196      0              5502.2428      30.944         21.33497       32.689314      21581.136      4937.1379      6184.6784      5384.9122      1400.839      -565.83504     -977.49826    
  66262000   258.54618     -412.87458     -326.2841      -412.87608      0              7417.6366      30.944         21.33497       32.627734      21540.481      8501.4119      7563.7535      6187.7445      1844.7458      7.7574131     -1584.6963    
  66264000   251.68689     -411.1442      -326.85097     -411.14788      0              6054.5287      30.944         21.33497       32.596954      21520.161      7436.2549      5771.8836      4955.4476      1252.0909     -981.87295      103.60345    
  66266000   251.83039     -413.60324     -329.26196     -413.60297      0              5717.9167      30.944         21.33497       32.418589      21402.406      5477.9907      5392.8092      6282.95       -1522.3385      383.1629      -1074.8147    
  66268000   252.24642     -411.9454      -327.46479     -411.94901      0              6149.5165      30.944         21.33497       32.48903       21448.911      5851.2563      5696.4338      6900.8594     -490.44944     -585.63733      849.60494    
  66270000   247.71442     -409.45127     -326.48848     -409.45305      0              6371.1437      30.944         21.33497       32.638895      21547.85       5480.4301      6532.5322      7100.4687      323.12128      1131.0266     -991.69227    
  66272000   259.24632     -411.54718     -324.72221     -411.55071      0              4394.3632      30.944         21.33497       32.624714      21538.487      4069.385       4019.4212      5094.2835      1088.3736     -672.57692     -1132.7487    
  66274000   255.89895     -408.95246     -323.24857     -408.95663      0              5000.4197      30.944         21.33497       32.658957      21561.094      3920.01        6069.6258      5011.6232     -68.596621      886.15646      2068.2714    
  66276000   258.44203     -411.73602     -325.18042     -411.73791      0              6386.4018      30.944         21.33497       32.632597      21543.692      5672.0808      6389.1186      7098.0061      326.80144     -513.57262     -427.5329     
  66278000   254.42154     -411.03323     -325.82414     -411.036        0              4882.3386      30.944         21.33497       32.639529      21548.268      5061.292       4646.7145      4939.0092     -4.4225496      668.54386      230.79364    
  66280000   255.22796     -409.22777     -323.74859     -409.23145      0              7712.4721      30.944         21.33497       32.711387      21595.708      5802.1473      8576.7905      8758.4784      2148.9855      79.020396      37.492767    
  66282000   257.69406     -412.07497     -325.76987     -412.07498      0              5662.1111      30.944         21.33497       32.561318      21496.634      3859.2652      5938.9307      7188.1375      1266.9609     -0.18593964    -706.0189     
  66284000   257.2358      -410.72558     -324.57396     -410.7293       0              7916.8814      30.944         21.33497       32.598374      21521.098      6189.94        8476.8057      9083.8985      1968.3673     -675.9579       196.54842    
  66286000   247.66161     -413.24758     -330.30247     -413.25014      0              4839.0286      30.944         21.33497       32.605539      21525.829      4590.4508      4864.4729      5062.1622     -2123.8542     -450.75978      176.26007    
  66288000   256.31775     -417.40664     -331.56248     -417.40837      0              6507.8448      30.944         21.33497       32.714548      21597.795      5323.4624      8257.6425      5942.4296      770.66967     -835.39208     -295.68229    
  66290000   256.29798     -412.81767     -326.98013     -412.81882      0              6583.6172      30.944         21.33497       32.600282      21522.358      6162.2084      5438.0609      8150.5824      1033.32        128.34662     -1086.3165    
  66292000   258.93544     -414.53232     -327.81147     -414.53479      0              5492.3752      30.944         21.33497       32.651558      21556.21       6748.0074      5156.2417      4572.8765     -1566.2909     -220.99319     -1140.8529    
  66294000   259.19245     -414.26727     -327.46034     -414.26895      0              7499.3861      30.944         21.33497       32.584826      21512.154      9109.496       6313.6045      7075.0577     -97.165577      1803.4571     -796.34599    
  66296000   258.18896     -413.40811     -326.93726     -413.4112       0              8531.9265      30.944         21.33497       32.634468      21544.927      7995.4949      7800.8381      9799.4465     -728.27603     -285.27956     -349.55572    
  66298000   251.90892     -414.68663     -330.31905     -414.68818      0              6529.9205      30.944         21.33497       32.75527       21624.679      8380.329       4251.2113      6958.2213     -246.82073     -1424.4814      3545.135     
  66300000   255.70593     -413.38167     -327.74242     -413.38127      0              5471.8808      30.944         21.33497       32.885754      21710.823      5667.8333      4777.4873      5970.3219     -1001.392      -634.34187      548.53423    
  66302000   255.62829     -414.52293     -328.90968     -414.52453      0              2734.234       30.944         21.33497       32.764451      21630.741      2948.6671      3097.0417      2156.9933      919.49652     -1799.6049     -164.2        
  66304000   252.47436     -413.81431     -329.25735     -413.81508      0              4790.6411      30.944         21.33497       32.636718      21546.412      4822.4496      1871.7503      7677.7235      1362.3002     -26.899165      995.99961    
  66306000   255.42271     -413.14976     -327.60536     -413.15124      0              6554.7357      30.944         21.33497       32.603233      21524.306      5021.8174      6445.7416      8196.6482      522.61615     -1939.2288     -394.94745    
  66308000   258.83135     -415.08496     -328.39897     -415.082        0              6682.6441      30.944         21.33497       32.451176      21423.919      6281.3596      6283.468       7483.1047     -347.51064      436.69596     -368.19003    
  66310000   254.05638     -410.88801     -325.80122     -410.88993      0              7153.2486      30.944         21.33497       32.548703      21488.306      6575.8972      7884.2446      6999.6041      505.81432     -347.44522      48.732671    
  66312000   258.96131     -413.74424     -327.01472     -413.74842      0              6510.8217      30.944         21.33497       32.630484      21542.297      7329.8864      6535.7177      5666.861       340.83361      438.45686      783.49768    
  66314000   263.85779     -412.61386     -324.24444     -412.61675      0              7428.9193      30.944         21.33497       32.509895      21462.685      8000.7         7984.783       6301.2748     -1650.7344      1046.0764     -754.61302    
  66316000   249.78949     -408.86969     -325.21193     -408.87238      0              5262.4165      30.944         21.33497       32.50916       21462.2        8081.416       3127.8522      4577.9812      724.58075     -1111.8291     -505.22151    
  66318000   254.81798     -413.82477     -328.4829      -413.82882      0              5823.6398      30.944         21.33497       32.465102      21433.113      4877.404       6279.8614      6313.654      -723.73065     -210.82835     -245.18123    
  66320000   259.1511      -413.48108     -326.68799     -413.48415      0              7733.8995      30.944         21.33497       32.48705       21447.603      8236.6283      9225.4879      5739.5823      3157.5529     -632.79788     -1815.0293    
  66322000   254.66143     -413.81686     -328.52742     -413.81724      0              6235.8818      30.944         21.33497       32.555424      21492.743      5510.885       6177.6412      7019.1191      1061.9737     -773.36572     -189.93903    
  66324000   253.10155     -414.77619     -330.00918     -414.77806      0              5250.4114      30.944         21.33497       32.649577      21554.902      5899.1571      4105.3237      5746.7533      1778.8131      171.23355     -636.92082    
  66326000   254.90978     -415.47146     -330.09885     -415.47322      0              6081.7248      30.944         21.33497       32.528155      21474.741      6197.3333      4208.1212      7839.7198     -495.13935     -245.17857      659.87766    
  66328000   259.26997     -414.7829      -327.95001     -414.78452      0              7800.713       30.944         21.33497       32.61302       21530.767      7055.8071      6586.9493      9759.3826      144.55552      1131.2046     -1550.1811    
  66330000   255.84539     -410.5297      -324.84374     -410.53026      0              8874.5895      30.944         21.33497       32.38723       21381.703      9407.1679      8010.3046      9206.296      -1224.4797     -1593.8804     -1255.0102    
  66332000   258.86574     -411.74245     -325.04494     -411.74645      0              6476.8646      30.944         21.33497       32.720795      21601.919      6713.5404      4811.6835      7905.3699     -432.60293     -838.34387     -508.16239    
  66334000   249.73337     -409.84043     -326.20147     -409.8421       0              6356.1967      30.944         21.33497       32.725717      21605.169      7639.4041      8401.8053      3027.3807      1005.6089      243.01038     -1173.2896    
  66336000   257.76798     -412.38327     -326.05341     -412.38616      0              6577.6504      30.944         21.33497       32.714323      21597.646      5846.7025      7545.4644      6340.7843     -554.67457     -736.29473     -539.12464    
  66338000   249.16272     -414.24862     -330.80077     -414.2527       0              5868.9243      30.944         21.33497       32.663018      21563.775      5068.1592      4985.9848      7552.6289      661.28909      463.14914      1203.0332    
  66340000   259.14425     -412.70373     -325.91294     -412.70791      0              5408.7909      30.944         21.33497       32.771597      21635.458      4022.5478      7172.8033      5031.0218      834.00914      1206.0322     -269.64657    
  66342000   254.70997     -412.8938      -327.58812     -412.89674      0              6239.7771      30.944         21.33497       32.780124      21641.088      4225.3628      6619.8544      7874.114      -205.47541      405.78326      10.187372    
  66344000   250.53779     -414.63659     -330.72822     -414.63879      0              5909.0307      30.944         21.33497       32.787631      21646.043      6840.2317      6454.6001      4432.2604      968.91367     -243.66313      886.27144    
  66346000   244.85842     -412.55946     -330.55318     -412.56138      0              5653.0492      30.944         21.33497       32.660202      21561.916      3262.6972      6877.6468      6818.8037      1880.5429     -158.05851     -620.81097    
  66348000   250.24562     -415.25641     -331.44589     -415.25811      0              7184.361       30.944         21.33497       32.721323      21602.268      7474.8446      6264.5927      7813.6458     -130.95109      887.4084       1998.9853    
  66350000   249.34892     -411.25696     -327.74676     -411.26114      0              4658.2474      30.944         21.33497       32.852992      21689.194      3952.8775      5845.767       4176.0978      72.176584     -306.02736      1011.1115    
  66352000   257.01162     -413.2779      -327.20136     -413.28126      0              7194.7759      30.944         21.33497       32.815829      21664.659      7503.7553      6035.2779      8045.2945      1018.7785      975.52431      720.75757    
  66354000   260.64501     -413.15731     -325.8639      -413.16116      0              5955.7674      30.944         21.33497       32.881523      21708.03       7305.9534      2985.5182      7575.8305     -869.55053      352.15978     -25.753101    
  66356000   255.74014     -413.82521     -328.1745      -413.82713      0              5683.0335      30.944         21.33497       32.891058      21714.325      7746.7601      4475.259       4827.0816     -1508.3083     -589.93643      1146.1755    
  66358000   253.2191      -413.35463     -328.54825     -413.35893      0              4531.3176      30.944         21.33497       32.811173      21661.585      4812.6528      5393.7607      3387.5394     -1525.0601      1324.7856      1383.6629    
  66360000   245.88573     -409.2049      -326.85457     -409.20471      0              6275.889       30.944         21.33497       32.902072      21721.596      6036.6724      7028.9919      5762.0028     -1094.0007      356.77905     -710.29925    
  66362000   259.00973     -414.88766     -328.14193     -414.88952      0              6759.1358      30.944         21.33497       32.818732      21666.576      6681.5598      8209.0468      5386.8007     -1109.0889     -162.39199      182.44435    
  66364000   256.70256     -409.51478     -323.54174     -409.51848      0              6973.9121      30.944         21.33497       32.654444      21558.115      5776.2881      7404.7056      7740.7426     -372.44623      250.2375       2686.4563    
  66366000   260.08365     -409.94589     -322.84048     -409.94537      0              6330.262       30.944         21.33497       32.784729      21644.128      7099.9197      5897.7643      5993.1019     -1109.45        1353.8537      106.94382    
  66368000   256.8422      -411.34044     -325.32064     -411.34349      0              5636.9041      30.944         21.33497       32.784502      21643.978      5823.8216      7106.2802      3980.6105      1998.2336     -807.44827      308.06778    
  66370000   262.53472     -411.06541     -323.13911     -411.06473      0              6063.7128      30.944         21.33497       32.398139      21388.905      5688.6643      7146.0609      5356.4132     -1644.0586     -208.0953       1197.8154    
  66372000   257.46862     -410.36003     -324.13043     -410.35978      0              8426.7529      30.944         21.33497       32.693735      21584.054      7840.5914      8148.2361      9291.4312      1393.6465      844.13262     -626.65583    
  66374000   252.79896     -409.48116     -324.8155      -409.47904      0              5537.1878      30.944         21.33497       32.707471      21593.123      5274.5706      6578.7844      4758.2084      1079.6377     -220.60982      851.50042    
  66376000   253.14369     -407.4279      -322.64678     -407.42711      0              5065.1425      30.944         21.33497       32.67471       21571.494      3345.0594      6439.6046      5410.7636      1780.6868      183.61156      256.55376    
  66378000   255.0325      -411.48235     -326.06864     -411.48167      0              6672.2375      30.944         21.33497       32.670552      21568.749      6691.9561      6953.9242      6370.832      -1099.9739     -42.472482     -1664.8701    
  66380000   246.28285     -412.62741     -330.14407     -412.62676      0              6474.4022      30.944         21.33497       32.576992      21506.982      4693.3154      7810.4141      6919.4771      1340.191       226.49815     -1202.9438    
  66382000   254.95264     -410.42495     -325.03799     -410.41577      0              3349.3658      30.944         21.33497       32.825657      21671.148      2008.1927      4754.477       3285.4278      626.82778      549.5677      -696.1665     
  66384000   255.42508     -412.45717     -326.91198     -412.45353      0              6135.2108      30.944         21.33497       32.829786      21673.874      5350.5775      6001.9769      7053.0781      1204.4805      2043.1659     -297.5228     
  66386000   253.6314      -410.09288     -325.14842     -410.09345      0              3781.2565      30.944         21.33497       32.787715      21646.099      3117.6215      1555.6541      6670.494      -715.89643      168.52312      1293.1427    
  66388000   247.93312     -411.45253     -328.41649     -411.44657      0              6678.3332      30.944         21.33497       32.66291       21563.704      6465.4707      7373.8596      6195.6694      57.007444      1146.2438     -1776.4195    
  66390000   245.11271     -413.48793     -331.39648     -413.48335      0              8035.4954      30.944         21.33497       32.842925      21682.548      10449.36       5387.9695      8269.1569      908.90596      1852.7728     -614.58048    
  66392000   251.17506     -411.59492     -327.47312     -411.58405      0              5296.4921      30.944         21.33497       32.760637      21628.223      5344.2218      6321.8877      4223.3667      1235.0298     -623.02865     -1728.2751    
  66394000   254.70258     -413.13661     -327.8334      -413.12304      0              5216.4609      30.944         21.33497       32.805338      21657.733      5075.4238      5284.9539      5289.0051     -1567.5706      1065.5783      464.51952    
  66396000   247.43068     -411.71896     -328.8512      -411.70645      0              5970.6978      30.944         21.33497       32.638233      21547.412      5712.4308      7592.2526      4607.41        1874.862       865.31056      2364.144     
  66398000   257.1715      -412.78292     -326.65283     -412.77732      0              6607.6801      30.944         21.33497       32.6972        21586.342      6711.6209      6314.4982      6796.9212     -664.07757     -632.94394      535.33481    
  66400000   257.17085     -416.12614     -329.99627     -416.12579      0              7694.5636      30.944         21.33497       32.671603      21569.443      8794.8419      8493.398       5795.451       101.2761      -771.15229     -608.46306    
  66402000   247.88494     -410.21426     -327.19437     -410.20145      0              5569.836       30.944         21.33497       32.79993       21654.163      6028.8358      5263.9263      5416.7459     -1565.6728      574.70677      1811.3865    
  66404000   245.989       -411.31445     -328.92953     -411.30572      0              5375.9018      30.944         21.33497       32.799367      21653.791      5390.8341      5311.5236      5425.3478     -361.08724     -341.88146      722.32899    
  66406000   262.2647      -412.30596     -324.47009     -412.30137      0              6481.2356      30.944         21.33497       32.794668      21650.689      5761.6927      7534.436       6147.5783      472.94142     -570.73023     -795.57826    
  66408000   258.92797     -411.92561     -325.20726     -411.9208       0              8334.513       30.944         21.33497       32.762107      21629.193      7940.9787      7761.4981      9301.0622     -844.14975      610.87049      5.8586716    
  66410000   252.29811     -411.11647     -326.61854     -411.11024      0              5050.9843      30.944         21.33497       32.72126       21602.226      5271.9601      5837.7253      4043.2674      452.38059      1381.6693     -437.92392    
  66412000   255.7771      -412.27245     -326.60936     -412.25918      0              5495.7189      30.944         21.33497       32.734087      21610.694      6627.1115      5666.4803      4193.5648      646.58047      9.3370555      471.59726    
  66414000   261.17574     -416.48407     -329.01291     -416.48119      0              7645.4118      30.944         21.33497       32.749547      21620.901      7313.3098      7965.6442      7657.2816     -120.69629     -128.81123     -289.85114    
  66416000   256.40405     -412.38384     -326.51078     -412.37277      0              5646.0167      30.944         21.33497       32.676627      21572.76       5897.8845      4890.8775      6149.2882      289.30762      799.77408      557.57535    
  66418000   258.45707     -413.68265     -327.12201     -413.67858      0              5861.4021      30.944         21.33497       32.60619       21526.258      4246.1073      5590.2356      7747.8633      450.6269       241.88304      514.26311    
  66420000   253.95128     -412.31109     -327.2595      -412.30481      0              5763.6397      30.944         21.33497       32.594591      21518.601      6501.5812      6011.3226      4778.0153      637.11461      673.83915     -703.44952    
  66422000   258.33214     -410.90506     -324.38626     -410.89348      0              7315.7827      30.944         21.33497       32.397232      21388.307      8252.376       5035.3406      8659.6316     -731.70112      929.36286      723.06411    
  66424000   250.86891     -413.19979     -329.18052     -413.19036      0              6957.3066      30.944         21.33497       32.552494      21490.808      8104.7354      6944.103       5823.0815     -348.31943      133.00715      1.9084461    
  66426000   252.08154     -410.23907     -325.81368     -410.22559      0              6256.916       30.944         21.33497       32.700301      21588.39       8567.2396      3934.1767      6269.3317     -1001.5558     -726.53088     -635.25419    
  66428000   248.48648     -408.38989     -325.16853     -408.37846      0              5810.9827      30.944         21.33497       32.492599      21451.266      7775.8681      6025.3545      3631.7255      179.31512     -1482.2911     -247.39342    
  66430000   249.06862     -409.71472     -326.29839     -409.70376      0              5229.399       30.944         21.33497       32.736093      21612.019      3693.5146      4839.7078      7154.9746     -1138.7009      456.51462      1051.9744    
  66432000   257.05578     -409.15698     -323.06565     -409.15078      0              5075.6023      30.944         21.33497       32.743677      21617.026      5710.7162      4057.3005      5458.7901      393.9254       136.42074      970.4495     
  66434000   261.28519     -412.53303     -325.02522     -412.53035      0              8155.4873      30.944         21.33497       32.574236      21505.162      9068.0264      7124.17        8274.2656      1138.418       192.93089      28.181369    
  66436000   248.91615     -411.06485     -327.69959     -411.05911      0              6979.6621      30.944         21.33497       32.724898      21604.628      5176.2921      9005.7235      6756.9708      1269.9422      1820.2395      1219.9846    
  66438000   251.98304     -410.88697     -326.49456     -410.88146      0              8694.4582      30.944         21.33497       32.676832      21572.895      8531.3789      7937.5075      9614.4881      533.27589     -1106.4382      85.183284    
  66440000   254.1711      -410.96066     -325.83545     -410.95511      0              2686.3996      30.944         21.33497       32.688369      21580.512      4562.3345      2532.1577      964.70671      754.23842     -640.43596      607.96196    
  66442000   250.51698     -409.58689     -325.68549     -409.58046      0              6360.5435      30.944         21.33497       32.730919      21608.603      7866.7465      4748.4678      6466.416      -1155.2935     -636.99691     -1026.2541    
  66444000   249.08404     -409.96783     -326.54634     -409.96015      0              5978.3447      30.944         21.33497       32.844059      21683.296      5982.3207      7346.5236      4606.1899     -2173.3427      1882.7764     -1232.4204    
  66446000   252.01234     -408.11102     -323.7088      -408.09847      0              6098.5946      30.944         21.33497       32.91107       21727.537      5749.0019      6052.449       6494.3329      662.52036      321.28523     -1341.7291    
  66448000   250.33705     -409.53886     -325.69771     -409.5387       0              6236.7814      30.944         21.33497       32.719729      21601.215      5933.1632      6522.6093      6254.5716      19.898557      1893.6844     -77.384459    
  66450000   251.20991     -409.04413     -324.91066     -409.03669      0              6782.9312      30.944         21.33497       32.708752      21593.969      7557.9296      5320.583       7470.2809     -916.4488       1962.0611      840.65039    
  66452000   251.44278     -409.32566     -325.1142      -409.32052      0              7459.3406      30.944         21.33497       32.592192      21517.017      8569.2808      7897.9159      5910.8251     -1235.8041     -229.88426      1751.0765    
  66454000   259.2638      -409.50362     -322.67279     -409.50266      0              4858.0422      30.944         21.33497       32.800852      21654.772      4421.5006      6094.6912      4057.9348     -752.42016      112.89028      1274.238     
  66456000   256.76628     -411.18523     -325.19086     -411.18784      0              6684.1903      30.944         21.33497       32.600262      21522.344      9158.3612      6158.2754      4735.9342      626.45807     -985.3343       1083.2049    
  66458000   249.8893      -411.69594     -328.00475     -411.69672      0              4561.8872      30.944         21.33497       32.723975      21604.019      3805.5318      5080.5867      4799.543      -1353.0054      964.4338       658.93247    
  66460000   256.83247     -411.18073     -325.16419     -411.17973      0              7028.5816      30.944         21.33497       32.811127      21661.555      8515.1753      5616.7005      6953.8691     -456.36744      973.9142       2069.9335    
  66462000   256.12643     -411.49225     -325.71217     -411.49497      0              7423.6566      30.944         21.33497       32.640702      21549.042      7573.2164      7253.8423      7443.9112      790.70559      1082.1932      732.71384    
  66464000   255.52258     -411.08114     -325.5033      -411.07568      0              6922.5828      30.944         21.33497       32.683669      21577.409      6824.463       8743.3985      5199.8868      992.69847      960.40598     -578.52883    
  66466000   253.22243     -412.38522     -327.57773     -412.37917      0              6694.57        30.944         21.33497       32.670411      21568.656      9120.5304      4998.1247      5965.0548      769.52515     -1214.1614      2004.6624    
  66468000   260.3236      -413.46347     -326.27771     -413.46579      0              6467.5068      30.944         21.33497       32.794315      21650.456      7780.905       6186.5783      5435.037       1636.4235      853.46221     -2171.576     
  66470000   253.43553     -411.69076     -326.8119      -411.68781      0              5415.4952      30.944         21.33497       32.743876      21617.157      6564.8293      3791.3174      5890.339       1217.006      -1234.9419     -1046.4342    
  66472000   254.15203     -410.31539     -325.19656     -410.31591      0              7328.589       30.944         21.33497       32.743675      21617.024      7376.4684      6006.5414      8602.7571      1360.0425     -2613.9629      1311.8544    
  66474000   255.30634     -413.33882     -327.8334      -413.3419       0              5016.8333      30.944         21.33497       32.724136      21604.125      5238.9511      5398.2141      4413.3348      1517.2062     -1082.8402      1137.2007    
  66476000   257.85236     -411.1241      -324.76598     -411.12299      0              7620.3231      30.944         21.33497       32.718755      21600.572      8594.5394      7022.6859      7243.7439      277.72707     -10.170345     -445.38466    
  66478000   259.82681     -412.0749      -325.05551     -412.07873      0              4256.5346      30.944         21.33497       32.832257      21675.505      5456.1273      3707.4314      3606.045      -180.63165     -859.02536      120.14808    
  66480000   259.97468     -413.62191     -326.553       -413.62466      0              6313.1109      30.944         21.33497       32.734918      21611.243      7083.9352      4447.8297      7407.5678     -551.57092      375.14267      1007.1709    
  66482000   245.02708     -412.19852     -330.13576     -412.20219      0              5841.9325      30.944         21.33497       32.73873       21613.76       7233.1614      6039.8588      4252.7775      148.98071     -492.54944      268.02762    
  66484000   259.13413     -412.9774      -326.19        -412.9816       0              8729.1084      30.944         21.33497       32.762044      21629.152      8124.1614      11184.311      6878.8525     -366.21367     -718.04365      1578.9901    
  66486000   246.9232      -411.88228     -329.18448     -411.88172      0              4401.8431      30.944         21.33497       32.661117      21562.52       2983.4652      5012.3435      5209.7206     -1419.345       453.3835      -693.56379    
  66488000   252.53012     -409.07504     -324.49941     -409.07894      0              4891.0848      30.944         21.33497       32.723876      21603.953      5484.288       4408.2327      4780.7338     -533.95506      1152.851      -715.79265    
  66490000   259.17552     -409.67277     -322.8715      -409.67523      0              5479.0344      30.944         21.33497       32.674777      21571.539      5442.5463      4769.5775      6224.9793      945.85159      2382.1586      69.140301    
  66492000   257.26321     -410.97136     -324.81056     -410.97515      0              6852.2064      30.944         21.33497       32.424883      21406.561      7993.5618      5569.9335      6993.1239      118.3765      -258.17948     -584.93585    
  66494000   258.80297     -409.90685     -323.23036     -409.90674      0              7848.94        30.944         21.33497       32.405821      21393.977      9308.4832      9055.7337      5182.6029      1107.7404      110.34069     -1201.778     
  66496000   251.65524     -410.88339     -326.60077     -410.88454      0              5712.6828      30.944         21.33497       32.493196      21451.661      3553.5513      6237.8049      7346.6922      524.23373      703.94328      664.36057    
  66498000   253.63696     -412.98166     -328.03534     -412.98527      0              5767.5698      30.944         21.33497       32.525753      21473.155      4302.3306      6615.1456      6385.2334      537.45125      2030.1563     -1411.1848    
  66500000   255.86441     -409.38807     -323.69574     -409.38747      0              6199.8414      30.944         21.33497       32.392659      21385.288      7544.261       6606.3768      4448.8865      2233.6644      1071.6548      374.00464    
  66502000   252.82478     -409.63486     -324.96054     -409.63344      0              8337.2527      30.944         21.33497       32.613135      21530.843      7747.1197      5666.81        11597.829      983.50376     -789.44955      477.13979    
  66504000   246.01201     -411.51973     -329.1271      -411.51475      0              7158.8088      30.944         21.33497       32.703102      21590.238      5411.6887      9218.5062      6846.2316      743.31514     -2218.2041      1552.2627    
  66506000   260.40972     -412.20587     -324.99126     -412.2037       0              5213.1071      30.944         21.33497       32.666339      21565.968      4364.2644      4675.7269      6599.33        662.60548      17.679973      2231.4199    
  66508000   259.43852     -409.02311     -322.13377     -409.01371      0              7485.5712      30.944         21.33497       32.68678       21579.463      6145.492       8045.5792      8265.6422      1427.6637     -1984.701      -793.43772    
  66510000   254.34103     -411.06935     -325.88722     -411.05796      0              7387.2759      30.944         21.33497       32.882927      21708.957      7327.0411      7994.1646      6840.6221     -1113.998      -1637.9962     -149.59991    
  66512000   255.34011     -409.55887     -324.04214     -409.54911      0              4038.7916      30.944         21.33497       32.780853      21641.569      6022.3233      1816.4811      4277.5703     -2086.9387      355.12714     -1686.4084    
  66514000   258.15048     -408.79454     -322.33657     -408.78854      0              6009.2823      30.944         21.33497       32.89582       21717.469      4961.725       7274.8951      5791.2268      219.94656     -22.709913      300.45931    
  66516000   249.37243     -409.49724     -325.97916     -409.49692      0              6268.0455      30.944         21.33497       32.642759      21550.401      3603.559       8728.764       6471.8136      923.62725      80.875338      403.27567    
  66518000   247.87946     -411.29059     -328.27253     -411.28203      0              4714.0165      30.944         21.33497       32.75442       21624.118      6252.5863      4436.8035      3452.6597     -1552.8855      697.04285      1402.5817    
  66520000   256.29644     -410.4356      -324.59858     -410.4299       0              7320.713       30.944         21.33497       32.74942       21620.817      7465.7161      6990.6729      7505.7499      159.41356     -461.72674      2509.7252    
  66522000   258.28878     -413.14927     -326.64499     -413.13913      0              5487.7454      30.944         21.33497       32.563007      21497.749      7053.5594      4226.0499      5183.6271     -588.86891     -793.5387       524.2081     
  66524000   257.68352     -409.55934     -323.25777     -409.54954      0              6171.3385      30.944         21.33497       32.562726      21497.564      6465.7608      6170.3385      5877.9162      1239.7301     -1023.5755     -526.82823    
  66526000   254.10372     -411.69877     -326.59612     -411.69174      0              7402.2031      30.944         21.33497       32.376185      21374.411      8514.6612      6690.7136      7001.2346      188.26566     -313.77745     -1084.614     
  66528000   256.0974      -410.16185     -324.39149     -410.15591      0              4414.9381      30.944         21.33497       32.451631      21424.22       5120.1008      3718.155       4406.5585      965.3521       11.595491     -970.2844     
  66530000   256.40601     -410.68326     -324.80955     -410.67817      0              7659.9056      30.944         21.33497       32.354809      21360.299      7318.1858      9003.3606      6658.1704     -1900.2342      158.70398      1712.3696    
  66532000   260.78855     -407.59431     -320.25283     -407.5909       0              7707.6497      30.944         21.33497       32.330455      21344.221      8607.1041      7296.4221      7219.423       382.18673     -1719.2593     -493.43992    
  66534000   258.62869     -409.35455     -322.73643     -409.34881      0              6372.1519      30.944         21.33497       32.423405      21405.585      5374.1648      6832.0816      6910.2094      143.70388      611.49582      45.025097    
  66536000   251.16831     -411.62707     -327.50753     -411.62744      0              6007.2118      30.944         21.33497       32.46827       21435.205      5909.7816      5561.4839      6550.37       -1006.6923     -196.63216     -1241.5156    
  66538000   257.33742     -410.38808     -324.20242     -410.38601      0              8392.9773      30.944         21.33497       32.452645      21424.889      6976.1403      9304.5247      8898.2668      1141.4947      81.064602      135.30772    
  66540000   250.48034     -410.16563     -326.2765      -410.16517      0              6498.2827      30.944         21.33497       32.55159       21490.212      7422.4458      5278.595       6793.8072     -578.20238     -1218.0978      711.34863    
  66542000   248.89064     -410.53787     -327.18115     -410.53843      0              7117.625       30.944         21.33497       32.520748      21469.85       7405.0184      6617.8652      7329.9915      95.541475      2320.4832      619.71649    
  66544000   255.33017     -411.64475     -326.13134     -411.64844      0              6515.6182      30.944         21.33497       32.397433      21388.439      7800.3851      6457.0219      5289.4475      1698.8299      1016.7014      474.36472    
  66546000   258.8803      -411.14213     -324.43974     -411.13662      0              5527.7157      30.944         21.33497       32.553895      21491.734      6362.0268      6305.4729      3915.6475      90.377075     -2038.07        1107.0651    
  66548000   254.61912     -411.12181     -325.84655     -411.12151      0              7305.2562      30.944         21.33497       32.420924      21403.947      7458.7837      6906.7143      7550.2705      1265.1993     -165.52674      883.05518    
  66550000   257.00742     -413.12758     -327.05245     -413.12503      0              7954.2034      30.944         21.33497       32.529698      21475.759      7133.7949      7078.6527      9650.1625     -377.21233      1088.4296      677.32839    
  66552000   251.31021     -412.22278     -328.05571     -412.22103      0              5174.6129      30.944         21.33497       32.585686      21512.721      4394.947       5214.3619      5914.5299      1577.3775      1205.2031      829.4601     
  66554000   256.71942     -411.14394     -325.16526     -411.13861      0              7656.0249      30.944         21.33497       32.433233      21412.074      6350.99        9282.6567      7334.428       260.37471     -661.17135     -318.81939    
  66556000   253.48371     -413.40252     -328.50753     -413.4012       0              5665.0676      30.944         21.33497       32.472109      21437.739      5044.1014      4577.3246      7373.7768      872.20935      973.42251      2424.993     
  66558000   255.98942     -414.67791     -328.94372     -414.68114      0              7550.571       30.944         21.33497       32.5419        21483.814      6312.7285      9302.7228      7036.2616     -65.282454      981.24174     -44.300009    
  66560000   262.70187     -413.22687     -325.24459     -413.22791      0              5442.3343      30.944         21.33497       32.546547      21486.883      7177.9856      6158.4241      2990.5932     -453.41117     -564.30951      374.97325    
  66562000   256.51097     -412.90208     -326.99321     -412.90461      0              5428.6478      30.944         21.33497       32.550729      21489.643      5649.0007      5077.2349      5559.7079     -1332.422       369.61464      1039.8922    
  66564000   257.18258     -413.73904     -327.60524     -413.74239      0              6633.294       30.944         21.33497       32.716407      21599.022      6780.2242      5178.2674      7941.3903      180.30187      620.29121      962.68828    
  66566000   255.5703      -408.76025     -323.16642     -408.75961      0              5780.2751      30.944         21.33497       32.740421      21614.876      6149.5708      5379.0208      5812.2336      1108.137      -450.42593      1355.6315    
  66568000   257.755       -411.34585     -325.02035     -411.34541      0              6361.1017      30.944         21.33497       32.691513      21582.588      6630.5964      4652.0953      7800.6136     -424.77328     -317.51282      594.88959    
[...]
  73030000   261.77197     -413.56933     -325.89849     -413.57102      0              5672.502       30.944         21.33497       32.47216       21437.773      3642.9634      5474.2786      7900.264       630.99202      155.39806      1348.3499    
  73032000   257.93874     -411.54361     -325.15657     -411.54477      0              4566.0001      30.944         21.33497       32.630254      21542.145      4674.9338      4898.7608      4124.3056      1632.0503     -90.874562      389.71751    
  73034000   259.60876     -413.07521     -326.12885     -413.07673      0              5568.8758      30.944         21.33497       32.73575       21611.792      5675.9216      5563.9621      5466.7437      74.807667      343.7135       1459.3417    
  73036000   251.39556     -413.89683     -329.70118     -413.89673      0              7115.6924      30.944         21.33497       32.634248      21544.782      5919.1161      8492.6115      6935.3496      157.69548     -215.81931      301.26312    
  73038000   254.67556     -414.51549     -329.22132     -414.51556      0              3290.1332      30.944         21.33497       32.513813      21465.272      2717.9078      3204.3933      3948.0985      288.58117     -3079.4807      53.8675      
  73040000   255.17412     -411.52345     -326.06231     -411.52499      0              6028.432       30.944         21.33497       32.650024      21555.197      5166.9687      7699.9441      5218.3831     -694.42625      762.67363      676.04509    
  73042000   259.86916     -411.22495     -324.19139     -411.22489      0              5634.5342      30.944         21.33497       32.606889      21526.72       5491.6548      6508.428       4903.5198      188.87291      1006.464       1302.3311    
  73044000   261.53314     -412.70557     -325.11471     -412.7064       0              5958.3962      30.944         21.33497       32.518204      21468.171      4867.0617      5973.1629      7034.9639      797.05977     -658.17118      467.31886    
  73046000   257.67494     -411.35709     -325.05839     -411.35596      0              6277.1788      30.944         21.33497       32.750623      21621.611      5837.9763      3795.8276      9197.7325      862.09271      588.42817      954.03685    
  73048000   255.65725     -412.04492     -326.42197     -412.04497      0              5637.3608      30.944         21.33497       32.804684      21657.301      4362.1577      7507.9621      5041.9625      2202.1821     -904.23359      1006.9172    
  73050000   258.00022     -414.10193     -327.6943      -414.10198      0              8451.3726      30.944         21.33497       32.633904      21544.555      7725.5594      9238.1944      8390.3639     -204.9178      -1961.6073     -859.56313    
  73052000   257.77128     -411.86829     -325.53733     -411.86893      0              5739.7745      30.944         21.33497       32.692143      21583.003      5188.5114      5612.6797      6418.1323      871.64351     -496.41182     -500.93309    
  73054000   257.03962     -414.6703      -328.58438     -414.67024      0              6559.6515      30.944         21.33497       32.679615      21574.732      6039.7896      7528.2113      6110.9537      531.44667     -787.95868     -905.98149    
  73056000   248.96532     -416.19024     -332.8085      -416.1893       0              5999.6703      30.944         21.33497       32.713014      21596.782      6377.5908      6679.7953      4941.6248     -407.83959     -230.12598     -2543.4418    
  73058000   251.96164     -413.41425     -329.02901     -413.4142       0              7636.1861      30.944         21.33497       32.728325      21606.89       7076.3248      7924.7962      7907.4372     -671.02456      1443.52       -631.79535    
  73060000   252.92331     -416.09466     -331.38734     -416.09351      0              5041.4348      30.944         21.33497       32.632099      21543.363      6739.4553      5648.3955      2736.4537     -373.14408     -332.05845      369.80219    
  73062000   255.76125     -413.3279      -327.67012     -413.32719      0              7536.2892      30.944         21.33497       32.659935      21561.74       6711.3628      7929.1754      7968.3294      67.802262      1403.7104     -350.57033    
  73064000   258.84404     -414.95283     -328.26259     -414.95141      0              7553.4021      30.944         21.33497       32.661669      21562.885      6602.2395      9996.2582      6061.7085      93.397977      697.54951     -1678.8453    
  73066000   251.48981     -415.24791     -331.0207      -415.24671      0              5756.0591      30.944         21.33497       32.668406      21567.332      8233.4628      3858.2824      5176.4322      707.63309      558.82282     -150.00751    
  73068000   251.95944     -412.87946     -328.49495     -412.87955      0              6198.3237      30.944         21.33497       32.39461       21386.575      7793.7168      5229.5412      5571.7131     -1749.7077     -869.77998     -1186.7755    
  73070000   254.07773     -410.59226     -325.49832     -410.59061      0              5155.7068      30.944         21.33497       32.569389      21501.963      4387.568       5711.9182      5367.6342      1017.845      -334.28849     -970.10834    
  73072000   250.30085     -413.50143     -329.67241     -413.49999      0              5368.1482      30.944         21.33497       32.738762      21613.781      5853.7043      5791.4878      4459.2526      1217.1557     -2278.5262      250.93511    
  73074000   257.26275     -414.18751     -328.02686     -414.18902      0              6022.2241      30.944         21.33497       32.647099      21553.266      4632.1131      6414.0628      7020.4964     -198.08907      1377.9406      603.67641    
  73076000   250.43544     -414.90485     -331.03075     -414.90484      0              4511.8943      30.944         21.33497       32.800486      21654.53       7493.1209      1800.484       4242.078      -362.38364     -701.72722     -394.48262    
  73078000   257.29318     -413.33567     -327.16483     -413.33554      0              5596.4412      30.944         21.33497       32.61886       21534.623      5344.2954      6499.8496      4945.1787      268.10215     -408.35734      1634.0681    
  73080000   255.20075     -411.34203     -325.87197     -411.34228      0              7772.6563      30.944         21.33497       32.400622      21390.544      7474.934       7674.4358      8168.5992     -457.32514     -537.02545      321.41693    
  73082000   253.23913     -414.65283     -329.83974     -414.65229      0              6601.7636      30.944         21.33497       32.603641      21524.575      5874.1478      7354.2549      6576.8883     -188.44585     -1213.8251     -1596.0163    
  73084000   252.92355     -411.99562     -327.28822     -411.99471      0              5388.2991      30.944         21.33497       32.59957       21521.887      4655.8697      7010.3689      4498.6586     -271.25924     -1644.1123     -152.79981    
  73086000   256.63281     -415.21748     -329.26781     -415.21787      0              7117.4664      30.944         21.33497       32.547014      21487.19       6622.6088      7243.351       7486.4396      2206.0672     -2156.9458     -1933.3121    
  73088000   255.04728     -415.48273     -330.06407     -415.48115      0              7607.9427      30.944         21.33497       32.540169      21482.672      9435.5919      6719.2768      6668.9595     -407.58668     -748.72839      676.18495    
  73090000   257.93501     -413.5552      -327.16941     -413.55413      0              4715.0616      30.944         21.33497       32.552642      21490.907      5593.0794      3962.9919      4589.1135     -767.61975     -761.39733     -2327.4415    
  73092000   253.24176     -410.6237      -325.80973     -410.62348      0              4671.8425      30.944         21.33497       32.710459      21595.095      5578.9548      4014.2023      4422.3703     -758.22456     -1360.2828      136.60575    
  73094000   249.12644     -415.97904     -332.54335     -415.97913      0              5246.3418      30.944         21.33497       32.660391      21562.041      6263.8879      3335.9288      6139.2087      489.84354      894.55605      1328.2139    
  73096000   262.06983     -416.12062     -328.35001     -416.12146      0              7424.9674      30.944         21.33497       32.604812      21525.349      5522.4175      7622.4339      9130.0506      825.16412      348.85064      1140.2246    
  73098000   255.50117     -414.30959     -328.73892     -414.30961      0              5078.4668      30.944         21.33497       32.616446      21533.029      6016.0065      4285.1905      4934.2033     -657.78496     -1046.5608     -71.127604    
  73100000   250.12536     -415.23246     -331.46222     -415.23216      0              4430.9355      30.944         21.33497       32.746779      21619.073      3674.4486      4621.7101      4996.6479     -382.34316      1085.1088     -428.70473    
  73102000   258.77136     -413.06499     -326.39909     -413.06482      0              7887.9544      30.944         21.33497       32.802193      21655.658      6812.4036      9666.4947      7184.965       2064.1153      1206.5042      1940.841     
  73104000   256.08244     -415.38155     -329.61621     -415.38146      0              3678.5014      30.944         21.33497       32.907682      21725.3        4332.9947      2772.9258      3929.5839      692.25136     -2743.2423      340.60806    
  73106000   251.97169     -412.62732     -328.23871     -412.62645      0              8203.3622      30.944         21.33497       32.78045       21641.303      8346.0577      7575.0839      8688.9449      396.95018      1192.4808      1359.324     
  73108000   259.50307     -413.10016     -326.1892      -413.10033      0              5970.012       30.944         21.33497       32.73262       21609.726      6033.7407      4322.7882      7553.5071      1166.4799     -1779.1022     -638.47533    
  73110000   258.43379     -413.29842     -326.74557     -413.29712      0              5421.6979      30.944         21.33497       32.66018       21561.901      6538.0019      3827.3083      5899.7834      758.16745     -220.93198     -610.0592     
  73112000   257.27113     -414.39137     -328.22791     -414.39148      0              6350.976       30.944         21.33497       32.608434      21527.74       6686.2559      5886.0697      6480.6024      234.17667     -2558.5153     -464.74046    
  73114000   260.186       -414.77859     -327.63891     -414.77877      0              5397.8116      30.944         21.33497       32.519922      21469.305      4725.4533      6851.1454      4616.836       2283.4103      2457.208       2.9897947    
  73116000   250.53352     -414.04337     -330.13642     -414.04357      0              6321.9176      30.944         21.33497       32.646299      21552.738      3744.6837      6806.4726      8414.5964      1185.6842      454.43932      1466.5163    
  73118000   258.20464     -414.72048     -328.24438     -414.72002      0              6851.5996      30.944         21.33497       32.658346      21560.691      8076.5707      7360.1921      5118.0358      264.44508     -801.45508     -558.91262    
  73120000   253.95244     -417.75773     -332.70575     -417.75793      0              5681.0679      30.944         21.33497       32.617326      21533.61       4464.6309      5331.6239      7246.9489      350.84659     -312.44319      623.11485    
  73122000   256.39642     -414.48766     -328.61715     -414.48365      0              5185.8717      30.944         21.33497       32.624602      21538.413      3582.3948      5693.7108      6281.5095      683.20227      251.64489     -668.43268    
  73124000   254.01252     -414.3818      -329.30969     -414.3823       0              7589.1368      30.944         21.33497       32.452408      21424.733      7174.7976      7821.1625      7771.4502     -179.85959     -458.72834     -293.45286    
  73126000   249.17825     -413.02587     -329.57282     -413.02494      0              6711.2124      30.944         21.33497       32.547993      21487.837      5264.4587      7125.3826      7743.7958     -331.32434      1046.7351     -1538.6936    
  73128000   253.89086     -414.52646     -329.4951      -414.52498      0              5916.9473      30.944         21.33497       32.481059      21443.648      6097.9648      5955.0584      5697.8189      87.074452      375.63921      151.36049    
  73130000   257.18003     -415.00012     -328.86717     -415.00013      0              5361.4181      30.944         21.33497       32.474706      21439.454      4899.1428      6709.1356      4475.9758     -1516.354       2628.7377     -514.29131    
  73132000   258.1002      -415.72731     -329.28619     -415.72645      0              4014.8928      30.944         21.33497       32.788184      21646.408      6952.3684      3424.8065      1667.5035      1279.9124     -414.3313      -1696.6847    
  73134000   254.81606     -412.82409     -327.48287     -412.82417      0              6417.9625      30.944         21.33497       32.631284      21542.825      4730.8693      8344.1014      6178.9168     -901.91169     -1469.5518     -861.71043    
  73136000   253.2736      -414.71578     -329.89115     -414.7159       0              5715.2414      30.944         21.33497       32.606551      21526.497      6520.0411      4714.7624      5910.9207      486.25356      1546.3056     -1504.1279    
  73138000   257.43104     -414.23338     -328.01637     -414.23481      0              6239.3807      30.944         21.33497       32.603339      21524.376      4358.7773      7943.4302      6415.9346      1918.8684     -1004.4955     -724.70468    
  73140000   247.90201     -413.35742     -330.33181     -413.35682      0              4682.7391      30.944         21.33497       32.705655      21591.924      5059.305       5024.6691      3964.2431     -162.82017      154.30915      620.05843    
  73142000   256.7114      -411.75147     -325.77547     -411.74994      0              5892.1844      30.944         21.33497       32.742224      21616.066      6302.8033      6331.8604      5041.8896     -566.78449     -815.24707      444.05274    
  73144000   262.11568     -414.86926     -327.0833      -414.87014      0              7886.4042      30.944         21.33497       32.714347      21597.662      8637.9227      8064.4359      6956.8538     -839.2496       44.440982      538.15836    
  73146000   261.65684     -410.60513     -322.97284     -410.60391      0              6771.2991      30.944         21.33497       32.561025      21496.441      7952.8071      7708.7196      4652.3707      697.3273       229.5353       313.66476    
  73148000   256.55151     -412.41412     -326.49167     -412.41558      0              6624.4775      30.944         21.33497       32.423057      21405.356      5380.5804      7245.8304      7247.0217     -2498.4179      853.01908     -846.30162    
  73150000   250.21946     -414.16962     -330.36786     -414.17067      0              6619.0637      30.944         21.33497       32.522807      21471.21       5387.3445      9122.8206      5347.0259      753.40817     -754.70734     -1062.3491    
  73152000   258.36963     -413.49802     -326.96666     -413.49814      0              6854.3219      30.944         21.33497       32.425337      21406.861      5385.1337      7994.6882      7183.1437     -798.50154      844.63625     -913.86742    
  73154000   254.44091     -412.55122     -327.33565     -412.55015      0              5089.9916      30.944         21.33497       32.504689      21459.248      4857.4389      5959.5393      4452.9966      1479.9649      837.40672     -437.15345    
  73156000   255.81006     -413.15822     -327.48409     -413.1584       0              4870.1168      30.944         21.33497       32.608317      21527.662      7071.3128      4073.848       3465.1897     -953.96125     -1212.7633     -1524.8308    
  73158000   252.92453     -415.22764     -330.51991     -415.22675      0              6319.952       30.944         21.33497       32.571663      21503.464      5876.7549      7209.6453      5873.4559     -22.691618      42.976766     -984.83189    
  73160000   255.31293     -411.28183     -325.7742      -411.28184      0              7019.9448      30.944         21.33497       32.610014      21528.783      7207.6919      6583.3618      7268.7807      803.53642     -347.95679     -454.46871    
  73162000   260.34443     -411.83728     -324.64453     -411.83762      0              6133.996       30.944         21.33497       32.596238      21519.688      5206.6624      7001.7703      6193.5552     -805.0499       1164.1045     -292.60266    
  73164000   260.46716     -410.83707     -323.60323     -410.8348       0              6972.3674      30.944         21.33497       32.492782      21451.388      7056.5324      6877.7243      6982.8457     -211.08008      1276.6262     -440.70454    
  73166000   257.13946     -411.88273     -325.76337     -411.88057      0              5466.8924      30.944         21.33497       32.611229      21529.585      5748.9292      4934.0842      5717.6638      1134.5147      1030.099      -239.05109    
  73168000   263.37652     -412.01282     -323.80459     -412.01291      0              7183.1047      30.944         21.33497       32.858896      21693.092      6902.7077      8705.265       5941.3412      465.69479     -433.45862     -171.46973    
  73170000   254.35441     -413.92289     -328.73628     -413.92354      0              4469.6852      30.944         21.33497       32.703388      21590.427      4831.7044      3452.1684      5125.1827      1085.0798      585.98621     -350.48548    
  73172000   254.13019     -415.90958     -330.79807     -415.90984      0              5769.775       30.944         21.33497       32.868411      21699.374      6038.0786      5649.9265      5621.3198      533.32585     -367.08835     -362.1243     
WARNING: Wall time limit reached (../timer.cpp:193)
Loop time of 85797.4 on 4 procs for 7172000 steps with 2592 atoms

Performance: 3.611 ns/day, 6.646 hours/ns, 83.592 timesteps/s
1398.3% CPU use with 4 MPI tasks x no OpenMP threads

MPI task timing breakdown:
Section |  min time  |  avg time  |  max time  |%varavg| %total
---------------------------------------------------------------
Pair    | 20150      | 20257      | 20395      |  61.7 | 23.61
Bond    | 0.60237    | 0.69619    | 0.78043    |   8.9 |  0.00
Neigh   | 610.88     | 619.27     | 630.13     |  30.1 |  0.72
Comm    | 2266.8     | 2411.2     | 2523.6     | 188.1 |  2.81
Output  | 8912.2     | 8912.3     | 8912.6     |   0.2 | 10.39
Modify  | 53573      | 53576      | 53579      |   1.1 | 62.45
Other   |            | 20.21      |            |       |  0.02

Nlocal:            648 ave         655 max         641 min
Histogram: 1 0 0 1 0 0 1 0 0 1
Nghost:           4216 ave        4231 max        4205 min
Histogram: 2 0 0 0 0 0 1 0 0 1
Neighs:              0 ave           0 max           0 min
Histogram: 4 0 0 0 0 0 0 0 0 0
FullNghs:       165624 ave      169224 max      162222 min
Histogram: 1 0 1 0 0 0 1 0 0 1

Total # of neighbors = 662498
Ave neighs/atom = 255.59336
Ave special neighs/atom = 0
Neighbor list builds = 143440
Dangerous builds not checked
unfix 3
unfix 1
unfix 2


# Finalize simulation
write_restart	restart.lmp.${pid}
write_restart	restart.lmp.0
System init for write_restart ...
Generated 0 of 1 mixed pair_coeff terms from geometric mixing rule
write_data	data.final.${pid} nocoeff
write_data	data.final.0 nocoeff
System init for write_data ...
Generated 0 of 1 mixed pair_coeff terms from geometric mixing rule
Total wall time: 23:50:14
