LAMMPS (23 Jun 2022)
include procedure.lmp
echo both
include		in.partitions
variable        pid world 0
include		in.temp
variable	temperature equal 255
variable        tempDamp equal 0.100 # this is 0.1 ps
include		in.pressure
variable        pressure equal 6079.5
variable        pressureDamp equal 1.0 #this is 1ps

variable	barostat string	   tri
variable	direction string   z
variable	direction_x_bool equal 0
variable	direction_y_bool equal 0
variable	direction_z_bool equal 1

include		in.seed
variable        seed world 745823

units           metal
atom_style	full
box tilt large
read_restart 	restart.lmp.${pid}
read_restart 	restart.lmp.0
Reading restart file ...
  restart file = 23 Jun 2022, LAMMPS = 23 Jun 2022
  restoring atom style full from restart
  triclinic box = (0 0 -0.87275625) to (30.944 21.33497 31.845471) with tilt (-9.144178 0.98726863 -10.887732)
WARNING: Triclinic box skew is large (../domain.cpp:224)
  2 by 1 by 2 MPI processor grid
Summary of lammps deepmd module ...
  >>> Info of deepmd-kit:
  installed to:       /u/sigbjobo/software/DEEPMD_FROM_SOURCE/deepmd-kit/install
  source:             v2.1.3
  source branch:       master
  source commit:      5a32c49
  source commit at:   2022-07-01 09:52:58 +0800
  surpport model ver.:1.1 
  build float prec:   double
  build with tf inc:  /u/sigbjobo/software/DEEPMD_FROM_SOURCE/tensorflow/install/include;/u/sigbjobo/software/DEEPMD_FROM_SOURCE/tensorflow/install/include
  build with tf lib:  /u/sigbjobo/software/DEEPMD_FROM_SOURCE/tensorflow/install/lib/libtensorflow_cc.so;/u/sigbjobo/software/DEEPMD_FROM_SOURCE/tensorflow/install/lib/libtensorflow_framework.so
  set tf intra_op_parallelism_threads: 0
  set tf inter_op_parallelism_threads: 0
  >>> Info of lammps module:
  use deepmd-kit at:  /u/sigbjobo/software/DEEPMD_FROM_SOURCE/deepmd-kit/install
  source:             v2.1.3
  source branch:      master
  source commit:      5a32c49
  source commit at:   2022-07-01 09:52:58 +0800
  build float prec:   double
  build with tf inc:  /u/sigbjobo/software/DEEPMD_FROM_SOURCE/tensorflow/install/include;/u/sigbjobo/software/DEEPMD_FROM_SOURCE/tensorflow/install/include
  build with tf lib:  /u/sigbjobo/software/DEEPMD_FROM_SOURCE/tensorflow/install/lib/libtensorflow_cc.so;/u/sigbjobo/software/DEEPMD_FROM_SOURCE/tensorflow/install/lib/libtensorflow_framework.so
  restoring pair style deepmd from restart
  2592 atoms
Finding 1-2 1-3 1-4 neighbors ...
  special bond factors lj:    0        0        0       
  special bond factors coul:  0        0        0       
     0 = max # of 1-2 neighbors
     0 = max # of 1-3 neighbors
     0 = max # of 1-4 neighbors
     1 = max # of special neighbors
  special bonds CPU = 0.000 seconds
  read_restart CPU = 0.008 seconds
include 	in.setup
variable	out_freq equal 2000
variable	out_freq2 equal 2000

timestep        0.0005

neigh_modify    delay 7 every 1

include         in.deepmd
# This is deepMD model

# create groups ###
#group ox type 2
#group hy type 1

mass 2 15.999
mass 1 1.008

pair_style      deepmd ../graph.pb
pair_coeff      * *

bond_style      none
angle_style     none
dihedral_style  none
improper_style  none
neigh_modify exclude none


neighbor        2.0 bin
neigh_modify    every 50 delay 0 check no

thermo          ${out_freq}
thermo          2000
thermo_style 	custom step temp pe etotal epair emol press lx ly lz vol pxx pyy pzz pxy pxz pyz

restart 	${out_freq} restart.lmp.${pid} restart2.lmp.${pid}
restart 	2000 restart.lmp.${pid} restart2.lmp.${pid}
restart 	2000 restart.lmp.0 restart2.lmp.${pid}
restart 	2000 restart.lmp.0 restart2.lmp.0


timer           timeout 23:50:00 every 1000
New timer settings: style=normal  mode=nosync  timeout=23:50:00


# Set number of time steps
variable 	nsteps_wall		equal	 6000000
variable 	nsteps_enhanced_coex    equal	300000000

variable     nsteps_enhanced_coex_upto equal (${nsteps_wall}+${nsteps_enhanced_coex})
variable     nsteps_enhanced_coex_upto equal (6000000+${nsteps_enhanced_coex})
variable     nsteps_enhanced_coex_upto equal (6000000+300000000)


# Set temperature for first step
if "$(step) < 1  " then    "velocity 	all create ${temperature} ${seed} dist gaussian"


# Always run thermo and barostat


######################################
# Run simulation with wall potential #
######################################
if " $(step) < ${nsteps_wall} " then    "fix             3 all plumed plumedfile plumed.equil.dat outfile plumed.equil.out"   "fix             1 all nph ${direction} ${pressure} ${pressure} ${pressureDamp}"   "fix             2 all temp/csvr ${temperature} ${temperature} ${tempDamp} ${seed}"   "run             ${nsteps_wall} upto"
if " $(step) == ${nsteps_wall} " then    "unfix 3"   "unfix 1"   "unfix 2"


############################
# Run enhanced coesistence #
############################
if "$(step) == ${nsteps_wall}" then    "fix             3 all plumed plumedfile plumed.start.dat outfile plumed.out" else    "fix             3 all plumed plumedfile plumed.dat outfile plumed.out"
fix             3 all plumed plumedfile plumed.dat outfile plumed.out

if "$(step) < ${nsteps_enhanced_coex_upto} && $(step) >= ${nsteps_wall} " then    "include         in.dump"    "fix             1 all nph ${direction} ${pressure} ${pressure} ${pressureDamp}"   "fix             2 all temp/csvr ${temperature} ${temperature} ${tempDamp} ${seed}"   "run             ${nsteps_enhanced_coex_upto} upto"    "unfix 3"   "unfix 1"   "unfix 2"
include         in.dump
dump            myDump all atom ${out_freq2} dump.water.${pid}
dump            myDump all atom 2000 dump.water.${pid}
dump            myDump all atom 2000 dump.water.0
dump            myDump2 all dcd ${out_freq2} dump.${pid}.dcd
dump            myDump2 all dcd 2000 dump.${pid}.dcd
dump            myDump2 all dcd 2000 dump.0.dcd
dump_modify     myDump append yes
dump_modify     myDump2 append yes

fix             1 all nph ${direction} ${pressure} ${pressure} ${pressureDamp}
fix             1 all nph z ${pressure} ${pressure} ${pressureDamp}
fix             1 all nph z 6079.5 ${pressure} ${pressureDamp}
fix             1 all nph z 6079.5 6079.5 ${pressureDamp}
fix             1 all nph z 6079.5 6079.5 1
fix             2 all temp/csvr ${temperature} ${temperature} ${tempDamp} ${seed}
fix             2 all temp/csvr 255 ${temperature} ${tempDamp} ${seed}
fix             2 all temp/csvr 255 255 ${tempDamp} ${seed}
fix             2 all temp/csvr 255 255 0.1 ${seed}
fix             2 all temp/csvr 255 255 0.1 745823
run             ${nsteps_enhanced_coex_upto} upto
run             306000000 upto

CITE-CITE-CITE-CITE-CITE-CITE-CITE-CITE-CITE-CITE-CITE-CITE-CITE

Your simulation uses code contributions which should be cited:

- USER-DEEPMD package:

@article{Wang_ComputPhysCommun_2018_v228_p178,
  author = {Wang, Han and Zhang, Linfeng and Han, Jiequn and E, Weinan},
  doi = {10.1016/j.cpc.2018.03.016},
  url = {https://doi.org/10.1016/j.cpc.2018.03.016},
  year = 2018,
  month = {jul},
  publisher = {Elsevier {BV}},
  volume = 228,
  journal = {Comput. Phys. Commun.},
  title = {{DeePMD-kit: A deep learning package for many-body potential energy representation and molecular dynamics}},
  pages = {178--184}
}

CITE-CITE-CITE-CITE-CITE-CITE-CITE-CITE-CITE-CITE-CITE-CITE-CITE

Generated 0 of 1 mixed pair_coeff terms from geometric mixing rule
Neighbor list info ...
  update every 50 steps, delay 0 steps, check no
  max neighbors/atom: 2000, page size: 100000
  master list distance cutoff = 8
  ghost atom cutoff = 8
  binsize = 4, bins = 11 9 9
  1 neighbor lists, perpetual/occasional/extra = 1 0 0
  (1) pair deepmd, perpetual
      attributes: full, newton on
      pair build: full/bin
      stencil: full/bin/3d
      bin: standard
Per MPI rank memory allocation (min/avg/max) = 7.307 | 7.308 | 7.309 Mbytes
   Step          Temp          PotEng         TotEng         E_pair         E_mol          Press            Lx             Ly             Lz           Volume          Pxx            Pyy            Pzz            Pxy            Pxz            Pyz      
 158202000   250.63468     -414.4431      -330.50228     -414.4431       0              5197.3837      30.944         21.33497       32.718228      21600.224      5445.2635      5535.6722      4611.2154      156.82892      1288.1328      616.05856    
 158204000   256.08869     -412.87039     -327.10295     -412.86584      0              5927.0929      30.944         21.33497       32.699577      21587.911      8060.9982      6472.9157      3247.3649     -334.86533      649.57067      329.23535    
 158206000   254.43275     -414.57001     -329.35716     -414.57008      0              7866.2267      30.944         21.33497       32.54616       21486.627      7369.4362      8953.7894      7275.4545     -432.38376      1875.6066     -957.14123    
 158208000   250.20073     -412.34142     -328.54593     -412.33575      0              6490.8558      30.944         21.33497       32.50524       21459.612      5772.4404      6034.547       7665.5799      348.26088      262.49654      1784.2937    
 158210000   252.78606     -414.24302     -329.58168     -414.24125      0              5769.2233      30.944         21.33497       32.415119      21400.115      5123.1939      8091.2659      4093.2102     -444.57602     -519.20374      433.21169    
 158212000   260.14597     -412.68861     -325.56233     -412.6889       0              6933.0621      30.944         21.33497       32.539587      21482.287      6591.8644      8294.9182      5912.4035     -543.27801     -132.50415      801.89996    
 158214000   256.76195     -413.41999     -327.42707     -413.41801      0              7235.0999      30.944         21.33497       32.393429      21385.795      6407.4157      6456.1899      8841.694      -2193.1961      209.82914      1484.1205    
 158216000   247.05264     -413.16723     -330.42608     -413.16449      0              7380.3684      30.944         21.33497       32.185506      21248.527      7636.466       5548.1927      8956.4466     -1908.6587     -294.81427     -300.65493    
 158218000   250.56077     -411.3714      -327.45534     -411.36622      0              7435.6383      30.944         21.33497       32.281635      21311.99       8107.4735      8243.0123      5956.429       723.20053      510.58637     -1308.841     
 158220000   254.06513     -414.39333     -329.30361     -414.39128      0              8378.5968      30.944         21.33497       32.224037      21273.965      6286.0672      9139.0438      9710.6793      1591.1251      1558.5045      2107.715     
 158222000   254.06406     -415.21242     -330.12305     -415.20956      0              7235.0354      30.944         21.33497       32.294218      21320.297      7129.5907      6910.6554      7664.8602      425.9779       806.69474      946.7911     
 158224000   253.04265     -414.51686     -329.76958     -414.51229      0              6879.6043      30.944         21.33497       32.495959      21453.485      6638.0254      7514.545       6486.2427      15.127665      92.511195      333.3221     
 158226000   258.37552     -413.03752     -326.50419     -413.03495      0              7427.1415      30.944         21.33497       32.452735      21424.949      9305.7102      6032.4555      6943.2587     -545.78673     -575.85534      674.83501    
 158228000   260.76602     -411.59648     -324.26253     -411.58829      0              5344.0887      30.944         21.33497       32.560996      21496.422      5512.1955      5263.2215      5256.849      -598.0528      -370.0885       347.04846    
 158230000   252.14369     -414.26714     -329.82093     -414.26619      0              5881.0645      30.944         21.33497       32.565863      21499.635      6565.6278      7069.3489      4008.2168     -1313.5313     -1797.6617     -459.11251    
 158232000   266.9121      -412.33505     -322.94271     -412.32834      0              8195.3648      30.944         21.33497       32.596695      21519.989      8090.7653      8657.0904      7838.2388      1116.7495      963.6602      -263.59008    
 158234000   252.27529     -412.95747     -328.46719     -412.95675      0              5799.3838      30.944         21.33497       32.811852      21662.034      6080.3658      4727.5221      6590.2635      73.68208      -272.04398      2138.7761    
 158236000   256.51505     -417.51639     -331.60615     -417.50956      0              5267.6405      30.944         21.33497       32.886982      21711.634      6435.9204      4401.0686      4965.9325      154.03407     -1422.0606     -1321.027     
 158238000   254.25253     -413.20716     -328.05467     -413.20436      0              6982.2678      30.944         21.33497       32.706485      21592.472      6625.7495      8447.4566      5873.5974     -743.60965      23.879597     -2004.791     
 158240000   261.09293     -413.00168     -325.55825     -413            0              6381.5488      30.944         21.33497       32.756825      21625.706      6288.3489      6489.5782      6366.7195      952.39584      559.65164      869.29987    
 158242000   253.74441     -414.4344      -329.45209     -414.43069      0              8986.5554      30.944         21.33497       32.669773      21568.235      9475.8149      7481.2515      10002.6        1232.5739      78.856687     -873.20005    
 158244000   257.6741      -414.10566     -327.80725     -414.1011       0              6855.8577      30.944         21.33497       32.612847      21530.653      6262.3633      7040.4339      7264.7759      52.754455     -377.39709      1101.645     
 158246000   249.0434      -414.41297     -331.00509     -414.40968      0              3882.195       30.944         21.33497       32.704166      21590.941      3469.9774      6184.4045      1992.2032      1382.9778      839.40616      548.59872    
 158248000   259.66605     -416.00886     -329.04332     -416.00208      0              6974.2508      30.944         21.33497       32.742755      21616.417      7490.0734      8178.6022      5254.0769      129.08762      212.4269       851.38059    
 158250000   255.53553     -415.76363     -330.18145     -415.75647      0              4333.1272      30.944         21.33497       32.666223      21565.891      6625.4043      1988.9456      4385.0318     -1113.6194      1647.777      -302.9657     
 158252000   264.20714     -414.43973     -325.95332     -414.43299      0              6913.1997      30.944         21.33497       32.523194      21471.465      6013.2654      8212.8115      6513.5222      861.00545     -85.352099     -568.99762    
 158254000   254.43        -415.47647     -330.26455     -415.47042      0              5837.2217      30.944         21.33497       32.517075      21467.426      7049.3809      5475.8832      4986.4009     -1383.4447     -1066.604       1773.6914    
 158256000   257.73264     -412.46724     -326.14922     -412.46042      0              6816.6878      30.944         21.33497       32.484887      21446.175      9043.6634      6300.8831      5105.5168      203.4258      -620.14682      463.38309    
 158258000   255.60674     -411.97105     -326.36502     -411.96427      0              5856.6553      30.944         21.33497       32.578152      21507.747      6216.5888      7131.2759      4222.1011     -434.08239      908.9081      -982.41747    
 158260000   253.33168     -413.59844     -328.75436     -413.5938       0              7352.8876      30.944         21.33497       32.405278      21393.618      7048.3109      7498.8664      7511.4855     -1001.212      -1568.9002     -1119.2541    
 158262000   250.12794     -412.00036     -328.22925     -411.99362      0              4584.4289      30.944         21.33497       32.474487      21439.309      2889.2094      6640.4985      4223.5788      155.202       -140.78874      355.04996    
 158264000   257.5268      -412.16673     -325.91765     -412.15998      0              7649.2039      30.944         21.33497       32.416886      21401.282      7580.9292      7897.7178      7468.9646     -1065.143       166.42688      1229.9766    
 158266000   260.48184     -412.87301     -325.63424     -412.86604      0              6943.8199      30.944         21.33497       32.597666      21520.631      6751.9396      7399.7266      6679.7934      1342.3635     -367.99257     -681.15314    
 158268000   260.31671     -411.85041     -324.66695     -411.84229      0              7840.7394      30.944         21.33497       32.588701      21514.712      8672.2924      6773.5016      8076.424      -1332.7694      515.1729       1279.4576    
 158270000   250.23613     -414.39861     -330.59127     -414.39133      0              6585.9488      30.944         21.33497       32.556543      21493.482      6080.6518      8363.7883      5313.4063      534.80464     -779.04234     -721.85803    
 158272000   252.31031     -413.85411     -329.35209     -413.84949      0              6163.7174      30.944         21.33497       32.637558      21546.967      6674.0155      7242.0051      4575.1316     -538.12307      1346.5232     -1011.4364    
 158274000   265.47144     -412.97326     -324.06341     -412.96648      0              5722.567       30.944         21.33497       32.600735      21522.657      5945.5677      5622.8175      5599.316       787.30315      475.17365      1718.8805    
 158276000   254.09288     -412.73659     -327.63758     -412.73083      0              4730.2748      30.944         21.33497       32.637661      21547.035      5125.6502      4988.9445      4076.2297      254.35414      101.17379      1217.2188    
 158278000   254.82931     -414.41032     -329.06466     -414.40426      0              7177.6941      30.944         21.33497       32.666233      21565.898      6654.5433      7769.9592      7108.5797      1038.913       1070.9349     -217.59164    
 158280000   258.25949     -411.16707     -324.6726      -411.16315      0              4346.3896      30.944         21.33497       32.561745      21496.916      2788.253       6037.0906      4213.825       279.79991     -539.31735     -306.40254    
 158282000   255.32392     -413.36264     -327.85133     -413.35584      0              4778.6145      30.944         21.33497       32.531116      21476.695      3203.5695      4702.0007      6430.2733      1430.1179     -959.47844      1207.6384    
 158284000   248.94714     -414.44636     -331.07072     -414.44441      0              5558.0629      30.944         21.33497       32.572505      21504.02       5475.375       5135.7986      6063.0151     -1432.973       252.82666      928.49025    
 158286000   257.59055     -413.50106     -327.23063     -413.49394      0              5271.7094      30.944         21.33497       32.609695      21528.572      6914.8019      4506.5674      4393.759      -1513.4867      2415.7016     -437.49582    
 158288000   252.23245     -414.07437     -329.59843     -414.06864      0              3921.4985      30.944         21.33497       32.712932      21596.728      4071.6354      5784.1617      1908.6985      460.0033      -2461.2039      88.214301    
 158290000   256.31711     -414.17626     -328.33231     -414.16964      0              5924.1391      30.944         21.33497       32.626798      21539.863      5785.9867      5268.1231      6718.3075     -198.39675      1924.3689      371.04099    
 158292000   244.8911      -415.82988     -333.81266     -415.82711      0              3385.3093      30.944         21.33497       32.583393      21511.208      4293.5336      3062.1597      2800.2346     -1448.8852      580.03771     -1200.2471    
 158294000   255.19017     -414.48396     -329.01745     -414.47805      0              6403.5205      30.944         21.33497       32.616867      21533.307      9821.849       3642.693       5746.0195     -1196.1162      1979.8584      631.8804     
 158296000   245.91437     -413.50014     -331.14021     -413.49336      0              7735.3817      30.944         21.33497       32.56476       21498.907      8663.4401      7944.6787      6598.0263      113.22749      1208.405      -1981.5914    
 158298000   250.88393     -414.88164     -330.85734     -414.87662      0              7239.6095      30.944         21.33497       32.606589      21526.522      8992.6615      5743.9526      6982.2143     -597.04912      516.47605      316.01438    
 158300000   252.48586     -415.58034     -331.01953     -415.57335      0              6766.9948      30.944         21.33497       32.763894      21630.373      8208.7641      7205.347       4886.8733     -1148.6377      310.46457      766.09644    
 158302000   258.66424     -414.88976     -328.25973     -414.88156      0              6612.3368      30.944         21.33497       32.889802      21713.496      6083.3466      8126.3671      5627.2968     -957.91869     -134.39872     -622.80731    
 158304000   252.71819     -414.598       -329.95939     -414.59371      0              6334.1354      30.944         21.33497       32.82649       21671.698      6969.3671      6466.4185      5566.6207     -437.8564      -474.81679      166.9896     
 158306000   253.81652     -416.05404     -331.04757     -416.0473       0              5535.4232      30.944         21.33497       32.793469      21649.898      4117.3438      9298.7445      3190.1812      1820.8916      70.514496     -2530.3368    
 158308000   257.61473     -416.17908     -329.90055     -416.17234      0              5673.8041      30.944         21.33497       32.8394        21680.221      3517.3171      4666.7565      8837.3388     -584.8371      -203.19558      526.32231    
 158310000   256.79985     -414.39557     -328.38995     -414.39157      0              4477.1668      30.944         21.33497       32.854342      21690.086      4104.4558      5208.6438      4118.4007      1023.2337      1676.7054     -741.22298    
 158312000   256.89193     -415.59066     -329.5542      -415.58562      0              6476.2593      30.944         21.33497       32.642387      21550.155      8378.6992      5257.7649      5792.3137      58.621844     -300.53737     -88.918434    
 158314000   254.38754     -416.04627     -330.84857     -416.04295      0              10066.537      30.944         21.33497       32.513653      21465.166      8148.201       11852.658      10198.751      2076.3539     -2017.674      -448.13733    
 158316000   252.83582     -413.63781     -328.9598      -413.63438      0              7416.9188      30.944         21.33497       32.463713      21432.197      8871.0314      6365.8417      7013.8834     -281.86971      468.04973     -689.69907    
 158318000   257.1056      -417.69392     -331.5859      -417.69311      0              7106.5587      30.944         21.33497       32.483271      21445.109      6666.8115      6145.3301      8507.5346      966.9751       320.96236      3540.9524    
 158320000   255.36991     -416.02132     -330.49461     -416.0219       0              5040.8968      30.944         21.33497       32.418286      21402.206      3774.5135      4829.6176      6518.5593      1421.862       1055.4873      848.40121    
 158322000   254.2591      -414.67832     -329.52363     -414.67159      0              6182.0001      30.944         21.33497       32.542966      21484.518      5541.5803      6142.634       6861.7859      964.88068      1325.2088      401.53402    
 158324000   254.3787      -414.38504     -329.19029     -414.37717      0              6742.4484      30.944         21.33497       32.685267      21578.464      7193.4894      6667.3256      6366.5301     -286.29028     -481.18638      630.26612    
 158326000   256.76799     -413.699       -327.70405     -413.69087      0              6007.8129      30.944         21.33497       32.703482      21590.489      5954.5087      4283.5194      7785.4106     -106.46071     -365.28799      866.25478    
 158328000   258.98234     -415.07825     -328.34169     -415.07384      0              5251.8616      30.944         21.33497       32.711232      21595.606      5626.4145      5199.9881      4929.1824      1556.2376      1272.939       2095.3293    
 158330000   253.56938     -414.98652     -330.06283     -414.97977      0              4249.7777      30.944         21.33497       32.688723      21580.745      3247.4064      3499.502       6002.4246      260.98293      2685.2681      2302.463     
 158332000   254.53819     -416.10945     -330.86129     -416.10471      0              5824.8454      30.944         21.33497       32.661528      21562.791      6938.7644      6108.7494      4427.0225      361.79262     -150.84225      449.52884    
 158334000   252.9385      -415.64553     -330.93313     -415.63925      0              7251.3387      30.944         21.33497       32.793886      21650.173      4538.2109      8019.5916      9196.2135      1816.8393     -1395.9299      633.01676    
 158336000   260.83912     -418.71252     -331.3541      -418.70668      0              4450.8719      30.944         21.33497       32.699955      21588.161      3352.9852      5730.5305      4269.1001     -146.57811     -18.45244      -1165.2429    
 158338000   252.44859     -415.64752     -331.09919     -415.64429      0              6253.4524      30.944         21.33497       32.641737      21549.726      4813.7784      7958.3618      5988.217       899.36383      2945.8398      298.79865    
 158340000   253.53716     -413.17023     -328.25733     -413.16399      0              5158.6367      30.944         21.33497       32.628212      21540.797      3683.9477      6139.9193      5652.0432      911.93552      2571.4907     -298.20675    
 158342000   264.50133     -416.10033     -327.51538     -416.09449      0              5040.8503      30.944         21.33497       32.480079      21443.001      7168.9908      5798.3605      2155.1997     -819.18219     -528.90092      798.45208    
 158344000   259.95662     -415.76999     -328.70713     -415.76497      0              6421.3623      30.944         21.33497       32.433809      21412.454      5480.7987      5299.832       8483.4561      23.977578     -655.77313      1328.4485    
 158346000   256.22314     -414.55902     -328.74656     -414.55221      0              4537.76        30.944         21.33497       32.516483      21467.034      3141.3304      6008.1985      4463.7512     -646.95092      663.61577      648.69674    
 158348000   249.77171     -413.29793     -329.64613     -413.29023      0              6238.6435      30.944         21.33497       32.484907      21446.189      4897.8437      7039.7436      6778.3432     -847.51519      208.74302     -261.82753    
 158350000   255.35889     -416.18447     -330.66144     -416.18634      0              7525.5778      30.944         21.33497       32.390188      21383.656      6180.1911      7787.6455      8608.8968      1144.2605     -205.66147      1400.9096    
 158352000   251.46556     -414.75777     -330.53868     -414.75756      0              6798.3385      30.944         21.33497       32.247138      21289.216      7133.2373      7532.7692      5729.009       603.87421      143.3886      -1395.5411    
 158354000   250.03918     -413.75137     -330.00999     -413.74738      0              5468.4878      30.944         21.33497       32.370909      21370.928      5355.6386      4468.5453      6581.2796     -967.81483      175.32597      1489.8019    
 158356000   254.18384     -413.14976     -328.02028     -413.14952      0              4916.1998      30.944         21.33497       32.350576      21357.505      5754.4462      4560.0374      4434.1157      702.94137     -1169.4707      1866.6797    
 158358000   251.62225     -417.34971     -333.07814     -417.34297      0              5686.1846      30.944         21.33497       32.334614      21346.967      6919.4315      4915.1979      5223.9244     -853.75261     -1580.4261      1807.5072    
 158360000   249.30868     -413.87793     -330.3812      -413.88038      0              4941.3846      30.944         21.33497       32.28251       21312.568      2776.8199      5322.9389      6724.3952     -226.54503     -485.73214      239.39344    
 158362000   256.36423     -413.05828     -327.19855     -413.05484      0              7194.0889      30.944         21.33497       32.275623      21308.022      8517.7098      5869.902       7194.6548     -100.61606      1045.9062      1046.9825    
 158364000   252.93267     -412.78887     -328.07842     -412.78249      0              6715.0319      30.944         21.33497       32.482833      21444.819      6468.0459      5887.2981      7789.7516      352.19505      608.1304       2261.2057    
 158366000   257.75061     -413.54222     -327.21818     -413.53638      0              7104.3728      30.944         21.33497       32.356361      21361.324      6986.6226      8577.3377      5749.1582     -296.84658     -570.55609     -1265.1239    
 158368000   250.80311     -410.27395     -326.27672     -410.26721      0              4678.0896      30.944         21.33497       32.458364      21428.665      4064.2959      5255.5628      4714.4102      1566.9501      1135.3415      19.207905    
 158370000   253.1869      -413.85564     -329.06004     -413.84886      0              4390.3537      30.944         21.33497       32.598154      21520.953      3307.0787      4717.5141      5146.4682     -256.73796      2183.4001      1642.3992    
 158372000   254.86189     -412.8808      -327.52424     -412.8726       0              4383.1174      30.944         21.33497       32.684269      21577.805      5701.8404      3784.4715      3663.0402     -80.985103      909.22043      65.699069    
 158374000   256.02054     -414.8411      -329.09648     -414.83528      0              5745.6793      30.944         21.33497       32.727292      21606.208      6068.2176      6045.7086      5123.1116     -309.22074      496.43681     -298.75198    
 158376000   248.64304     -414.67278     -331.39899     -414.66789      0              5999.6161      30.944         21.33497       32.657147      21559.9        5976.2771      5781.2989      6241.2723      886.65539      1765.7045      50.960302    
 158378000   245.57723     -414.9871      -332.74008     -414.98495      0              4089.2177      30.944         21.33497       32.641586      21549.626      4733.0887      4168.4358      3366.1286     -865.72117     -299.04075      29.633747    
 158380000   255.38651     -413.83811     -328.30583     -413.83198      0              7555.7376      30.944         21.33497       32.560517      21496.106      7319.811       7898.962       7448.44       -486.60102      399.66031      778.4526     
 158382000   260.25274     -417.53794     -330.3759      -417.53233      0              5681.0757      30.944         21.33497       32.577749      21507.481      6475.8359      6933.5086      3633.8826     -2033.0579     -481.43818      368.30835    
 158384000   254.5987      -415.23894     -329.97052     -415.23221      0              7068.3789      30.944         21.33497       32.64464       21551.643      7596.8814      8296.5055      5311.7499      1108.282       393.2558       184.84516    
 158386000   257.69433     -414.4377      -328.13251     -414.43436      0              5814.525       30.944         21.33497       32.672136      21569.795      5216.7275      6490.9522      5735.8954     -536.77292      409.23134     -283.12487    
 158388000   259.46548     -414.18412     -327.28575     -414.1813       0              6988.8508      30.944         21.33497       32.679436      21574.614      7544.2781      7568.3573      5853.917       715.6627       1881.9383      74.733045    
 158390000   260.35169     -416.79509     -329.59991     -416.79486      0              3772.2288      30.944         21.33497       32.707731      21593.295      3253.1125      3214.7878      4848.786       133.38868     -588.51052      265.25031    
 158392000   261.20981     -413.32564     -325.84307     -413.32361      0              7235.4953      30.944         21.33497       32.674853      21571.588      5520.0493      9259.6025      6926.8341      2052.3319      160.78923      1072.1115    
 158394000   253.57055     -413.49261     -328.56853     -413.48641      0              6025.7293      30.944         21.33497       32.63698       21546.585      6274.2034      5728.9731      6074.0115     -1868.3374      528.66379     -41.577737    
 158396000   252.2406      -414.41193     -329.93326     -414.42027      0              5924.1949      30.944         21.33497       32.728102      21606.743      7205.8099      5934.443       4632.3317     -1716.5757     -2315.8597     -750.17345    
 158398000   257.55631     -413.33902     -327.08005     -413.33808      0              5720.1296      30.944         21.33497       32.810326      21661.027      5253.7888      6579.1227      5327.4774      35.593514      479.27301     -147.49498    
 158400000   255.22114     -414.44879     -328.97191     -414.44932      0              4731.6341      30.944         21.33497       32.752521      21622.865      6008.7603      3854.4067      4331.7354      2128.0696     -864.66277      169.54369    
 158402000   257.4641      -415.73751     -329.50943     -415.74909      0              6243.9213      30.944         21.33497       32.566583      21500.11       4734.4875      7721.4918      6275.7847      658.49968     -452.76703      235.03027    
 158404000   261.21916     -416.28164     -328.79593     -416.27751      0              3729.43        30.944         21.33497       32.887107      21711.717      4505.8281      3839.3102      2843.1516     -417.1357      -959.36419      113.84639    
 158406000   253.8041      -415.84749     -330.84519     -415.84646      0              5506.4827      30.944         21.33497       32.588134      21514.338      5535.8645      5059.7564      5923.8272     -122.9912      -836.03019      142.53842    
 158408000   248.98763     -415.99028     -332.60107     -415.99008      0              6278.9448      30.944         21.33497       32.544255      21485.369      6546.9791      5637.8155      6652.0398     -276.34852     -378.48093     -1556.6308    
 158410000   253.92583     -414.94454     -329.90147     -414.95265      0              5700.0148      30.944         21.33497       32.575273      21505.847      5161.6409      7784.3939      4154.0095     -492.97608     -713.67432     -888.34995    
 158412000   257.71813     -415.58131     -329.26814     -415.58891      0              5857.2719      30.944         21.33497       32.532518      21477.621      5902.4433      5341.348       6328.0245      815.41967     -2108.8804      1554.2006    
 158414000   252.35765     -415.84835     -331.33048     -415.87642      0              7213.2481      30.944         21.33497       32.540729      21483.041      8370.0305      6381.7921      6887.9217     -936.81121     -899.63666      1028.9041    
 158416000   253.40167     -413.57366     -328.70614     -413.58187      0              5620.7364      30.944         21.33497       32.404642      21393.198      5214.3832      6491.0576      5156.7686      1689.6556      383.4507      -185.49425    
 158418000   251.14322     -416.23753     -332.12639     -416.25664      0              7487.0775      30.944         21.33497       32.53861       21481.643      8015.7521      7529.8705      6915.6098      1154.6595     -1182.4195      911.12424    
 158420000   251.37071     -413.71168     -329.52436     -413.7108       0              7265.387       30.944         21.33497       32.526892      21473.907      7756.9267      6398.4587      7640.7755     -99.467599      794.42709      798.30274    
 158422000   252.88224     -416.947       -332.25344     -416.94714      0              5624.8676      30.944         21.33497       32.503523      21458.479      7298.9464      5088.6754      4486.981       392.5408      -569.74895     -2137.8547    
 158424000   245.67685     -416.74713     -334.46675     -416.76524      0              6356.7629      30.944         21.33497       32.629884      21541.901      5966.7576      6933.8292      6169.7018     -1885.936      -353.46442     -97.139157    
 158426000   253.84598     -414.70042     -329.68409     -414.6991       0              5368.6868      30.944         21.33497       32.838579      21679.679      6632.2302      4002.6289      5471.2011     -231.99489      87.364603      546.19762    
 158428000   250.43069     -415.79676     -331.92425     -415.80116      0              5822.1686      30.944         21.33497       32.710709      21595.26       6441.9871      4745.2665      6279.2524      1408.6865     -547.6094       1267.1058    
 158430000   260.454       -415.02775     -327.79831     -415.03288      0              6811.6657      30.944         21.33497       32.61267       21530.536      8137.0375      4953.5446      7344.4151     -477.69577      402.01942     -1128.5548    
 158432000   255.88631     -416.50108     -330.80142     -416.50949      0              7591.872       30.944         21.33497       32.634989      21545.271      7173.5714      7954.3338      7647.7108     -696.6317      -766.52975     -11.28801     
 158434000   251.38876     -416.58406     -332.39069     -416.58767      0              5073.2155      30.944         21.33497       32.750524      21621.546      3925.6575      5493.9996      5799.9892      2742.9664     -1298.6068     -2745.01      
 158436000   255.7033      -414.99879     -329.36042     -415.01329      0              5827.3093      30.944         21.33497       32.63814       21547.351      6834.964       5267.5877      5379.3763     -139.98269     -1097.1961      323.08628    
 158438000   251.97374     -416.00431     -331.61502     -416.00821      0              7375.3733      30.944         21.33497       32.50208       21457.526      7096.9529      5181.1744      9847.9925      188.5777       1776.1749      290.86935    
 158440000   256.24965     -415.57764     -329.75629     -415.57727      0              4634.8718      30.944         21.33497       32.477133      21441.056      5504.779       3719.4646      4680.3719     -673.14439      815.97311      395.2123     
 158442000   258.27931     -417.70892     -331.20781     -417.72354      0              7358.5504      30.944         21.33497       32.422258      21404.828      8843.3414      6258.6652      6973.6448      1167.6893     -56.232376      1052.8581    
 158444000   257.04857     -414.88864     -328.79972     -414.89871      0              6621.895       30.944         21.33497       32.535054      21479.295      5840.1733      7053.8063      6971.7054      1009.7457     -106.57904      1311.3394    
 158446000   251.35635     -415.08833     -330.90581     -415.08912      0              4217.029       30.944         21.33497       32.584495      21511.935      3123.8088      4110.6725      5416.6059      782.85408      793.30167     -616.99223    
 158448000   257.70657     -416.10392     -329.79463     -416.11376      0              6069.8931      30.944         21.33497       32.428567      21408.993      6577.7692      6368.0905      5263.8198     -651.5359       904.28469     -559.64378    
 158450000   251.73418     -416.63359     -332.32454     -416.63544      0              4348.6398      30.944         21.33497       32.701613      21589.255      3774.2483      4565.7786      4705.8926      566.39763     -252.08199     -325.0347     
 158452000   255.17581     -412.457       -326.99529     -412.45335      0              4616.8449      30.944         21.33497       32.680216      21575.13       4633.7881      3343.753       5872.9937      474.02826     -663.12272      58.533153    
 158454000   251.39729     -416.24299     -332.04676     -416.24856      0              6617.5765      30.944         21.33497       32.661867      21563.016      6767.0491      6172.289       6913.3915      174.71338      594.43033      462.25415    
 158456000   258.15687     -415.90822     -329.44811     -415.91844      0              7544.0938      30.944         21.33497       32.626388      21539.592      7079.2279      7864.8468      7688.2068     -431.79417      492.86942     -376.03659    
 158458000   262.97587     -415.65575     -327.5817      -415.65926      0              6175.4428      30.944         21.33497       32.463152      21431.826      6156.5606      5714.4394      6655.3283      517.74669      481.0755      -545.1228     
 158460000   250.37856     -415.57581     -331.72076     -415.58226      0              7557.0811      30.944         21.33497       32.53383       21478.487      7086.5122      6061.3533      9523.3779      219.44411      375.44507      50.779269    
 158462000   253.78233     -419.581       -334.58599     -419.58414      0              3361.2392      30.944         21.33497       32.58026       21509.139      2058.3355      2088.8493      5936.5328     -2102.3168      519.2513       1779.444     
 158464000   257.06072     -415.85003     -329.75704     -415.84905      0              5471.9712      30.944         21.33497       32.684994      21578.284      6125.0546      4002.164       6288.6951      875.41279      464.4843       71.62181     
 158466000   251.37823     -416.48626     -332.29642     -416.48704      0              7071.4213      30.944         21.33497       32.737439      21612.907      5594.2748      7916.8098      7703.1791     -293.24725      693.15907     -1242.3855    
 158468000   252.73071     -418.23822     -333.59541     -418.25146      0              5043.2397      30.944         21.33497       32.708054      21593.507      5586.057       5386.6507      4157.0116      463.20187     -1010.7903     -1104.8701    
 158470000   252.77775     -416.8501      -332.19153     -416.84959      0              5268.9403      30.944         21.33497       32.789429      21647.231      5664.7291      5692.1024      4449.9895     -122.34736      1508.8626     -630.20538    
 158472000   260.50361     -417.82853     -330.58248     -417.83313      0              5663.7242      30.944         21.33497       32.681424      21575.927      4125.7033      6797.8885      6067.5807      656.6622       208.03931      1678.8534    
 158474000   253.84896     -411.94411     -326.92678     -411.94828      0              5376.415       30.944         21.33497       32.605865      21526.044      5810.8733      5287.5026      5030.8692     -253.80358      2249.4706      20.034375    
 158476000   258.60386     -413.32883     -326.71903     -413.32459      0              4692.3102      30.944         21.33497       32.704201      21590.964      2737.5811      6401.0082      4938.3413      1387.4595      22.564086      359.2746     
 158478000   258.88304     -415.47744     -328.77414     -415.47681      0              5675.3252      30.944         21.33497       32.687564      21579.981      4839.196       5405.3883      6781.3913     -914.48263      1618.4627     -404.432      
 158480000   253.68732     -414.73839     -329.7752      -414.73291      0              4171.8338      30.944         21.33497       32.611338      21529.657      5927.0886      2845.7762      3742.6365     -217.1194       968.20618      41.043559    
 158482000   261.06686     -413.72055     -326.28586     -413.72088      0              6627.6201      30.944         21.33497       32.465288      21433.236      7346.6813      5360.1204      7176.0585     -100.6116       311.10559     -557.17708    
 158484000   259.48562     -414.86793     -327.96281     -414.86545      0              7311.1858      30.944         21.33497       32.548362      21488.081      7325.2676      7845.8338      6762.4559     -1090.7318      719.27585     -1461.9571    
 158486000   264.12005     -416.01279     -327.55555     -416.01397      0              6922.8628      30.944         21.33497       32.569349      21501.936      6012.8921      8251.7406      6503.9556     -770.31064      858.3376      -668.88452    
 158488000   254.11953     -419.31069     -334.20275     -419.31002      0              8337.3133      30.944         21.33497       32.526287      21473.507      6941.4579      8946.5161      9123.9659      1128.0804     -978.38319     -100.41366    
 158490000   250.44413     -418.08968     -334.21268     -418.08988      0              6857.7784      30.944         21.33497       32.483343      21445.156      7375.9068      6067.2775      7130.1508     -439.84345     -26.295918      655.2355     
 158492000   254.06884     -413.25362     -328.16265     -413.247        0              7774.9704      30.944         21.33497       32.611136      21529.523      10396.868      6504.077       6423.9665     -799.87945     -173.46961      609.89397    
 158494000   255.88055     -414.81302     -329.11529     -414.81092      0              5587.5332      30.944         21.33497       32.594447      21518.506      5311.4114      5332.9955      6118.1927     -542.26279      566.31634      273.8218     
 158496000   256.53389     -416.57563     -330.65908     -416.57386      0              5230.0322      30.944         21.33497       32.537914      21481.183      5472.4185      3168.0159      7049.6622      911.8672       927.44531      773.00739    
 158498000   258.59631     -416.38076     -329.77349     -416.38052      0              5272.1008      30.944         21.33497       32.530811      21476.494      5609.0241      5787.4733      4419.805       65.573542      2786.5794      886.48926    
 158500000   250.50987     -416.78276     -332.88374     -416.78786      0              5958.0875      30.944         21.33497       32.546463      21486.827      5003.7188      5875.4121      6995.1315     -1388.0459      2115.1353      382.10744    
 158502000   259.37133     -416.44559     -329.57875     -416.44451      0              6221.4027      30.944         21.33497       32.708421      21593.75       6660.2169      4672.3412      7331.6501     -900.41222      1023.4881     -789.58081    
 158504000   254.39443     -416.53352     -331.33351     -416.53735      0              5829.065       30.944         21.33497       32.646589      21552.929      4235.0892      5510.7869      7741.3188      339.97565      170.79325      1168.981     
 158506000   252.70579     -416.12758     -331.49312     -416.126        0              6442.1858      30.944         21.33497       32.817335      21665.654      6347.0889      6605.8973      6373.5713     -263.29308     -1272.2121      965.42851    
 158508000   260.90087     -418.20993     -330.83082     -418.20753      0              6286.4945      30.944         21.33497       32.757152      21625.922      5285.8975      5665.6519      7907.9342      980.35503     -1038.8399      681.4665     
 158510000   252.43857     -415.96803     -331.42306     -415.96528      0              5350.7104      30.944         21.33497       32.741761      21615.761      6445.2476      4377.7738      5229.1099     -148.19606     -1093.8735      370.04033    
 158512000   257.54911     -416.35272     -330.09616     -416.35058      0              5947.8898      30.944         21.33497       32.69295       21583.536      7162.4225      4587.2352      6094.0116     -501.13201     -298.40859      251.12733    
 158514000   255.1228      -415.86717     -330.42322     -415.86896      0              6131.446       30.944         21.33497       32.546231      21486.674      6646.1729      6207.791       5540.374       1200.9198      659.4492      -73.922886    
 158516000   262.80076     -415.1357      -327.1203      -415.1355       0              6279.1863      30.944         21.33497       32.448089      21421.881      4749.2256      9544.1033      4544.2301      852.71438      1412.2457      367.4313     
 158518000   251.14118     -412.87113     -328.76068     -412.87345      0              5667.2201      30.944         21.33497       32.468163      21435.134      6078.2967      6439.9926      4483.371      -255.99852      1126.6091     -148.68015    
 158520000   257.08654     -417.70989     -331.60826     -417.71682      0              6481.9295      30.944         21.33497       32.538541      21481.597      6432.6584      4915.3092      8097.821       188.2483      -586.6894      -320.75763    
 158522000   254.61738     -415.73061     -330.45593     -415.74651      0              5774.1105      30.944         21.33497       32.517434      21467.662      5351.6264      5102.0413      6868.6636      1455.7839      76.049675      871.60344    
 158524000   256.7403      -416.79464     -330.80897     -416.79657      0              5499.3889      30.944         21.33497       32.474868      21439.561      4169.6439      6456.9024      5871.6203     -546.37234      774.57879     -336.09625    
 158526000   255.25022     -416.79654     -331.30991     -416.80991      0              5937.555       30.944         21.33497       32.566049      21499.757      5160.6519      6514.583       6137.4302      675.82003     -729.08254      271.68266    
 158528000   250.25734     -415.32877     -331.51432     -415.33629      0              5257.0765      30.944         21.33497       32.596977      21520.176      5437.433       5025.7133      5308.0832      843.30795     -224.63243      1561.9253    
 158530000   257.82903     -417.52145     -331.17115     -417.51981      0              6910.4277      30.944         21.33497       32.488953      21448.86       7064.4121      6531.3834      7135.4875     -584.80756     -311.86777      2236.023     
 158532000   256.37736     -414.79446     -328.93034     -414.79036      0              4878.0626      30.944         21.33497       32.654637      21558.242      6823.6414      2873.1918      4937.3546     -1445.3499     -135.54819     -637.10162    
 158534000   261.26448     -415.44476     -327.94388     -415.44502      0              6705.0418      30.944         21.33497       32.61297       21530.734      5278.1063      6964.6897      7872.3294      11.092077     -70.471151     -831.95215    
 158536000   250.91299     -413.28238     -329.24835     -413.28178      0              5876.3054      30.944         21.33497       32.621099      21536.101      5819.0985      5593.5432      6216.2746     -690.21242      173.54143      129.1933     
 158538000   255.92724     -414.88277     -329.1694      -414.87813      0              5097.2995      30.944         21.33497       32.736829      21612.504      4839.4677      6435.0605      4017.3704     -1847.7892      1195.7994     -1535.5363    
 158540000   248.52695     -416.10079     -332.86588     -416.09681      0              6545.9304      30.944         21.33497       32.654922      21558.431      8105.1609      6930.6903      4601.9399     -1430.9275      188.94378      900.3093     
 158542000   257.28751     -413.43206     -327.26312     -413.44213      0              7461.148       30.944         21.33497       32.52602       21473.331      7998.6762      4441.6904      9943.0774      784.26522      1229.4382      1500.5472    
 158544000   248.73643     -413.78957     -330.4845      -413.81195      0              7173.4915      30.944         21.33497       32.344934      21353.78       7350.2278      6740.7545      7429.4922     -106.83384      638.59959     -1397.0753    
 158546000   251.49309     -417.99223     -333.76392     -417.99722      0              5465.1074      30.944         21.33497       32.515452      21466.354      5513.7407      4529.5924      6351.9891     -633.69425      1840.4656     -570.23996    
 158548000   248.54817     -416.50665     -333.26463     -416.50845      0              7359.3286      30.944         21.33497       32.530854      21476.522      7275.4688      6901.5905      7900.9266      1399.6386      1584.658       1221.4738    
 158550000   250.00342     -417.65209     -333.92269     -417.65829      0              6721.1829      30.944         21.33497       32.551208      21489.959      7438.2771      7696.3827      5028.889      -1182.5037     -249.33971     -2170.2178    
 158552000   250.03464     -415.2009      -331.46104     -415.2069       0              8452.4313      30.944         21.33497       32.567935      21501.003      9138.0403      8777.1417      7442.112       1050.9507     -778.32769     -1133.1678    
 158554000   252.11249     -414.09917     -329.66342     -414.12427      0              5300.362       30.944         21.33497       32.489684      21449.342      6714.4071      3870.0061      5316.6727     -1195.423       1090.4581     -803.2708     
 158556000   257.81        -416.05282     -329.70889     -416.07094      0              6439.0857      30.944         21.33497       32.454954      21426.414      6079.2694      7891.4763      5346.5114     -1464.8913     -1209.6839     -819.89822    
 158558000   253.94831     -415.69858     -330.64798     -415.70659      0              6670.5328      30.944         21.33497       32.452386      21424.719      7189.7208      6804.2232      6017.6543      1148.6804      1609.3277     -245.47855    
 158560000   256.09771     -417.38445     -331.61399     -417.39612      0              6115.6293      30.944         21.33497       32.549848      21489.062      4024.3134      6806.9145      7515.6599      58.813504     -2054.117      -1447.6789    
 158562000   249.61821     -413.86879     -330.2684      -413.87936      0              6230.1769      30.944         21.33497       32.412061      21398.097      6575.7548      5537.7602      6577.0156     -177.44222     -998.74309     -1291.2936    
 158564000   254.77276     -417.22211     -331.89539     -417.22858      0              7616.2835      30.944         21.33497       32.489447      21449.185      7029.5596      6385.688       9433.603       343.07057      484.28526      1506.7711    
 158566000   258.09897     -415.49211     -329.0514      -415.4943       0              5428.5547      30.944         21.33497       32.759583      21627.527      6344.6364      6799.74        3141.2876      174.50929      1111.6159     -765.55367    
 158568000   261.44586     -415.74469     -328.18306     -415.78131      0              6327.3791      30.944         21.33497       32.551043      21489.851      6470.0112      7570.7347      4941.3913     -1659.2957      1061.7397     -2297.9264    
 158570000   254.08434     -414.35516     -329.259       -414.36381      0              6506.8678      30.944         21.33497       32.512298      21464.272      7624.0531      5691.5814      6204.9691      1399.8242     -547.16016      168.41647    
 158572000   261.80034     -415.35911     -327.67876     -415.37551      0              5908.4406      30.944         21.33497       32.36271       21365.516      4473.8845      6432.5065      6818.9307     -265.8264       826.60206      220.62304    
 158574000   253.90371     -413.8826      -328.84694     -413.89763      0              6028.7069      30.944         21.33497       32.377424      21375.229      4479.989       6978.8947      6627.2369      1022.8254     -0.39706956    -244.16269    
 158576000   257.54164     -415.85791     -329.60385     -415.89612      0              7557.5446      30.944         21.33497       32.456224      21427.252      7265.0947      8274.586       7132.953      -1982.0577     -110.33136     -672.91838    
 158578000   257.10757     -413.52738     -327.4187      -413.54767      0              4746.67        30.944         21.33497       32.509552      21462.458      3711.1252      5061.5686      5467.3161     -965.28625     -229.67952      418.30955    
 158580000   254.82427     -415.23873     -329.89476     -415.24706      0              6743.348       30.944         21.33497       32.431141      21410.693      4518.9539      7676.1296      8034.9604      420.63661     -1583.7314     -492.17513    
 158582000   250.76169     -418.76818     -334.78482     -418.78463      0              5727.892       30.944         21.33497       32.495843      21453.408      6606.5005      7061.4304      3515.7451     -865.26003     -1425.2394     -186.5344     
 158584000   259.44406     -416.11011     -329.21891     -416.1072       0              7028.7565      30.944         21.33497       32.787128      21645.712      7986.4779      6940.254       6159.5377      1052.7965     -865.95252      379.54798    
 158586000   255.05105     -417.02111     -331.60119     -417.03061      0              6193.3558      30.944         21.33497       32.527009      21473.984      6338.7326      6067.8369      6173.4979     -262.64809     -2038.9631     -233.42732    
 158588000   253.74764     -415.2898      -330.30641     -415.29775      0              6305.1564      30.944         21.33497       32.333135      21345.99       5044.1382      7931.0089      5940.3222     -1349.1875      456.16371     -3284.7569    
 158590000   249.95764     -417.38568     -333.67161     -417.39323      0              8570.4212      30.944         21.33497       32.310313      21330.923      7546.029       9410.3461      8754.8884      491.31334     -1791.4356      470.74902    
 158592000   249.15451     -420.32904     -336.88395     -420.3309       0              7125.7558      30.944         21.33497       32.473179      21438.446      7783.6585      7244.1898      6349.419       559.44883     -551.25052      681.78017    
 158594000   255.29172     -418.59058     -333.09006     -418.58808      0              5590.4434      30.944         21.33497       32.650086      21555.238      6065.2723      5053.5772      5652.4808      994.74281      1208.3235     -1997.0132    
 158596000   251.70646     -417.74791     -333.44813     -417.74435      0              5459.8091      30.944         21.33497       32.60378       21524.667      7312.5416      4478.0575      4588.8282     -1088.6577     -1691.9888      768.25799    
 158598000   256.30525     -419.16735     -333.32738     -419.17157      0              7485.6197      30.944         21.33497       32.465858      21433.613      7285.0019      8930.2232      6241.6341     -556.25629      802.43464     -797.06971    
 158600000   260.77038     -418.60372     -331.26832     -418.6035       0              5169.304       30.944         21.33497       32.656482      21559.46       5157.836       7979.0401      2371.0359     -518.55533      225.28309      1203.0736    
 158602000   250.70975     -418.56486     -334.5989      -418.56972      0              6200.9846      30.944         21.33497       32.580521      21509.312      5500.3197      6511.3939      6591.2403     -140.73609     -330.31301      1343.2765    
 158604000   250.53213     -415.18046     -331.27398     -415.18463      0              5961.6951      30.944         21.33497       32.62718       21540.115      6116.3473      4395.5267      7373.2113     -41.812822     -449.25001     -366.01223    
 158606000   253.1162      -418.0649      -333.29299     -418.06552      0              5859.517       30.944         21.33497       32.681495      21575.974      5740.0239      6808.7601      5029.767       2038.6417      1196.8191     -1610.1863    
 158608000   258.66009     -416.96843     -330.33979     -416.97092      0              6760.4367      30.944         21.33497       32.682631      21576.724      5731.0933      8020.2127      6530.004       1538.7148      706.29581      421.88286    
 158610000   254.25418     -414.54093     -329.38789     -414.54064      0              5717.6928      30.944         21.33497       32.531805      21477.15       5280.8234      6983.0262      4889.2287      1745.0467      387.83099     -366.79461    
 158612000   253.31323     -415.14401     -330.3061      -415.14038      0              6425.4798      30.944         21.33497       32.632273      21543.478      6228.8033      5421.5249      7626.111      -651.19391      143.87694     -362.23192    
 158614000   253.27032     -415.71656     -330.89303     -415.71315      0              5368.6999      30.944         21.33497       32.709647      21594.56       4572.2111      5834.6479      5699.2407     -508.09667      184.56324      1029.208     
 158616000   255.03186     -417.96226     -332.54876     -417.97244      0              6171.4826      30.944         21.33497       32.634047      21544.649      6719.7081      4459.8367      7334.9029     -1005.6764      431.11493      1026.8144    
 158618000   252.09306     -414.95744     -330.52819     -414.95239      0              6774.3135      30.944         21.33497       32.677855      21573.57       8525.2103      6590.0212      5207.7089     -897.35607      287.44038      788.05743    
 158620000   257.55715     -416.60163     -330.34239     -416.59803      0              5221.5063      30.944         21.33497       32.596079      21519.583      4348.778       7242.3396      4073.4013      1611.1366      731.33467      1732.085     
 158622000   254.30935     -415.11535     -329.94383     -415.1086       0              7080.468       30.944         21.33497       32.445335      21420.063      7584.4521      8464.9132      5192.0388      1798.5455      747.13841     -974.58344    
 158624000   259.3958      -414.66141     -327.78637     -414.66744      0              6773.2093      30.944         21.33497       32.580824      21509.512      5710.7274      9228.7936      5380.1069      660.97101     -938.08259     -1334.5301    
 158626000   250.21371     -416.04232     -332.24249     -416.04883      0              6602.8577      30.944         21.33497       32.645466      21552.188      7906.2042      5954.128       5948.241      -162.18632     -55.526432      143.94807    
 158628000   257.51272     -416.24769     -330.00332     -416.2476       0              6761.2003      30.944         21.33497       32.469923      21436.296      5551.0831      7233.9888      7498.5288      531.86993     -280.25823      564.73072    
 158630000   255.26956     -416.06642     -330.57332     -416.07089      0              8961.9794      30.944         21.33497       32.454772      21426.294      9318.6516      8257.0629      9310.2236      1066.89       -287.14882     -1314.6457    
 158632000   248.43983     -414.35786     -331.15212     -414.36446      0              6887.9693      30.944         21.33497       32.39312       21385.591      7370.5706      7383.7873      5909.5499      597.19485     -1198.1872     -942.34252    
 158634000   257.26187     -414.97306     -328.8127      -414.97614      0              4614.1894      30.944         21.33497       32.56012       21495.843      4030.9754      4775.8033      5035.7895      1383.2835     -1601.2259     -232.68156    
 158636000   255.61031     -415.99888     -330.39166     -416.0003       0              7083.0983      30.944         21.33497       32.562264      21497.258      9492.64        5310.8718      6445.7832     -651.85268     -964.71686      1030.2376    
 158638000   253.12088     -417.0564      -332.28292     -417.0627       0              6141.2401      30.944         21.33497       32.417471      21401.668      5981.8383      5000.8247      7441.0572     -1273.4405     -1108.1634      1483.3795    
 158640000   251.32716     -417.53147     -333.35872     -417.54327      0              6798.6075      30.944         21.33497       32.397531      21388.504      6103.9116      5803.6633      8488.2475     -209.19292     -63.21799      -105.90895    
 158642000   250.55525     -416.58493     -332.67071     -416.59232      0              7047.5066      30.944         21.33497       32.430975      21410.583      6210.4673      8857.3504      6074.7022      311.30791      901.59449     -1522.9523    
 158644000   251.65156     -416.11541     -331.83402     -416.11409      0              7461.7355      30.944         21.33497       32.623768      21537.863      7080.6529      6850.1223      8454.4315      681.4933      -1941.8633     -380.98402    
 158646000   255.06876     -417.54858     -332.12273     -417.55718      0              6062.2562      30.944         21.33497       32.452272      21424.643      6501.2195      6674.3305      5011.2186     -321.11955      839.90279     -730.48235    
 158648000   252.33467     -414.67595     -330.16578     -414.67532      0              5982.3951      30.944         21.33497       32.575465      21505.974      3839.3254      7589.4695      6518.3903     -424.56842     -952.51446     -955.79402    
 158650000   248.32431     -415.17515     -332.0081      -415.17488      0              6676.3641      30.944         21.33497       32.537712      21481.05       5502.4293      6978.7377      7547.9254      349.76728      1453.8122     -644.81265    
 158652000   256.47878     -416.65725     -330.75916     -416.65556      0              7389.6919      30.944         21.33497       32.462353      21431.298      9305.46        6176.1943      6687.4213      975.69657      202.51369      149.94191    
 158654000   256.09894     -415.88861     -330.11774     -415.89163      0              7690.303       30.944         21.33497       32.462016      21431.076      6994.9472      8818.0571      7257.9046      99.867718     -532.55459      735.4032     
 158656000   260.33591     -415.11642     -327.92653     -415.11236      0              4676.9074      30.944         21.33497       32.611868      21530.007      5734.9043      4560.1955      3735.6224      1494.7721      10.572926      1891.5158    
 158658000   263.93152     -418.16799     -329.77388     -418.1641       0              7394.9624      30.944         21.33497       32.427985      21408.609      6282.3335      9268.1906      6634.3631      1051.032       717.70341      0.83045956   
 158660000   249.02554     -416.23851     -332.83661     -416.24125      0              7699.7056      30.944         21.33497       32.477113      21441.043      6690.3992      6473.6892      9935.0283      1408.5822     -383.03414      1635.6411    
 158662000   259.45028     -415.51661     -328.62333     -415.5178       0              7583.3832      30.944         21.33497       32.426005      21407.302      7777.8462      8557.7192      6414.5843     -785.58935      407.66082     -640.48349    
 158664000   260.04338     -416.71675     -329.62483     -416.71879      0              4587.1637      30.944         21.33497       32.620832      21535.925      4019.114       3756.4282      5985.949      -663.55071     -319.43356      715.27116    
 158666000   256.44499     -416.55691     -330.67014     -416.5525       0              6405.7441      30.944         21.33497       32.725298      21604.892      6374.6932      7373.5317      5469.0073     -978.26001      222.39303      1036.2206    
 158668000   248.71492     -415.26798     -331.97011     -415.2648       0              4949.7097      30.944         21.33497       32.622258      21536.866      3668.2863      5647.2458      5533.597      -163.68068     -473.54833      969.17375    
 158670000   255.78828     -416.3928      -330.72597     -416.38599      0              6815.2888      30.944         21.33497       32.574128      21505.091      7488.1797      8252.376       4705.3109      763.77282      404.78423      472.66726    
 158672000   254.42052     -416.33823     -331.12948     -416.33244      0              7604.9364      30.944         21.33497       32.534132      21478.686      8070.8024      7181.0445      7562.9623     -397.69343      398.62961      1740.6524    
 158674000   257.43809     -414.74001     -328.52064     -414.73325      0              3422.3408      30.944         21.33497       32.478729      21442.11       3932.8325      2499.9246      3834.2654      285.28977     -930.15649      792.63269    
 158676000   252.1612      -416.06192     -331.60985     -416.05973      0              6059.9457      30.944         21.33497       32.592519      21517.233      7171.7915      5280.8154      5727.2302     -1108.7396      1619.7006     -152.24346    
 158678000   260.75735     -415.77368     -328.44265     -415.77131      0              5835.0454      30.944         21.33497       32.549447      21488.797      2769.2121      8079.1311      6656.7931     -1061.6103      1460.0831      789.59354    
 158680000   254.50653     -413.89442     -328.65687     -413.89146      0              5689.4733      30.944         21.33497       32.61588       21532.655      4566.0714      7211.6729      5290.6755      2487.3204      631.44926      996.45093    
 158682000   258.41543     -415.44087     -328.89417     -415.44117      0              5893.831       30.944         21.33497       32.623033      21537.378      5905.4569      5490.8763      6285.1599      116.33414     -388.43207      1116.6137    
 158684000   249.46838     -416.65965     -333.10944     -416.66789      0              7111.9899      30.944         21.33497       32.558701      21494.906      7588.3013      7248.5635      6499.1048     -138.62082      389.70549     -756.13874    
 158686000   251.76669     -414.39172     -330.07178     -414.38907      0              7135.2339      30.944         21.33497       32.549474      21488.815      7348.0371      8433.2285      5624.4361     -237.90409     -425.22849      314.3914     
 158688000   248.07309     -416.5832      -333.50029     -416.58403      0              4088.7836      30.944         21.33497       32.655474      21558.795      4991.0467      5926.3183      1348.9857      104.09032     -239.80558      814.71003    
 158690000   255.46679     -414.01873     -328.45958     -414.01662      0              7737.5721      30.944         21.33497       32.5531        21491.209      7692.6704      9398.3052      6121.7405      1734.7784     -331.16639      408.10324    
 158692000   259.8001      -414.41188     -327.40144     -414.40893      0              4664.0498      30.944         21.33497       32.582126      21510.371      6090.935       5182.8164      2718.398       516.11613     -877.39161     -1046.8889    
 158694000   251.51515     -414.33819     -330.10249     -414.34251      0              6618.4956      30.944         21.33497       32.45469       21426.239      8144.2077      7104.4042      4606.8749     -716.70197     -245.51115     -43.74043     
 158696000   255.58212     -414.04438     -328.44659     -414.0456       0              7287.3938      30.944         21.33497       32.52565       21473.087      7470.0722      6208.6033      8183.5059     -294.76749      1.8717539     -269.61302    
 158698000   251.22448     -414.21227     -330.07392     -414.21504      0              6444.7555      30.944         21.33497       32.607601      21527.19       6042.1068      6204.3696      7087.7901     -566.63813      1515.3525      671.52619    
 158700000   246.19881     -414.77289     -332.3177      -414.79427      0              5476.1667      30.944         21.33497       32.463687      21432.179      6593.3584      5197.2304      4637.9112      2093.9147     -1048.8279     -223.34709    
 158702000   255.79258     -414.57169     -328.90341     -414.58196      0              7985.1388      30.944         21.33497       32.348563      21356.176      7148.7097      8242.0218      8564.685       662.93049      1168.9905     -181.43473    
 158704000   261.80748     -418.3635      -330.68076     -418.37582      0              6806.9975      30.944         21.33497       32.526036      21473.342      8048.7736      5559.2872      6812.9318     -900.3032       1139.305       654.86293    
 158706000   253.6396      -419.0363      -334.08909     -419.04663      0              6622.6338      30.944         21.33497       32.517945      21468          6615.9669      6227.1449      7024.7896      1086.373       975.67954      2054.6404    
 158708000   254.32963     -415.74763     -330.56932     -415.75267      0              6957.602       30.944         21.33497       32.473669      21438.769      6514.0064      6303.2607      8055.5389     -29.029504      257.43717      945.17984    
 158710000   262.75042     -415.37633     -327.37779     -415.38446      0              4236.7897      30.944         21.33497       32.546686      21486.974      4899.7236      3157.2882      4653.3574      67.659587     -268.04111      229.1093     
 158712000   252.63087     -415.34735     -330.73798     -415.35193      0              5379.7807      30.944         21.33497       32.568438      21501.334      6072.1269      5211.4269      4855.7884     -289.92301      81.617679     -1927.5382    
 158714000   255.64621     -414.1204      -328.50115     -414.1176       0              5454.4242      30.944         21.33497       32.645516      21552.221      3701.6373      6609.8859      6051.7494      927.06216      809.74694     -1631.6129    
 158716000   258.75663     -413.86684     -327.20587     -413.86932      0              6381.7124      30.944         21.33497       32.767762      21632.927      6482.9648      6843.8794      5818.2931     -1656.0072      1633.6108      361.54104    
 158718000   256.20196     -416.56788     -330.76251     -416.56981      0              5494.4242      30.944         21.33497       32.570212      21502.506      4934.4729      6235.0878      5313.7118      61.273682     -221.99902     -473.16095    
 158720000   247.55648     -414.70752     -331.79763     -414.71581      0              4721.5779      30.944         21.33497       32.414595      21399.769      4535.1036      3823.9936      5805.6364     -305.68738      508.19673      920.5756     
 158722000   262.56723     -415.87012     -327.93293     -415.88197      0              8479.5678      30.944         21.33497       32.507815      21461.312      8140.4599      9139.713       8158.5305      240.85718      3.3496443      569.7427     
 158724000   256.71101     -416.52667     -330.55081     -416.54083      0              4734.4571      30.944         21.33497       32.488188      21448.355      3301.696       6586.9984      4314.6769     -149.23554      1429.7095      679.48418    
 158726000   257.42514     -414.53253     -328.3175      -414.53593      0              8866.2708      30.944         21.33497       32.356026      21361.102      8413.3292      8927.7203      9257.7628      226.72732      1512.5749     -162.07887    
 158728000   250.31256     -414.98233     -331.14939     -414.98322      0              7511.2046      30.944         21.33497       32.427367      21408.201      8547.8948      6598.6491      7387.07        511.93317     -719.76095      1521.7372    
 158730000   255.13142     -414.06382     -328.61698     -414.06048      0              5327.943       30.944         21.33497       32.599063      21521.553      5851.73        5141.1548      4990.944      -180.9341      -764.65296      945.37157    
 158732000   257.97899     -415.77286     -329.37233     -415.77728      0              5127.2082      30.944         21.33497       32.524996      21472.655      5686.7165      4477.6033      5217.3047      625.53058     -483.8003      -692.7542     
 158734000   263.6744      -413.67978     -325.37179     -413.68498      0              7729.6759      30.944         21.33497       32.460913      21430.348      7009.1104      8465.7906      7714.1269      668.3543       711.94686     -73.982937    
 158736000   258.04697     -413.81728     -327.39398     -413.81847      0              4846.3824      30.944         21.33497       32.611721      21529.91       4592.4659      5594.2453      4352.436      -257.43722     -667.20825     -522.50107    
 158738000   254.13631     -415.89928     -330.78572     -415.89786      0              7405.9465      30.944         21.33497       32.564992      21499.06       7013.4833      7296.5839      7907.7723     -1383.7329     -72.276081     -581.55517    
 158740000   256.09557     -413.28828     -327.51854     -413.28663      0              4270.8503      30.944         21.33497       32.674697      21571.486      4659.9775      4302.5899      3849.9835     -998.42024      276.39794     -579.12263    
 158742000   255.60826     -415.98054     -330.374       -415.98727      0              7347.3252      30.944         21.33497       32.591768      21516.737      8008.3069      8245.7687      5787.9         1226.5421      256.28025     -1870.3484    
 158744000   251.72129     -416.30406     -331.99932     -416.32053      0              5106.7014      30.944         21.33497       32.53065       21476.387      4522.7136      5895.6371      4901.7534      425.8405       132.19148     -599.7292     
 158746000   253.86188     -415.00858     -329.98692     -415.01007      0              5190.5373      30.944         21.33497       32.471341      21437.232      4726.7686      5600.3553      5244.4881      156.21714      1821.7259     -928.60205    
 158748000   261.15244     -416.03241     -328.56905     -416.03045      0              7029.2847      30.944         21.33497       32.381898      21378.183      4629.037       8725.5935      7733.2238      799.45639      952.86667     -134.11465    
 158750000   254.39008     -413.83999     -328.64144     -413.83758      0              8180.9887      30.944         21.33497       32.257796      21296.252      7081.009       8176.7491      9285.2082     -962.28846      673.13276     -59.209035    
 158752000   249.07911     -414.22143     -330.80159     -414.21629      0              6570.242       30.944         21.33497       32.48944       21449.181      6906.1072      5932.1         6872.5188      657.44901      823.62121     -1247.4311    
 158754000   252.43372     -418.53017     -333.98683     -418.52727      0              5635.9714      30.944         21.33497       32.700619      21588.599      5044.064       7079.472       4784.3783     -1410.0783      299.86172      423.06517    
 158756000   258.95425     -415.51983     -328.79267     -415.52756      0              5859.0835      30.944         21.33497       32.561863      21496.994      6269.0881      5066.7415      6241.4207     -1616.7452     -275.2621      -1135.5475    
 158758000   244.11772     -413.75701     -331.9988      -413.7576       0              7495.3789      30.944         21.33497       32.779505      21640.679      8460.94        8630.5977      5394.5989     -989.0069       1887.4737      1132.245     
 158760000   255.9902      -417.10851     -331.37405     -417.10986      0              5633.2035      30.944         21.33497       32.654708      21558.289      6274.0146      7258.8339      3366.762       986.17225      478.984        281.53115    
 158762000   261.00933     -416.4788      -329.06337     -416.47598      0              7082.0458      30.944         21.33497       32.566064      21499.767      7574.0904      7116.5703      6555.4768      1018.1366     -957.63369     -953.35888    
 158764000   257.44672     -415.66078     -329.43852     -415.66735      0              2432.3303      30.944         21.33497       32.555858      21493.029      3984.7014      1851.2046      1461.0847     -584.25298      378.04374     -544.54913    
 158766000   257.826       -418.66045     -332.31116     -418.65723      0              7073.0147      30.944         21.33497       32.578128      21507.732      5438.4094      7830.2017      7950.433       1131.9347      838.50394     -845.78862    
 158768000   256.41667     -414.54715     -328.66986     -414.54744      0              4573.6063      30.944         21.33497       32.637011      21546.606      5883.9227      4791.9581      3044.938      -1008.2067      40.068633     -1017.5811    
 158770000   254.62925     -415.54769     -330.26904     -415.54867      0              7573.1892      30.944         21.33497       32.673655      21570.798      6303.9706      7537.5085      8878.0883      1312.1914      264.07203     -799.05445    
[...]
 166042000   258.63814     -415.43097     -328.80968     -415.4403       0              5396.6937      30.944         21.33497       32.655508      21558.817      5582.015       5853.4885      4754.5775      1545.9878      848.54585     -334.02317    
 166044000   267.56988     -414.84072     -325.22808     -414.85323      0              6547.1506      30.944         21.33497       32.678898      21574.259      6867.0185      5940.3919      6834.0416      1049.3397     -1031.3295      63.183227    
 166046000   259.89097     -412.13544     -325.09456     -412.13564      0              8202.0864      30.944         21.33497       32.625477      21538.992      8886.2606      7662.8631      8057.1357      1283.0152      136.26202      321.01737    
 166048000   252.81683     -415.48262     -330.81097     -415.49316      0              6146.4508      30.944         21.33497       32.68282       21576.848      5907.3715      5773.255       6758.7259     -973.65004     -377.91817      245.00787    
 166050000   257.93031     -416.09859     -329.71436     -416.10693      0              7011.7028      30.944         21.33497       32.547547      21487.542      5546.6661      7698.6857      7789.7566      428.03572      79.425809      1333.4843    
 166052000   254.86726     -417.44793     -332.08956     -417.45799      0              7245.3199      30.944         21.33497       32.639599      21548.315      5923.526       6987.2932      8825.1406     -2370.0963     -557.93292     -1176.0563    
 166054000   254.70511     -415.92207     -330.61801     -415.93487      0              8482.699       30.944         21.33497       32.630503      21542.309      6668.1151      9521.0225      9258.9594      844.40641      1166.5865      552.02691    
 166056000   254.95872     -417.63234     -332.24334     -417.64618      0              5548.0872      30.944         21.33497       32.67805       21573.699      6281.4841      4625.1295      5737.6481     -721.76836     -192.90541      56.148806    
 166058000   248.76852     -416.44576     -333.12994     -416.45469      0              4959.8967      30.944         21.33497       32.589814      21515.447      4407.9535      4120.8175      6350.9191     -1101.3547      1024.4058     -950.61924    
 166060000   260.79397     -414.74071     -327.39741     -414.74334      0              6394.3488      30.944         21.33497       32.771625      21635.477      7895.43        5293.247       5994.3695      1111.9367     -730.69752      861.94413    
 166062000   253.68996     -417.95114     -332.98707     -417.95757      0              7770.3573      30.944         21.33497       32.803677      21656.637      8926.3222      7697.0522      6687.6975      2464.4597      711.43752     -1047.9611    
 166064000   246.17459     -416.27165     -333.82457     -416.2926       0              6499.0786      30.944         21.33497       32.644094      21551.282      5985.6253      8401.5828      5110.0276      1276.7866      219.04391      556.15431    
 166066000   252.55269     -414.8622      -330.27901     -414.86388      0              5189.1909      30.944         21.33497       32.715313      21598.3        4265.0139      6015.4728      5287.086       514.83284      1258.7877      1584.2095    
 166068000   252.86734     -415.55916     -330.87059     -415.58648      0              7486.7061      30.944         21.33497       32.588485      21514.57       7204.9314      7060.8431      8194.3438      2456.7971      115.96178      926.24274    
 166070000   257.78919     -414.85883     -328.52187     -414.88402      0              4884.0224      30.944         21.33497       32.705568      21591.867      3434.074       4122.9915      7095.0017     -93.14489      -1008.8678      554.75784    
 166072000   252.82943     -416.94076     -332.26489     -416.9514       0              4640.188       30.944         21.33497       32.913781      21729.326      4039.1199      4509.2804      5372.1636     -871.58575     -1750.9422     -60.594333    
 166074000   254.01216     -418.34466     -333.27267     -418.35833      0              7044.3011      30.944         21.33497       32.761907      21629.061      7946.6859      5389.2009      7797.0164      1357.1904     -268.31705     -812.00483    
 166076000   257.4289      -420.65391     -334.43761     -420.66993      0              5727.2967      30.944         21.33497       32.760116      21627.879      5659.5412      7218.4147      4303.9341      210.92849      1324.614      -883.76906    
 166078000   251.67294     -416.35768     -332.06913     -416.3599       0              6592.4745      30.944         21.33497       32.657423      21560.082      8247.6255      7276.2462      4253.5519     -657.14004     -894.64434     -1542.2834    
 166080000   256.8981      -418.64612     -332.60759     -418.65744      0              7231.3315      30.944         21.33497       32.784232      21643.8        7485.097       6962.6235      7246.2739     -19.367342     -179.09065      132.42268    
 166082000   252.47171     -414.83442     -330.27835     -414.83931      0              4214.7194      30.944         21.33497       33.069251      21831.966      4465.0136      2348.0737      5831.0708     -1116.3444      369.30047      608.05967    
 166084000   259.48636     -420.32149     -333.41613     -420.33821      0              5571.4725      30.944         21.33497       32.837311      21678.842      4851.9716      4717.4633      7144.9826      1504.9509      96.271562     -895.73416    
 166086000   253.00233     -416.32866     -331.59488     -416.32814      0              4253.8924      30.944         21.33497       32.792749      21649.422      3347.086       3112.3694      6302.2217     -980.78227      238.66344      1079.8968    
 166088000   258.18446     -418.03732     -331.56798     -418.0496       0              6449.373       30.944         21.33497       32.700749      21588.685      6660.346       5006.2992      7681.4739     -236.33925      235.09086     -804.2482     
 166090000   258.63128     -420.67544     -334.05645     -420.68491      0              6133.0317      30.944         21.33497       32.637005      21546.602      5425.2879      5532.313       7441.494       672.9155       322.33971     -420.26377    
 166092000   252.54647     -417.78064     -333.19953     -417.79352      0              6644.405       30.944         21.33497       32.613608      21531.155      5571.8388      7130.851       7230.525       754.84566     -1353.0426      273.95436    
 166094000   258.09541     -419.18773     -332.74821     -419.19642      0              7258.904       30.944         21.33497       32.608885      21528.037      4990.8608      6660.2044      10125.647      231.08181      507.85571      1516.6693    
 166096000   253.0646      -420.18029     -335.42566     -420.19169      0              5715.2403      30.944         21.33497       32.727063      21606.057      6727.9434      6621.2783      3796.4994      1183.5846      760.18444     -633.03541    
 166098000   256.81307     -417.29255     -331.28251     -417.30449      0              6123.5193      30.944         21.33497       32.90184       21721.443      7151.1608      5909.3587      5310.0385      1827.7941     -602.30289      288.88931    
 166100000   257.61485     -417.22108     -330.9425      -417.22632      0              6308.6698      30.944         21.33497       32.898133      21718.996      7936.4037      5196.2158      5793.3901      1884.1627     -2556.7343      498.71595    
 166102000   249.02385     -419.23591     -335.83458     -419.25476      0              5924.9625      30.944         21.33497       32.891138      21714.378      6848.1642      6794.4828      4132.2404     -229.64878      405.51672     -750.05401    
 166104000   251.04663     -419.37992     -335.30113     -419.38793      0              6135.8643      30.944         21.33497       32.649869      21555.095      7935.1931      6659.9926      3812.4073     -682.45857     -509.08948     -2711.6287    
 166106000   251.94488     -418.90808     -334.52846     -418.91864      0              5000.0187      30.944         21.33497       32.637825      21547.143      3927.1607      5086.9449      5985.9504     -460.10828      1484.0749      998.06003    
 166108000   254.38388     -418.75428     -333.5578      -418.79835      0              5971.9757      30.944         21.33497       32.538076      21481.29       6136.9744      5097.6217      6681.331       2993.8001      375.9445      -202.21945    
 166110000   261.62486     -415.37504     -327.75347     -415.38921      0              6093.9489      30.944         21.33497       32.61881       21534.59       5164.7782      6020.8573      7096.211       262.07148      1156.2294     -213.51284    
 166112000   254.34651     -418.88508     -333.70111     -418.90376      0              5673.718       30.944         21.33497       32.617981      21534.042      4599.7991      7002.8267      5418.5282     -711.60463      367.53365      122.90491    
 166114000   255.73142     -415.56952     -329.92174     -415.57531      0              6857.7735      30.944         21.33497       32.456597      21427.499      6379.2452      9439.3679      4754.7074     -1632.0073     -271.04525     -1436.8388    
 166116000   264.31974     -415.25488     -326.73076     -415.26382      0              6551.7579      30.944         21.33497       32.550712      21489.632      6239.0574      6892.0152      6524.2011      282.41153      1355.3391      459.34093    
 166118000   253.4021      -418.80262     -333.93496     -418.81368      0              7735.9777      30.944         21.33497       32.542037      21483.905      6310.9541      8380.6374      8516.3415     -293.43502     -185.34098     -856.54043    
 166120000   249.97692     -415.66663     -331.9461      -415.67477      0              5492.4365      30.944         21.33497       32.625116      21538.753      3161.365       5168.2975      8147.647       32.155118      1120.1389     -227.50795    
 166122000   250.77386     -415.40937     -331.42194     -415.42148      0              4488.6865      30.944         21.33497       32.633085      21544.014      4444.1623      5435.5424      3586.3549      293.29736     -719.11727     -483.40544    
 166124000   254.67515     -416.29682     -331.0028      -416.33992      0              6122.9495      30.944         21.33497       32.599628      21521.926      6806.7604      4996.7244      6565.3637      687.43394      305.82266     -91.956755    
 166126000   256.72304     -413.64243     -327.66254     -413.64513      0              6024.7176      30.944         21.33497       32.355538      21360.78       9530.6482      6255.9077      2287.5968      1131.6596     -1083.491      -1895.6562    
 166128000   256.57934     -416.26117     -330.3294      -416.27276      0              8842.5313      30.944         21.33497       32.506962      21460.749      8969.0308      8063.4899      9495.0732     -749.0795      -30.377269      315.38276    
 166130000   259.61172     -417.49861     -330.55126     -417.50867      0              4040.6348      30.944         21.33497       32.744765      21617.744      4834.7642      3693.1704      3593.9699      555.16779      447.00707     -1189.2047    
 166132000   257.44392     -415.80432     -329.583       -415.80574      0              6223.1734      30.944         21.33497       32.70481       21591.366      5081.636       8065.6421      5522.242       2319.2334     -830.03955      423.64376    
 166134000   248.50527     -417.85196     -334.62431     -417.86081      0              5968.0844      30.944         21.33497       32.648156      21553.964      7532.1434      5357.071       5015.039      -676.49203     -297.83009     -1971.8263    
 166136000   253.97924     -417.45674     -332.39579     -417.47888      0              6326.6858      30.944         21.33497       32.577087      21507.045      6053.889       6858.6329      6067.5354      637.76423      2071.9959      829.82494    
 166138000   258.72121     -416.72375     -330.07464     -416.7382       0              9841.3116      30.944         21.33497       32.579008      21508.313      8187.0376      10467.321      10869.577     -1034.6914     -3.144173      -266.50713    
 166140000   249.44676     -417.62457     -334.0816      -417.63904      0              6414.4732      30.944         21.33497       32.689403      21581.195      8337.934       5824.1105      5081.3752     -2014.274       839.62257      2165.0949    
 166142000   250.48896     -417.03249     -333.14047     -417.04972      0              6195.6136      30.944         21.33497       32.769069      21633.789      4728.3629      7169.8791      6688.5989      610.69969     -455.33363     -1564.3111    
 166144000   254.3199      -416.8226      -331.64755     -416.83649      0              5110.1445      30.944         21.33497       32.718456      21600.375      5853.5407      5556.1744      3920.7184      2465.4854     -352.09345     -1621.1391    
 166146000   254.8859      -416.2068      -330.84219     -416.2134       0              4779.0561      30.944         21.33497       32.67591       21572.286      5079.9223      2120.3693      7136.8767      531.4452      -1333.5607      513.64029    
 166148000   248.8231      -416.4086      -333.0745      -416.41857      0              7453.091       30.944         21.33497       32.735744      21611.788      5443.8354      8171.6643      8743.7734     -477.75874      22.162011     -2731.1749    
 166150000   265.47489     -416.98952     -328.07852     -417.00013      0              6515.7173      30.944         21.33497       32.702792      21590.034      8084.8359      4513.3711      6948.9448     -1335.9044      1588.2158      186.12504    
 166152000   254.27795     -418.68235     -333.52135     -418.69298      0              5993.1886      30.944         21.33497       32.65279       21557.023      4925.4844      7206.4153      5847.6661      619.59527      1273.8178      1549.9886    
 166154000   250.73932     -417.70952     -333.73366     -417.72263      0              6375.4428      30.944         21.33497       32.598327      21521.067      7577.0289      5562.7546      5986.5448     -2269.1003      74.657706      432.31876    
 166156000   261.90206     -415.63823     -327.92381     -415.64769      0              5369.6781      30.944         21.33497       32.613589      21531.143      6736.2642      3351.3739      6021.3964      1704.6918     -74.203209     -205.23869    
 166158000   250.39261     -414.57314     -330.71339     -414.58527      0              7983.5232      30.944         21.33497       32.589648      21515.337      5264.9892      9354.1668      9331.4138      425.70844      271.33906      854.89187    
 166160000   251.79601     -416.99453     -332.66476     -417.0051       0              4891.8597      30.944         21.33497       32.807524      21659.177      3950.8655      6761.7438      3962.9699     -349.9335      -736.91234      60.488447    
 166162000   255.73254     -417.23696     -331.5888      -417.24627      0              4649.1794      30.944         21.33497       32.808462      21659.796      6518.344       3864.2715      3564.9228      837.8283      -623.18389      1158.0579    
 166164000   255.71055     -417.96038     -332.31958     -417.97439      0              7542.5249      30.944         21.33497       32.537764      21481.084      6941.809       8142.2378      7543.5277      2120.7018     -2269.0886      597.45408    
 166166000   256.01128     -417.54596     -331.80444     -417.61918      0              6330.9422      30.944         21.33497       32.743423      21616.858      6114.2078      5069.8456      7808.7733      66.894209     -325.83084      962.92075    
 166168000   262.60536     -416.7195      -328.76954     -416.73419      0              5671.6632      30.944         21.33497       32.816985      21665.423      4948.455       6638.7898      5427.7448      82.88448       149.71048      2230.9582    
 166170000   256.93291     -418.08699     -332.03681     -418.09814      0              4755.5327      30.944         21.33497       32.755378      21624.75       4641.8128      5297.4721      4327.3131     -1452.7838     -94.34454       1235.6556    
 166172000   256.88892     -415.70536     -329.66991     -415.71487      0              3595.1225      30.944         21.33497       32.847783      21685.756      4409.7906      3528.5502      2847.0267     -731.7822      -911.06319      1122.3942    
 166174000   257.76625     -417.07848     -330.74921     -417.08759      0              5986.1755      30.944         21.33497       32.670995      21569.042      5542.4079      4517.4822      7898.6363     -336.67899      1144.7836      675.48611    
 166176000   255.02737     -415.07003     -329.65804     -415.08461      0              7216.0698      30.944         21.33497       32.593968      21518.189      7507.7129      7573.5537      6566.943      -86.809607      2334.1653      1895.251     
 166178000   256.06179     -413.71715     -327.95872     -413.72517      0              6193.2734      30.944         21.33497       32.601964      21523.468      5534.7228      7996.6211      5048.4761      857.2152       965.89005     -216.87376    
 166180000   259.57603     -417.69533     -330.75993     -417.70961      0              4775.1549      30.944         21.33497       32.679416      21574.601      3528.5062      5174.7099      5622.2486      116.95608      2610.6702     -865.53624    
 166182000   261.48361     -417.38534     -329.81107     -417.40668      0              7558.7402      30.944         21.33497       32.681287      21575.836      7828.3863      7817.2567      7030.5777      2090.427       2131.2803     -359.61136    
 166184000   251.15536     -416.52622     -332.41102     -416.53678      0              8268.8068      30.944         21.33497       32.62584       21539.231      9190.0413      6916.8364      8699.5429     -490.0809      -1772.9594      655.58498    
WARNING: Wall time limit reached (../timer.cpp:193)
Loop time of 85794.2 on 4 procs for 7982000 steps with 2592 atoms

Performance: 4.019 ns/day, 5.971 hours/ns, 93.037 timesteps/s
1550.3% CPU use with 4 MPI tasks x no OpenMP threads

MPI task timing breakdown:
Section |  min time  |  avg time  |  max time  |%varavg| %total
---------------------------------------------------------------
Pair    | 22394      | 22481      | 22575      |  45.1 | 26.20
Bond    | 0.77209    | 0.82973    | 0.88857    |   5.1 |  0.00
Neigh   | 686.71     | 693.45     | 697.89     |  17.3 |  0.81
Comm    | 2516.7     | 2603.1     | 2686.7     | 128.0 |  3.03
Output  | 24.614     | 24.619     | 24.633     |   0.2 |  0.03
Modify  | 59967      | 59969      | 59971      |   0.7 | 69.90
Other   |            | 21.9       |            |       |  0.03

Nlocal:            648 ave         655 max         635 min
Histogram: 1 0 0 0 0 0 1 0 0 2
Nghost:           4225 ave        4237 max        4216 min
Histogram: 1 0 1 0 1 0 0 0 0 1
Neighs:              0 ave           0 max           0 min
Histogram: 4 0 0 0 0 0 0 0 0 0
FullNghs:       166854 ave      169292 max      161723 min
Histogram: 1 0 0 0 0 0 0 1 0 2

Total # of neighbors = 667418
Ave neighs/atom = 257.49151
Ave special neighs/atom = 0
Neighbor list builds = 159640
Dangerous builds not checked
unfix 3
unfix 1
unfix 2


# Finalize simulation
write_restart	restart.lmp.${pid}
write_restart	restart.lmp.0
System init for write_restart ...
Generated 0 of 1 mixed pair_coeff terms from geometric mixing rule
write_data	data.final.${pid} nocoeff
write_data	data.final.0 nocoeff
System init for write_data ...
Generated 0 of 1 mixed pair_coeff terms from geometric mixing rule
Total wall time: 23:50:11
