LAMMPS (23 Jun 2022)
include procedure.lmp
echo both
include		in.partitions
variable        pid world 0
include		in.temp
variable	temperature equal 255
variable        tempDamp equal 0.100 # this is 0.1 ps
include		in.pressure
variable        pressure equal 6079.5
variable        pressureDamp equal 1.0 #this is 1ps

variable	barostat string	   tri
variable	direction string   z
variable	direction_x_bool equal 0
variable	direction_y_bool equal 0
variable	direction_z_bool equal 1

include		in.seed
variable        seed world 745823

units           metal
atom_style	full
box tilt large
read_restart 	restart.lmp.${pid}
read_restart 	restart.lmp.0
Reading restart file ...
  restart file = 23 Jun 2022, LAMMPS = 23 Jun 2022
  restoring atom style full from restart
  triclinic box = (0 0 -0.78012958) to (30.944 21.33497 31.752845) with tilt (-9.144178 0.98167864 -10.826085)
WARNING: Triclinic box skew is large (../domain.cpp:224)
  2 by 1 by 2 MPI processor grid
Summary of lammps deepmd module ...
  >>> Info of deepmd-kit:
  installed to:       /u/sigbjobo/software/DEEPMD_FROM_SOURCE/deepmd-kit/install
  source:             v2.1.3
  source branch:       master
  source commit:      5a32c49
  source commit at:   2022-07-01 09:52:58 +0800
  surpport model ver.:1.1 
  build float prec:   double
  build with tf inc:  /u/sigbjobo/software/DEEPMD_FROM_SOURCE/tensorflow/install/include;/u/sigbjobo/software/DEEPMD_FROM_SOURCE/tensorflow/install/include
  build with tf lib:  /u/sigbjobo/software/DEEPMD_FROM_SOURCE/tensorflow/install/lib/libtensorflow_cc.so;/u/sigbjobo/software/DEEPMD_FROM_SOURCE/tensorflow/install/lib/libtensorflow_framework.so
  set tf intra_op_parallelism_threads: 0
  set tf inter_op_parallelism_threads: 0
  >>> Info of lammps module:
  use deepmd-kit at:  /u/sigbjobo/software/DEEPMD_FROM_SOURCE/deepmd-kit/install
  source:             v2.1.3
  source branch:      master
  source commit:      5a32c49
  source commit at:   2022-07-01 09:52:58 +0800
  build float prec:   double
  build with tf inc:  /u/sigbjobo/software/DEEPMD_FROM_SOURCE/tensorflow/install/include;/u/sigbjobo/software/DEEPMD_FROM_SOURCE/tensorflow/install/include
  build with tf lib:  /u/sigbjobo/software/DEEPMD_FROM_SOURCE/tensorflow/install/lib/libtensorflow_cc.so;/u/sigbjobo/software/DEEPMD_FROM_SOURCE/tensorflow/install/lib/libtensorflow_framework.so
  restoring pair style deepmd from restart
  2592 atoms
Finding 1-2 1-3 1-4 neighbors ...
  special bond factors lj:    0        0        0       
  special bond factors coul:  0        0        0       
     0 = max # of 1-2 neighbors
     0 = max # of 1-3 neighbors
     0 = max # of 1-4 neighbors
     1 = max # of special neighbors
  special bonds CPU = 0.000 seconds
  read_restart CPU = 0.010 seconds
include 	in.setup
variable	out_freq equal 2000
variable	out_freq2 equal 2000

timestep        0.0005

neigh_modify    delay 7 every 1

include         in.deepmd
# This is deepMD model

# create groups ###
#group ox type 2
#group hy type 1

mass 2 15.999
mass 1 1.008

pair_style      deepmd ../graph.pb
pair_coeff      * *

bond_style      none
angle_style     none
dihedral_style  none
improper_style  none
neigh_modify exclude none


neighbor        2.0 bin
neigh_modify    every 50 delay 0 check no

thermo          ${out_freq}
thermo          2000
thermo_style 	custom step temp pe etotal epair emol press lx ly lz vol pxx pyy pzz pxy pxz pyz

restart 	${out_freq} restart.lmp.${pid} restart2.lmp.${pid}
restart 	2000 restart.lmp.${pid} restart2.lmp.${pid}
restart 	2000 restart.lmp.0 restart2.lmp.${pid}
restart 	2000 restart.lmp.0 restart2.lmp.0


timer           timeout 23:50:00 every 1000
New timer settings: style=normal  mode=nosync  timeout=23:50:00


# Set number of time steps
variable 	nsteps_wall		equal	 6000000
variable 	nsteps_enhanced_coex    equal	150000000

variable     nsteps_enhanced_coex_upto equal (${nsteps_wall}+${nsteps_enhanced_coex})
variable     nsteps_enhanced_coex_upto equal (6000000+${nsteps_enhanced_coex})
variable     nsteps_enhanced_coex_upto equal (6000000+150000000)


# Set temperature for first step
if "$(step) < 1  " then    "velocity 	all create ${temperature} ${seed} dist gaussian"


# Always run thermo and barostat


######################################
# Run simulation with wall potential #
######################################
if " $(step) < ${nsteps_wall} " then    "fix             3 all plumed plumedfile plumed.equil.dat outfile plumed.equil.out"   "fix             1 all nph ${direction} ${pressure} ${pressure} ${pressureDamp}"   "fix             2 all temp/csvr ${temperature} ${temperature} ${tempDamp} ${seed}"   "run             ${nsteps_wall} upto"
if " $(step) == ${nsteps_wall} " then    "unfix 3"   "unfix 1"   "unfix 2"


############################
# Run enhanced coesistence #
############################
if "$(step) == ${nsteps_wall}" then    "fix             3 all plumed plumedfile plumed.start.dat outfile plumed.out" else    "fix             3 all plumed plumedfile plumed.dat outfile plumed.out"
fix             3 all plumed plumedfile plumed.dat outfile plumed.out

if "$(step) < ${nsteps_enhanced_coex_upto} && $(step) >= ${nsteps_wall} " then    "include         in.dump"    "fix             1 all nph ${direction} ${pressure} ${pressure} ${pressureDamp}"   "fix             2 all temp/csvr ${temperature} ${temperature} ${tempDamp} ${seed}"   "run             ${nsteps_enhanced_coex_upto} upto"    "unfix 3"   "unfix 1"   "unfix 2"
include         in.dump
dump            myDump all atom ${out_freq2} dump.water.${pid}
dump            myDump all atom 2000 dump.water.${pid}
dump            myDump all atom 2000 dump.water.0
dump            myDump2 all dcd ${out_freq2} dump.${pid}.dcd
dump            myDump2 all dcd 2000 dump.${pid}.dcd
dump            myDump2 all dcd 2000 dump.0.dcd
dump_modify     myDump append yes
dump_modify     myDump2 append yes

fix             1 all nph ${direction} ${pressure} ${pressure} ${pressureDamp}
fix             1 all nph z ${pressure} ${pressure} ${pressureDamp}
fix             1 all nph z 6079.5 ${pressure} ${pressureDamp}
fix             1 all nph z 6079.5 6079.5 ${pressureDamp}
fix             1 all nph z 6079.5 6079.5 1
fix             2 all temp/csvr ${temperature} ${temperature} ${tempDamp} ${seed}
fix             2 all temp/csvr 255 ${temperature} ${tempDamp} ${seed}
fix             2 all temp/csvr 255 255 ${tempDamp} ${seed}
fix             2 all temp/csvr 255 255 0.1 ${seed}
fix             2 all temp/csvr 255 255 0.1 745823
run             ${nsteps_enhanced_coex_upto} upto
run             156000000 upto

CITE-CITE-CITE-CITE-CITE-CITE-CITE-CITE-CITE-CITE-CITE-CITE-CITE

Your simulation uses code contributions which should be cited:

- USER-DEEPMD package:

@article{Wang_ComputPhysCommun_2018_v228_p178,
  author = {Wang, Han and Zhang, Linfeng and Han, Jiequn and E, Weinan},
  doi = {10.1016/j.cpc.2018.03.016},
  url = {https://doi.org/10.1016/j.cpc.2018.03.016},
  year = 2018,
  month = {jul},
  publisher = {Elsevier {BV}},
  volume = 228,
  journal = {Comput. Phys. Commun.},
  title = {{DeePMD-kit: A deep learning package for many-body potential energy representation and molecular dynamics}},
  pages = {178--184}
}

CITE-CITE-CITE-CITE-CITE-CITE-CITE-CITE-CITE-CITE-CITE-CITE-CITE

Generated 0 of 1 mixed pair_coeff terms from geometric mixing rule
Neighbor list info ...
  update every 50 steps, delay 0 steps, check no
  max neighbors/atom: 2000, page size: 100000
  master list distance cutoff = 8
  ghost atom cutoff = 8
  binsize = 4, bins = 11 9 9
  1 neighbor lists, perpetual/occasional/extra = 1 0 0
  (1) pair deepmd, perpetual
      attributes: full, newton on
      pair build: full/bin
      stencil: full/bin/3d
      bin: standard
Per MPI rank memory allocation (min/avg/max) = 7.305 | 7.307 | 7.308 Mbytes
   Step          Temp          PotEng         TotEng         E_pair         E_mol          Press            Lx             Ly             Lz           Volume          Pxx            Pyy            Pzz            Pxy            Pxz            Pyz      
 135648000   258.74512     -414.84687     -328.18976     -414.84687      0              6313.1835      30.944         21.33497       32.532974      21477.922      5801.5085      7591.0344      5547.0077     -13.957049      1294.7534     -690.3391     
 135650000   261.33206     -415.01028     -327.48676     -415.00841      0              5764.9062      30.944         21.33497       32.424679      21406.427      7595.3038      4277.5215      5421.8931     -769.76524      484.69778      637.78639    
 135652000   255.51679     -416.21162     -330.63571     -416.21023      0              5819.8942      30.944         21.33497       32.303863      21326.665      5293.1759      4344.9017      7821.6049     -296.14312     -963.50696     -51.856761    
 135654000   258.6407      -416.64995     -330.0278      -416.64894      0              6673.7601      30.944         21.33497       32.24348       21286.801      5413.3045      8461.4299      6146.546      -512.28821     -20.788604     -263.99147    
 135656000   250.76979     -415.53493     -331.54886     -415.53422      0              5326.8745      30.944         21.33497       32.573335      21504.567      6834.4084      5874.3035      3271.9115     -366.85847     -1714.8392     -298.80931    
 135658000   258.26644     -414.25782     -327.76102     -414.25641      0              6875.1437      30.944         21.33497       32.648847      21554.42       7634.8156      7083.1534      5907.462       899.38609      667.8451      -749.54414    
 135660000   251.23809     -411.93451     -327.79159     -411.93334      0              5762.7387      30.944         21.33497       32.471107      21437.078      4937.9133      7145.044       5205.2589      2101.9821     -56.539761     -527.65311    
 135662000   249.57323     -416.65014     -333.06482     -416.64909      0              7601.5307      30.944         21.33497       32.406042      21394.123      6798.4543      7707.658       8298.4799      1293.6809      507.08821     -1144.0473    
 135664000   258.11338     -417.00784     -330.5623      -417.00711      0              5457.4865      30.944         21.33497       32.467771      21434.876      4049.0261      5420.7716      6902.6618     -1087.9651     -200.5839       24.809906    
 135666000   254.92842     -417.34246     -331.96361     -417.34029      0              7110.3507      30.944         21.33497       32.319992      21337.313      7223.5049      6503.6105      7603.9368     -1003.1407     -709.00396     -1069.0992    
 135668000   253.14939     -416.95022     -332.16719     -416.94846      0              7174.4733      30.944         21.33497       32.455596      21426.838      7043.9217      6557.3878      7922.1104     -1148.2295      865.07072      517.55278    
 135670000   255.87616     -416.42631     -330.73005     -416.42456      0              8337.8297      30.944         21.33497       32.468537      21435.381      9536.3034      5651.8554      9825.3303     -1145.5928     -929.02497      1265.1875    
 135672000   260.22501     -415.28888     -328.13613     -415.28676      0              7170.8846      30.944         21.33497       32.441227      21417.352      7677.1102      8162.4346      5673.1088     -231.81377      60.59597      -2145.2249    
 135674000   260.26389     -414.28612     -327.12035     -414.28397      0              7333.7667      30.944         21.33497       32.45843       21428.709      6808.4746      6509.9466      8682.8789     -524.10437      25.543908     -2109.4873    
 135676000   256.48717     -417.52745     -331.62656     -417.52656      0              6455.4219      30.944         21.33497       32.476172      21440.421      5752.5002      6504.6075      7109.158      -228.10892     -1676.6275      102.26703    
 135678000   268.63007     -415.41409     -325.44637     -415.44097      0              6119.8587      30.944         21.33497       32.457691      21428.221      7080.5443      4769.1877      6509.844      -1009.1137     -2844.7366      151.62462    
 135680000   255.29223     -417.30296     -331.80226     -417.30113      0              5056.5351      30.944         21.33497       32.451777      21424.317      3967.6018      6775.1904      4426.8132      203.27719      503.27555     -690.07734    
 135682000   252.17443     -418.08357     -333.62707     -418.08193      0              7193.9084      30.944         21.33497       32.549507      21488.837      7170.3008      7485.5582      6925.8661      675.44646      1399.8405      331.33576    
 135684000   260.12796     -419.6241      -332.50386     -419.62753      0              5202.708       30.944         21.33497       32.473966      21438.965      6383.8558      4495.428       4728.8402     -1062.4164      288.36786     -520.90542    
 135686000   259.46555     -415.53658     -328.63819     -415.53504      0              6574.4176      30.944         21.33497       32.699646      21587.957      5370.6037      7397.8289      6954.8204      621.02331     -1416.2041      2716.9931    
 135688000   253.93019     -417.93169     -332.88716     -417.93075      0              7024.8548      30.944         21.33497       32.598873      21521.428      7816.364       8580.4736      4677.7267      985.92271     -998.04691     -2029.6506    
 135690000   255.51621     -415.98659     -330.41088     -415.98547      0              6533.2053      30.944         21.33497       32.627996      21540.654      7630.7143      7568.1022      4400.7993      77.756716     -1307.694      -1182.5356    
 135692000   248.88293     -416.7511      -333.39696     -416.74911      0              6568.3135      30.944         21.33497       32.506426      21460.395      5090.9909      7934.8611      6679.0885      12.282188      448.31664     -1024.8557    
 135694000   258.69902     -417.76506     -331.12338     -417.76392      0              5172.4131      30.944         21.33497       32.655628      21558.896      5347.277       5513.2433      4656.7192      510.93472      60.90014      -412.08455    
 135696000   245.32205     -412.66044     -330.49889     -412.65891      0              6279.5929      30.944         21.33497       32.458488      21428.747      5592.8057      5844.1746      7401.7985      474.87529     -112.07999      100.30698    
 135698000   259.01551     -414.00967     -327.26199     -414.0087       0              5267.9783      30.944         21.33497       32.620614      21535.781      5342.7367      6416.3987      4044.7994      322.85886     -88.383495      953.67027    
 135700000   255.37243     -417.40875     -331.8812      -417.42404      0              7733.3125      30.944         21.33497       32.474113      21439.062      6478.2762      9149.2197      7572.4415      2754.065      -551.45708     -1031.1793    
 135702000   260.11029     -415.22918     -328.11486     -415.22988      0              5803.9983      30.944         21.33497       32.351214      21357.926      6084.808       5100.6493      6226.5378     -108.65219      247.76805     -1057.0542    
 135704000   252.23694     -413.23732     -328.75988     -413.23598      0              6143.0201      30.944         21.33497       32.521189      21470.141      5415.1247      7692.8578      5321.0776      1328.6021      483.14465     -464.49238    
 135706000   249.42555     -415.74188     -332.20601     -415.7411       0              7652.6653      30.944         21.33497       32.502804      21458.004      10026.145      6479.754       6452.0968     -427.10022     -1993.0205      187.01604    
 135708000   257.8113      -417.33157     -330.9872      -417.32969      0              6978.5952      30.944         21.33497       32.480128      21443.033      7480.7578      6461.2897      6993.738      -763.75582     -1443.8735      121.29091    
 135710000   257.35126     -415.23323     -329.04294     -415.23253      0              4567.0154      30.944         21.33497       32.525381      21472.909      6667.0346      2524.1395      4509.8722     -1054.197       820.4051       546.35564    
 135712000   260.16093     -415.61794     -328.48665     -415.70924      0              9642.1891      30.944         21.33497       32.480263      21443.123      8713.7244      10943.372      9269.4712      1144.7791     -430.86426      497.63395    
 135714000   259.58783     -414.66702     -327.72767     -414.66493      0              8557.8331      30.944         21.33497       32.455464      21426.75       9904.155       7906.0434      7863.3009     -346.41945      636.06302     -404.6167     
 135716000   252.6615      -417.54811     -332.92848     -417.54624      0              7754.8934      30.944         21.33497       32.365163      21367.135      6725.9167      8545.9062      7992.8574      146.08795     -311.92272      604.806      
 135718000   250.49822     -415.37303     -331.47791     -415.37093      0              8117.9332      30.944         21.33497       32.439007      21415.885      7583.7516      9603.2987      7166.7492      683.14468      1147.6856      138.50473    
 135720000   259.38589     -413.92165     -327.04993     -413.91974      0              5740.9635      30.944         21.33497       32.501264      21456.987      4879.5371      5415.3908      6927.9625      861.85397     -301.34655      341.36119    
 135722000   258.29898     -416.67461     -330.16692     -416.67342      0              5588.1096      30.944         21.33497       32.510269      21462.932      5038.8835      4808.9689      6916.4763      829.88164      791.69959      336.61953    
 135724000   255.15253     -416.24695     -330.79304     -416.24612      0              6093.9571      30.944         21.33497       32.487853      21448.134      3895.9091      8096.5947      6289.3674      1580.5854      257.27451      1335.4839    
 135726000   260.93305     -414.29133     -326.90145     -414.28999      0              6693.3804      30.944         21.33497       32.512958      21464.707      6477.3745      6669.1977      6933.5689      1076.3369     -247.03837      82.837017    
 135728000   256.98572     -415.64747     -329.5796      -415.64554      0              4199.7054      30.944         21.33497       32.710887      21595.378      3744.5355      4409.3002      4445.2806      1014.0832     -112.91831     -32.116299    
 135730000   253.26776     -416.42165     -331.59898     -416.41963      0              7282.1479      30.944         21.33497       32.504611      21459.197      8329.8094      6591.9552      6924.679      -1765.4061     -1565.4763     -407.63533    
 135732000   254.25        -413.10785     -327.95621     -413.10583      0              6234.4839      30.944         21.33497       32.503478      21458.449      5015.7458      5611.1125      8076.5934     -317.03908      647.16104      26.999856    
 135734000   253.55125     -414.64441     -329.72679     -414.64235      0              6574.432       30.944         21.33497       32.502355      21457.708      6844.6082      5562.9509      7315.7371     -1210.1382     -802.39604      1919.6447    
 135736000   260.56033     -416.13278     -328.86773     -416.13584      0              5907.1803      30.944         21.33497       32.481282      21443.795      4317.5619      7126           6277.9791      1278.4038      429.12645      101.48328    
 135738000   245.56536     -416.76128     -334.51824     -416.76062      0              5450.1913      30.944         21.33497       32.502677      21457.92       4593.6979      6382.2165      5374.6595     -126.87237      983.39319     -251.37287    
 135740000   257.69236     -416.04637     -329.74184     -416.0454       0              8586.0406      30.944         21.33497       32.518489      21468.359      8582.3442      7814.9046      9360.8729     -437.49861     -1503.3095     -936.29412    
 135742000   251.15968     -415.805       -331.68835     -415.8068       0              7140.6774      30.944         21.33497       32.447164      21421.271      8179.7672      6909.6442      6332.6209     -281.9912      -588.85212     -833.24455    
 135744000   256.10064     -416.44948     -330.67804     -416.44884      0              6997.439       30.944         21.33497       32.456623      21427.516      8614.8732      5708.6074      6668.8364     -303.99906     -746.18606     -1825.2874    
 135746000   253.53956     -416.44632     -331.53261     -416.44556      0              7484.8211      30.944         21.33497       32.32185       21338.54       7152.8821      7578.1975      7723.3837     -1301.5328      2220.1019      235.87721    
 135748000   257.73125     -414.02281     -327.70526     -414.02216      0              5962.9949      30.944         21.33497       32.422308      21404.861      4147.9279      7966.3256      5774.7313      1886.1497     -847.22561     -1181.7879    
 135750000   251.63562     -414.32751     -330.05147     -414.32561      0              5313.3402      30.944         21.33497       32.407147      21394.852      5216.4058      4898.7116      5824.9032      340.3145      -1517.1821     -331.22683    
 135752000   256.65604     -416.23793     -330.28048     -416.23676      0              7371.7238      30.944         21.33497       32.414321      21399.588      8245.1128      6249.0972      7620.9614      1459.6501      266.29821     -800.10031    
 135754000   256.27487     -414.92069     -329.09089     -414.9191       0              6550.4372      30.944         21.33497       32.597339      21520.415      6972.0474      7128.4769      5550.7873      1423.9855     -1249.3503      99.334199    
 135756000   261.77923     -415.9177      -328.24443     -415.91613      0              6486.5492      30.944         21.33497       32.57273       21504.168      6081.6974      5886.7286      7491.2216      1141.4485      486.08714     -104.97183    
 135758000   261.86006     -416.79866     -329.09831     -416.79742      0              7516.249       30.944         21.33497       32.44564       21420.264      7192.5415      7024.5733      8331.6323      1308.372       2631.0458      26.043815    
 135760000   256.72047     -416.88014     -330.90111     -416.87952      0              5849.8215      30.944         21.33497       32.398768      21389.321      5692.5239      5608.4906      6248.4499     -1229.382       1207.1592     -529.89502    
 135762000   262.42579     -417.20169     -329.31187     -417.20048      0              7807           30.944         21.33497       32.414114      21399.452      8199.0327      8404.5263      6817.4411     -1748.2003     -373.33871     -2547.0705    
 135764000   253.06046     -416.64262     -331.88937     -416.64107      0              5458.7946      30.944         21.33497       32.364871      21366.942      7620.3977      4831.8233      3924.1629      231.50828     -649.02208     -1487.6602    
 135766000   255.46274     -416.24417     -330.68637     -416.24554      0              8150.2552      30.944         21.33497       32.388179      21382.33       6386.1327      8851.4343      9213.1986      434.64238      638.09988      890.5663     
 135768000   254.36088     -414.27981     -329.09104     -414.2779       0              7069.5479      30.944         21.33497       32.375277      21373.812      7691.9526      7179.9194      6336.7718     -890.09856      124.59361     -295.91838    
 135770000   252.43032     -412.21601     -327.67381     -412.21473      0              6160.0835      30.944         21.33497       32.469761      21436.189      7075.0743      6718.3292      4686.847      -526.62059      1760.0117      761.84606    
 135772000   257.0072      -413.5101      -327.43503     -413.50853      0              7133.6077      30.944         21.33497       32.399097      21389.538      2405.4222      11584.171      7411.2299     -117.07208      1443.0002      144.49094    
 135774000   257.42026     -413.52792     -327.31451     -413.52668      0              7499.5126      30.944         21.33497       32.542434      21484.167      6543.3935      8120.0361      7835.1083      1122.616       1279.1151      801.49348    
 135776000   255.28675     -414.46618     -328.96732     -414.46445      0              3820.7035      30.944         21.33497       32.455251      21426.61       2619.8622      4647.1024      4195.1459      1600.552      -176.04569      297.81272    
 135778000   255.02167     -415.37023     -329.96015     -415.36872      0              6877.7777      30.944         21.33497       32.465729      21433.527      5922.4996      7121.8148      7589.0186      978.39252     -747.35962     -1583.5962    
 135780000   254.28521     -416.67413     -331.5107      -416.67263      0              5664.1828      30.944         21.33497       32.416622      21401.107      6076.0575      3158.8551      7757.6357     -190.25518     -1802.5859      738.75133    
 135782000   252.89979     -414.69134     -329.99191     -414.68995      0              7039.7653      30.944         21.33497       32.493773      21452.041      9000.9639      6286.9226      5831.4096      648.81044     -563.2658       481.41524    
 135784000   253.68673     -414.92398     -329.96098     -414.92242      0              4771.721       30.944         21.33497       32.43384       21412.474      4328.2964      6028.6083      3958.2583      124.19851      253.82051     -989.81667    
 135786000   260.16783     -416.40186     -329.26826     -416.40037      0              6340.973       30.944         21.33497       32.587515      21513.929      4958.6236      7053.3545      7010.9411     -964.83459      401.03365     -1907.7592    
 135788000   255.1939      -412.91227     -327.4445      -412.91113      0              6948.1593      30.944         21.33497       32.571338      21503.249      8444.396       5933.5381      6466.5438     -205.4875      -341.6546       1791.2741    
 135790000   257.16928     -415.42869     -329.29934     -415.42715      0              6984.3103      30.944         21.33497       32.436222      21414.047      8741.192       4602.3789      7609.3601      389.51653     -274.7912      -1089.4606    
 135792000   255.01909     -414.15674     -328.74752     -414.15522      0              5754.6418      30.944         21.33497       32.46962       21436.096      6573.7514      5095.8329      5594.341      -1996.9628     -20.909717      778.3937     
 135794000   257.87018     -417.04145     -330.67736     -417.03957      0              3930.4785      30.944         21.33497       32.557416      21494.058      4822.4593      4658.2048      2310.7714      1559.0675     -10.517194      910.51889    
 135796000   249.82477     -414.13907     -330.4695      -414.13758      0              6281.1041      30.944         21.33497       32.571093      21503.087      7489.5212      6195.2823      5158.5087      1316.5772     -1739.7628      786.2117     
 135798000   248.64133     -414.97111     -331.69789     -414.96954      0              6590.5213      30.944         21.33497       32.545496      21486.189      6913.7299      6868.3548      5989.4793     -5.0089294     -1462.9019      2073.0735    
 135800000   249.80103     -414.18821     -330.52659     -414.1864       0              6199.6654      30.944         21.33497       32.598602      21521.248      6956.3251      4789.0169      6853.6544     -1543.2055     -535.52716      500.09036    
 135802000   256.90141     -414.76737     -328.72774     -414.76643      0              4946.055       30.944         21.33497       32.528674      21475.083      4042.3206      6560.6801      4235.1642     -678.24678     -768.89111     -177.18646    
 135804000   249.3895      -417.46531     -333.94151     -417.46467      0              8804.5923      30.944         21.33497       32.578905      21508.245      6693.0717      10426.669      9294.0361      192.44117      512.39387     -294.9283     
 135806000   248.83656     -416.40497     -333.06637     -416.40399      0              4396.4804      30.944         21.33497       32.724396      21604.296      3784.5633      3933.5517      5471.3264      1772.1317      513.67957      115.05437    
 135808000   259.32443     -416.92403     -330.07289     -416.9221       0              6367.0579      30.944         21.33497       32.622274      21536.877      6907.874       7352.3042      4840.9954     -697.52024      156.35541      876.33668    
 135810000   253.63936     -414.77571     -329.82859     -414.77486      0              5664.9565      30.944         21.33497       32.490005      21449.554      7035.66        5676.0229      4283.1867      869.07302     -1287.7103      456.48928    
 135812000   255.00835     -414.10848     -328.70286     -414.10683      0              6432.5348      30.944         21.33497       32.468133      21435.115      6668.852       5733.1398      6895.6125      40.47865      -190.56092     -717.04169    
 135814000   251.90947     -412.42299     -328.05523     -412.42239      0              6767.6985      30.944         21.33497       32.414706      21399.842      6962.8865      6310.271       7029.9381     -134.30865      1298.5703      475.15059    
 135816000   254.35079     -415.44403     -330.25864     -415.44224      0              7163.249       30.944         21.33497       32.564877      21498.984      7962.7209      7706.5704      5820.4559      1075.2557     -114.39373     -1039.4909    
 135818000   253.44207     -413.98289     -329.10184     -413.98108      0              6591.5988      30.944         21.33497       32.428751      21409.115      6867.6525      4771.7778      8135.366       435.22735      31.41588       702.20819    
 135820000   257.00888     -416.05065     -329.97503     -416.09271      0              7415.8647      30.944         21.33497       32.45103       21423.823      7531.7666      7145.0767      7570.7507      1628.0157     -507.18954      425.75258    
 135822000   247.12372     -415.62184     -332.85689     -415.62088      0              3768.6224      30.944         21.33497       32.48371       21445.398      3059.0546      4758.8873      3487.9254     -1893.2768      1886.7547     -751.71097    
 135824000   251.96389     -417.81626     -333.43027     -417.81451      0              5230.3756      30.944         21.33497       32.427024      21407.974      5939.5735      5667.1517      4084.4015     -438.47392     -1090.2518      996.82432    
 135826000   251.98577     -412.93478     -328.54146     -412.9329       0              7285.7462      30.944         21.33497       32.343833      21353.053      7926.8306      7953.689       5976.719      -328.99447      868.27966      262.92445    
 135828000   252.81915     -415.56221     -330.88978     -415.56065      0              6766.7995      30.944         21.33497       32.417066      21401.401      8054.8705      6225.1895      6020.3385      1221.0628      321.66995      667.69888    
 135830000   254.69099     -416.30048     -331.00115     -416.33167      0              8632.9047      30.944         21.33497       32.402219      21391.599      8688.5366      8748.7849      8461.3926     -195.52451     -756.82286     -1684.1685    
 135832000   254.62514     -413.63585     -328.35857     -413.63625      0              5506.8939      30.944         21.33497       32.317281      21335.523      4921.1389      5617.0616      5982.4812      1135.2801      1216.7037     -1469.5363    
 135834000   258.58403     -414.4579      -327.85474     -414.45601      0              7276.1053      30.944         21.33497       32.359033      21363.088      6227.9051      8794.2601      6806.1507     -985.95562      1058.1931     -1257.6223    
 135836000   256.11665     -415.56918     -329.79237     -415.56734      0              6145.4131      30.944         21.33497       32.450933      21423.759      4354.7992      7783.8588      6297.5814      22.121826      1186.6124     -1214.0145    
 135838000   261.98849     -415.53927     -327.79591     -415.53775      0              7467.5263      30.944         21.33497       32.528463      21474.944      9882.2292      6020.8349      6499.5147     -452.28851     -60.750643     -361.67369    
 135840000   254.09381     -414.50866     -329.40933     -414.50782      0              5411.9568      30.944         21.33497       32.519929      21469.309      5490.8176      5986.871       4758.1817     -132.34821      1247.5751      1057.8425    
 135842000   257.31094     -417.32275     -331.14596     -417.32213      0              6707.3225      30.944         21.33497       32.507428      21461.057      6533.3903      6715.7564      6872.8209     -362.12716     -470.84057      559.37015    
 135844000   263.39534     -416.28906     -328.07453     -416.28823      0              4819.9892      30.944         21.33497       32.582843      21510.845      4364.5422      6316.6799      3778.7455     -270.12412     -1191.477      -760.97629    
 135846000   257.02866     -415.39456     -329.31231     -415.39317      0              4997.3882      30.944         21.33497       32.532933      21477.895      4013.0843      6163.4872      4815.593      -1191.2347      2185.2634      1440.8024    
 135848000   256.8399      -416.48289     -330.46386     -416.48224      0              7270.6398      30.944         21.33497       32.642895      21550.491      6741.1298      7618.5769      7452.2126      547.54708     -1178.0864      679.25499    
 135850000   257.61949     -415.10225     -328.82213     -415.10074      0              6569.0322      30.944         21.33497       32.70182       21589.392      7460.0094      6374.942       5872.1451     -248.02103      99.196403      2507.2109    
 135852000   249.89537     -415.12994     -331.43672     -415.12933      0              5178.0869      30.944         21.33497       32.520373      21469.603      4673.2228      5791.2867      5069.7513     -479.19131      2212.4058      1217.5574    
 135854000   251.80655     -418.46357     -334.13027     -418.4714       0              5713.7287      30.944         21.33497       32.56424       21498.563      4554.6474      7178.0234      5408.5154      1388.3331      406.97968      380.55907    
 135856000   254.56625     -415.39561     -330.13805     -415.39358      0              4927.2766      30.944         21.33497       32.329502      21343.592      5168.357       6699.5122      2913.9605      1352.7805     -899.99406      23.735112    
 135858000   256.08234     -414.65536     -328.89005     -414.65443      0              5702.0127      30.944         21.33497       32.494578      21452.573      5583.667       6396.8445      5125.5266     -404.65903      1210.5253      314.87762    
 135860000   247.99755     -414.81304     -331.75543     -414.81184      0              6753.4725      30.944         21.33497       32.404876      21393.353      6362.499       6385.8645      7512.054      -595.51675      81.620012     -177.14615    
 135862000   257.51485     -414.22977     -327.98469     -414.22867      0              6979.8361      30.944         21.33497       32.532362      21477.518      7013.8105      6921.0053      7004.6925     -1657.1528     -1357.2628      314.3459     
 135864000   253.69534     -415.9282      -330.96233     -415.92667      0              4817.0532      30.944         21.33497       32.527309      21474.182      5989.367       4342.1535      4119.6392     -457.37094      231.82463      1344.8872    
 135866000   252.64039     -413.31187     -328.69931     -413.31037      0              4510.882       30.944         21.33497       32.616465      21533.042      5821.0557      4575.31        3136.2802     -1560.6244      130.69048     -962.41487    
 135868000   255.20818     -416.32045     -330.8479      -416.31987      0              4570.7768      30.944         21.33497       32.561924      21497.034      4222.2863      3741.3923      5748.6518     -1049.249       573.55879     -700.2368     
 135870000   257.92805     -419.56735     -333.18388     -419.56669      0              5772.9378      30.944         21.33497       32.429751      21409.775      5892.4034      6594.9064      4831.5035     -1129.9704      1549.5755     -1374.2191    
 135872000   257.21746     -413.58604     -327.44056     -413.58429      0              6634.3131      30.944         21.33497       32.491967      21450.849      6725.32        6738.5699      6439.0494     -32.563901      596.61634     -485.85027    
 135874000   252.73596     -415.24744     -330.60287     -415.24595      0              6180.1342      30.944         21.33497       32.586826      21513.474      5461.5882      6859.482       6219.3324     -1775.0316      2234.2975     -75.801454    
 135876000   263.91746     -415.24778     -326.85838     -415.24711      0              6988.6057      30.944         21.33497       32.430124      21410.021      6246.9793      7201.2612      7517.5766     -742.71421      477.13731      411.48123    
 135878000   257.83098     -417.10118     -330.75023     -417.10045      0              2180.9724      30.944         21.33497       32.575186      21505.79       2577.0277      1855.4417      2110.4477     -750.55075     -1372.6191      713.14418    
 135880000   258.01044     -418.00506     -331.594       -418.00353      0              6070.3966      30.944         21.33497       32.455778      21426.958      7325.1239      6800.381       4085.6848     -823.99425      1286.7692      1225.6572    
 135882000   259.33902     -415.67618     -328.82016     -415.67449      0              6937.8612      30.944         21.33497       32.368037      21369.032      6878.448       8920.3559      5014.7796     -48.667006      576.62592      1393.8862    
 135884000   252.01288     -416.48801     -332.08562     -416.48682      0              7948.8772      30.944         21.33497       32.490052      21449.585      7506.0523      8404.5797      7935.9997     -1917.4533      753.18891      238.36079    
 135886000   257.44725     -415.10436     -328.88193     -415.10341      0              5890.4027      30.944         21.33497       32.361465      21364.694      5186.6415      7240.2904      5244.2762      92.95988       186.23609      927.66723    
 135888000   258.15934     -416.35629     -329.89536     -416.35469      0              9531.8265      30.944         21.33497       32.300416      21324.39       10344.707      9276.9036      8973.8693     -227.2024       385.51672     -1272.9914    
 135890000   253.03686     -412.29011     -327.54477     -412.28868      0              4397.8107      30.944         21.33497       32.513105      21464.804      5248.159       5179.8387      2765.4345      955.01062     -1138.7903      1886.193     
 135892000   258.27983     -417.60279     -331.1015      -417.60172      0              6557.1665      30.944         21.33497       32.488898      21448.823      6027.0133      7801.6716      5842.8145     -241.86599     -2769.934      -609.75561    
 135894000   259.23763     -417.39264     -330.57058     -417.39187      0              6142.5227      30.944         21.33497       32.580224      21509.116      6417.036       6303.9102      5706.6219     -181.02001     -477.76609     -201.34753    
 135896000   256.29644     -417.46866     -331.63164     -417.46719      0              5524.494       30.944         21.33497       32.587307      21513.792      6022.3879      5258.0752      5293.0188      849.68134     -552.64481     -1505.9626    
 135898000   257.85243     -414.38811     -328.02997     -414.3866       0              5071.0455      30.944         21.33497       32.609829      21528.66       4102.4397      5634.7705      5475.9263     -484.53603     -694.44009     -260.94948    
 135900000   255.18521     -419.08431     -333.61945     -419.08228      0              6652.9585      30.944         21.33497       32.333971      21346.542      7567.0517      5157.4936      7234.3303     -143.35959     -1505.083       660.91882    
 135902000   259.85        -417.22343     -330.19627     -417.22169      0              9027.2256      30.944         21.33497       32.18512       21248.272      9456.8649      7867.2515      9757.5604     -10.021678      860.98878     -1338.3612    
 135904000   259.62415     -414.00659     -327.05508     -414.00588      0              8555.3414      30.944         21.33497       32.227224      21276.069      7220.6482      8567.5169      9877.8592      1743.4969     -1737.2798      9.6490883    
 135906000   251.26038     -416.7964      -332.64602     -416.79535      0              6151.5609      30.944         21.33497       32.333238      21346.058      5035.8974      6698.3548      6720.4304      493.48311     -1341.9077      214.38382    
 135908000   250.76816     -418.4105      -334.42497     -418.44593      0              7177.593       30.944         21.33497       32.467494      21434.693      7746.0196      7522.7156      6264.0436      74.120386     -572.11059     -1718.7339    
 135910000   257.53737     -416.96031     -330.70769     -416.95976      0              5713.3194      30.944         21.33497       32.600052      21522.206      5276.7172      6427.092       5436.1491      913.55973     -476.12094     -1271.2786    
 135912000   256.61649     -417.33712     -331.39291     -417.3353       0              6786.3669      30.944         21.33497       32.612412      21530.366      8496.0452      4975.0084      6888.0472      186.49778     -932.42339     -75.763611    
 135914000   248.44815     -416.51938     -333.31086     -416.51793      0              5488.497       30.944         21.33497       32.660852      21562.345      4507.9652      6123.7614      5833.7644      181.92962     -281.09234     -1685.3983    
 135916000   253.4962      -416.68281     -331.78363     -416.68154      0              7996.9769      30.944         21.33497       32.585462      21512.573      7234.2103      9489.8202      7266.9003     -255.61709     -600.04128     -678.69512    
 135918000   251.39614     -413.65261     -329.45676     -413.65109      0              7377.4446      30.944         21.33497       32.499842      21456.048      9655.4272      6358.9371      6117.9695     -1140.2622     -498.16238      195.48103    
 135920000   258.73703     -413.51662     -326.86222     -413.51561      0              7437.2386      30.944         21.33497       32.489694      21449.349      7064.9195      8981.5836      6265.2128      650.0755      -1587.673       1217.2534    
 135922000   258.56764     -412.56536     -325.96769     -412.56417      0              8426.9484      30.944         21.33497       32.436691      21414.356      5193.0378      10505.363      9582.4439     -54.586377     -321.75686     -187.5274     
 135924000   253.1695      -414.21672     -329.42695     -414.2151       0              5195.115       30.944         21.33497       32.583361      21511.186      5086.4329      3867.3595      6631.5527      499.37365     -579.71063      1636.5741    
 135926000   259.45834     -415.85498     -328.959       -415.85319      0              4188.5611      30.944         21.33497       32.58035       21509.199      2329.2254      4740.0379      5496.4199     -1454.2124      822.36643      309.14952    
 135928000   267.94324     -415.41352     -325.67584     -415.412        0              6982.8304      30.944         21.33497       32.696747      21586.043      6576.6331      6081.1798      8290.6783      859.21861      2006.5418     -740.98564    
 135930000   258.02383     -414.32732     -327.91177     -414.32663      0              5939.5386      30.944         21.33497       32.542262      21484.054      6054.3891      6545.3079      5218.9188     -1252.0659     -101.36509      1559.2113    
 135932000   259.96946     -414.47179     -327.40462     -414.46993      0              4049.0511      30.944         21.33497       32.617122      21533.475      3392.2785      3471.5572      5283.3176      44.991527      312.43825     -2266.0066    
 135934000   252.83455     -418.38327     -333.70568     -418.38229      0              4580.6871      30.944         21.33497       32.823798      21669.92       5072.8254      5164.1319      3505.1041     -228.4399      -627.64652     -556.53784    
 135936000   243.55812     -415.43686     -333.86607     -415.43632      0              7525.0313      30.944         21.33497       32.513326      21464.95       8340.2103      6482.6342      7752.2494     -584.28151      872.32126      1582.6412    
 135938000   255.12534     -414.7233      -329.27849     -414.72235      0              5580.9467      30.944         21.33497       32.644726      21551.699      6099.2856      5814.6825      4828.8719      676.40553     -939.26557      1143.0972    
 135940000   257.3235      -414.86519     -328.68419     -414.86443      0              8402.774       30.944         21.33497       32.520925      21469.967      9743.9043      7326.383       8138.0347      195.26846      372.6023       2120.0561    
 135942000   257.61625     -415.48308     -329.20404     -415.48281      0              8183.9928      30.944         21.33497       32.380245      21377.092      7657.9353      7350.2963      9543.7467      472.40638     -993.53925      1405.9395    
 135944000   258.51911     -416.06244     -329.48102     -416.06144      0              8349.7303      30.944         21.33497       32.510385      21463.009      9187.1748      5866.7077      9995.3085      890.47849      200.81347     -204.76594    
 135946000   246.5504      -414.98389     -332.41094     -414.98221      0              5466.9716      30.944         21.33497       32.536336      21480.141      5918.328       7212.7568      3269.83        983.80604      892.9946      -282.04876    
 135948000   256.56429     -415.20423     -329.27751     -415.20319      0              5971.7945      30.944         21.33497       32.529055      21475.334      4754.4902      5853.8476      7307.0456      1568.4941      861.94781     -723.23573    
 135950000   254.6889      -415.91987     -330.62124     -415.91828      0              5142.7609      30.944         21.33497       32.550192      21489.289      3333.0604      5930.279       6164.9431     -319.01266      1715.9597      1554.2864    
 135952000   252.24657     -415.65483     -331.17417     -415.65312      0              3707.8623      30.944         21.33497       32.485328      21446.466      3669.3103      2292.0656      5162.211       334.33133      144.12249      1156.9469    
 135954000   251.56282     -413.72658     -329.47491     -413.72478      0              7781.0105      30.944         21.33497       32.362104      21365.115      7907.3217      7049.1274      8386.5825      853.34306      180.99061     -1059.5027    
 135956000   254.13599     -415.74847     -330.63501     -415.74643      0              4156.9096      30.944         21.33497       32.488592      21448.621      1436.9063      4072.7875      6961.0351      891.08724      1110.524       265.10192    
 135958000   253.16598     -413.35534     -328.56675     -413.35386      0              5444.288       30.944         21.33497       32.498427      21455.114      3968.2728      6892.6124      5471.9788      1160.9186      401.38656      842.46654    
 135960000   254.65781     -414.96507     -329.67685     -414.96362      0              5845.4274      30.944         21.33497       32.388892      21382.8        5859.6463      6101.5281      5575.1078      1176.497      -2220.1109     -1152.8451    
 135962000   258.77419     -413.04283     -326.37598     -413.04159      0              6796.3753      30.944         21.33497       32.480014      21442.958      6956.3847      5879.7784      7552.963       1098.0342     -884.20773     -6.9763865    
 135964000   259.73136     -415.22256     -328.23514     -415.22083      0              4691.3966      30.944         21.33497       32.582631      21510.705      4101.5627      5017.1582      4955.4688      143.79533     -1671.1849      1896.0135    
 135966000   254.68371     -416.67253     -331.37563     -416.6711       0              7519.6633      30.944         21.33497       32.454166      21425.893      5941.7454      7537.441       9079.8035      710.99622      0.0073029835   1360.1916    
 135968000   257.90297     -415.91464     -329.53957     -415.91376      0              6394.9999      30.944         21.33497       32.483232      21445.083      6983.9409      6016.9078      6184.1511     -1674.5195     -506.84131     -71.197652    
 135970000   254.91188     -415.49088     -330.11757     -415.48888      0              7850.5547      30.944         21.33497       32.400801      21390.662      8338.3769      8518.3477      6694.9394      1098.5489     -2402.2163      80.846307    
 135972000   253.09769     -415.63774     -330.87203     -415.63679      0              5005.6625      30.944         21.33497       32.368659      21369.443      3948.2753      4463.2849      6605.4274      47.324675      1755.2541      286.27789    
 135974000   254.57982     -415.92634     -330.66424     -415.92455      0              5564.5358      30.944         21.33497       32.397087      21388.21       4662.6743      5318.8298      6712.1032      11.371549      707.71562      1008.5695    
 135976000   254.46988     -416.54472     -331.31944     -416.54417      0              4497.4864      30.944         21.33497       32.505331      21459.672      3735.9331      4190.7096      5565.8166     -970.4091       1613.2469     -733.75981    
 135978000   257.48714     -414.75543     -328.51963     -414.75371      0              7217.6108      30.944         21.33497       32.557686      21494.236      7221.0424      6085.4555      8346.3346     -1034.9773     -662.12335     -673.19807    
 135980000   254.82808     -413.43162     -328.08637     -413.42981      0              3796.6848      30.944         21.33497       32.627129      21540.082      3071.9283      920.86832      7397.2579      534.97197     -1633.4851      2351.1389    
 135982000   252.72219     -413.08357     -328.44361     -413.08185      0              7222.0164      30.944         21.33497       32.511065      21463.458      8657.7173      6257.8322      6750.4998      1170.6064     -914.18575     -1133.7857    
 135984000   253.94204     -413.80736     -328.75885     -413.80561      0              6679.2431      30.944         21.33497       32.557397      21494.045      6143.0517      8304.9467      5589.731       170.09334      147.45628     -1068.8371    
 135986000   252.28845     -417.03123     -332.53654     -417.03004      0              6940.84        30.944         21.33497       32.521602      21470.414      6751.8453      7059.9318      7010.7429      735.12273      1270.9413      401.74906    
 135988000   250.2051      -411.37664     -327.57969     -411.37439      0              5834.1323      30.944         21.33497       32.660935      21562.4        5568.0253      6748.8727      5185.4988     -637.78607     -1222.8792      107.80317    
 135990000   249.08381     -412.90074     -329.47933     -412.89928      0              6406.0148      30.944         21.33497       32.73281       21609.851      6674.3738      6581.5343      5962.1364     -231.62344     -476.97381     -419.88808    
 135992000   247.42503     -415.41992     -332.55405     -415.41816      0              5773.0985      30.944         21.33497       32.540247      21482.723      6072.3804      4618.1237      6628.7916      521.09107      981.06683      1810.8432    
 135994000   244.89133     -413.8142      -331.7969      -413.81273      0              7301.2625      30.944         21.33497       32.426098      21407.364      8699.4083      8457.9117      4746.4677     -720.95527      441.18785     -1087.2488    
 135996000   250.09648     -416.87879     -333.11822     -416.877        0              5643.6792      30.944         21.33497       32.540214      21482.701      5050.1421      7026.3817      4854.5139      123.22369      1326.4965     -1586.9076    
 135998000   252.0304      -413.96713     -329.55886     -413.9657       0              4594.5891      30.944         21.33497       32.404309      21392.978      4527.3125      4114.3995      5142.0553     -566.36249     -21.960376     -142.86752    
 136000000   255.88227     -414.53143     -328.83312     -414.53003      0              6814.0895      30.944         21.33497       32.427715      21408.431      7084.5458      6016.9739      7340.7488     -1330.3345     -640.26087      297.98106    
 136002000   258.44831     -415.90696     -329.34925     -415.90598      0              4336.446       30.944         21.33497       32.537645      21481.005      4825.5069      4191.5295      3992.3014     -737.51067      1148.6071      542.75612    
 136004000   260.85266     -418.03901     -330.67605     -418.03744      0              5980.2018      30.944         21.33497       32.437519      21414.904      5856.1658      5587.5967      6496.8429      51.342927      965.59353      873.96139    
 136006000   256.40003     -417.58134     -331.70963     -417.57987      0              5395.0769      30.944         21.33497       32.436622      21414.311      7782.7167      2594.6574      5807.8567      1816.1156     -1251.6866      2156.3962    
 136008000   252.17697     -414.01584     -329.55849     -414.01436      0              5843.6445      30.944         21.33497       32.409643      21396.5        5915.9377      5416.9882      6198.0077      20.11683      -334.94547     -301.07977    
 136010000   251.55957     -415.61632     -331.36574     -415.61539      0              7128.7818      30.944         21.33497       32.521565      21470.389      7731.7636      6583.1433      7071.4386      33.846363     -2186.5173     -163.27824    
 136012000   255.04591     -412.39363     -326.97543     -412.39207      0              3439.4181      30.944         21.33497       32.621609      21536.438      3452.16        3244.9364      3621.1577     -663.79116      583.61178      456.2679     
 136014000   256.92435     -412.50425     -326.45693     -412.50332      0              6284.8295      30.944         21.33497       32.575576      21506.047      6627.8105      7387.9588      4838.7191     -1698.4867      735.12197     -1025.9075    
 136016000   256.66898     -414.13243     -328.17064     -414.13137      0              5260.2334      30.944         21.33497       32.376944      21374.912      6428.2735      6364.1537      2988.2731     -417.10082      1704.1253     -778.95466    
 136018000   253.67583     -411.2669      -326.30755     -411.26598      0              7063.3977      30.944         21.33497       32.505652      21459.884      5936.5836      7412.3617      7841.2478     -752.49974      269.26948      861.40714    
 136020000   257.53126     -414.94528     -328.69471     -414.94346      0              5806.1478      30.944         21.33497       32.464512      21432.724      5618.8739      6052.4973      5747.0723      672.62608     -218.15092      246.5992     
 136022000   248.79609     -411.48073     -328.15568     -411.47978      0              5194.4088      30.944         21.33497       32.534352      21478.832      5614.033       4770.3504      5198.8431      2498.5284      409.21993      347.28991    
 136024000   265.62851     -415.44865     -326.4862      -415.44644      0              6877.1777      30.944         21.33497       32.289641      21317.276      5988.8514      7622.0778      7020.604      -160.45904     -503.20626     -1684.8871    
 136026000   257.47438     -415.6681      -329.43657     -415.66663      0              7533.6409      30.944         21.33497       32.445649      21420.271      7363.5246      7319.4036      7917.9945     -316.46348      1482.7511      1238.0106    
 136028000   250.01439     -418.23486     -334.50178     -418.23357      0              5301.6887      30.944         21.33497       32.655598      21558.877      4517.3355      4767.4065      6620.3241      189.47859     -208.65644     -1893.6077    
 136030000   256.13159     -415.51827     -329.73646     -415.51694      0              3849.19        30.944         21.33497       32.641519      21549.582      3351.0128      4867.6301      3328.9272      835.00128     -366.99188     -1353.8471    
 136032000   251.96531     -415.08085     -330.69438     -415.07914      0              6410.9685      30.944         21.33497       32.58956       21515.279      6304.0894      6275.7701      6653.0462     -89.304231      818.6107      -1137.0891    
 136034000   260.32612     -416.10127     -328.91465     -416.1007       0              6212.8221      30.944         21.33497       32.534786      21479.118      5053.2276      6242.1367      7343.1019     -870.35244      2170.0617      356.28721    
 136036000   252.78621     -418.26951     -333.60812     -418.26776      0              7605.8742      30.944         21.33497       32.678017      21573.678      9362.1741      6551.1851      6904.2634     -1276.3265     -718.92785     -2294.1287    
 136038000   246.79511     -418.44002     -335.78513     -418.43856      0              6026.8253      30.944         21.33497       32.482002      21444.27       5718.9789      6785.715       5575.782       72.866059     -1886.2599     -661.73151    
 136040000   252.55522     -416.82518     -332.24115     -416.82373      0              7572.7147      30.944         21.33497       32.526781      21473.833      7371.9052      8869.6078      6476.6311     -439.30619      289.082        321.75202    
 136042000   252.1305      -416.23363     -331.79184     -416.23228      0              4411.9981      30.944         21.33497       32.534218      21478.743      3022.9576      5223.3694      4989.6675      579.21084     -710.60607     -1670.5987    
 136044000   248.51697     -416.05959     -332.82801     -416.059        0              8356.2324      30.944         21.33497       32.478927      21442.241      7226.9325      9532.1764      8309.5882     -558.77406     -1446.8022     -300.03793    
 136046000   255.33161     -416.43326     -330.91937     -416.43154      0              5074.7508      30.944         21.33497       32.510314      21462.962      5079.7354      5341.8399      4802.6771     -860.60005     -456.48956     -1942.8951    
 136048000   248.9774      -417.62174     -334.23596     -417.62063      0              6714.8413      30.944         21.33497       32.470755      21436.845      6967.538       6979.9401      6197.0458     -1771.6082     -444.94343     -153.73236    
 136050000   253.65589     -416.3809      -331.42823     -416.37983      0              6017.0232      30.944         21.33497       32.568438      21501.335      6938.0234      5314.3845      5798.6617     -1455.2923     -764.1458       242.46172    
 136052000   252.57977     -418.58874     -333.99648     -418.58707      0              5895.5875      30.944         21.33497       32.557609      21494.186      5117.2178      7891.2935      4678.2512     -944.17288      947.10328     -515.45716    
 136054000   255.31251     -414.3817      -328.87421     -414.38097      0              6389.5974      30.944         21.33497       32.40179       21391.315      8139.6773      5600.0003      5429.1145     -694.54846      1216.2135      444.13514    
 136056000   261.36325     -415.70583     -328.17187     -415.70532      0              5318.0722      30.944         21.33497       32.460414      21430.018      4930.7289      4925.6271      6097.8607     -1548.3951      157.67124      152.30121    
 136058000   254.9393      -415.1551      -329.77261     -415.15365      0              6946.6704      30.944         21.33497       32.466578      21434.088      6799.4295      7523.1619      6517.4199      1820.1353     -58.988932     -981.38546    
 136060000   254.57462     -414.04411     -328.78375     -414.04236      0              6182.7091      30.944         21.33497       32.429847      21409.838      7393.6198      5474.3474      5680.1602     -967.44017      1980.0941     -1264.6061    
 136062000   256.37653     -417.07677     -331.21293     -417.07507      0              7431.9504      30.944         21.33497       32.571028      21503.045      7263.8285      7791.1685      7240.8542     -1532.8343      1251.0356     -1659.1089    
 136064000   255.92008     -414.85381     -329.14284     -414.85242      0              3852.1362      30.944         21.33497       32.562607      21497.485      5161.9995      2531.6662      3862.7429     -690.69139      1086.9719      287.12291    
 136066000   248.67495     -414.61816     -331.33368     -414.61642      0              5968.8728      30.944         21.33497       32.514627      21465.809      6537.106       7008.8536      4360.6588     -295.90495     -1043.1693     -587.30331    
 136068000   258.10951     -417.10736     -330.66312     -417.10588      0              5996.4842      30.944         21.33497       32.441406      21417.47       5768.2181      5453.2241      6768.0103     -982.24049      147.06809     -711.09839    
 136070000   262.2643      -414.60848     -326.77275     -414.60746      0              6073.7745      30.944         21.33497       32.227829      21276.469      4255.0758      5608.9442      8357.3035     -479.5005      -375.35564     -783.81801    
 136072000   252.17511     -416.65268     -332.19595     -416.65216      0              6694.9339      30.944         21.33497       32.363204      21365.842      9335.3437      7405.3074      3344.1507      720.68114      50.651737      1699.8496    
 136074000   251.61542     -413.94864     -329.67936     -413.94752      0              6870.9838      30.944         21.33497       32.531242      21476.778      6483.257       8346.9876      5782.707       1577.2398     -312.7883       28.825914    
 136076000   256.12066     -415.85786     -330.07972     -415.85599      0              6329.2412      30.944         21.33497       32.547036      21487.205      5918.7117      5890.8093      7178.2026     -4.1014016      615.78956      1103.6433    
 136078000   253.83646     -416.07068     -331.05755     -416.06932      0              6741.2905      30.944         21.33497       32.593677      21517.997      6919.7658      5763.8772      7540.2286     -1341.645       1561.2436      491.71919    
 136080000   258.27853     -414.95719     -328.45635     -414.95544      0              5703.5261      30.944         21.33497       32.509734      21462.579      5409.2582      6289.269       5412.0511     -725.90375      1263.7239      517.20254    
 136082000   254.00802     -414.81735     -329.74675     -414.81579      0              7555.9801      30.944         21.33497       32.412459      21398.359      8496.7864      5925.2628      8245.8911      872.56028     -771.49136      1052.9249    
 136084000   252.24654     -416.34485     -331.8642      -416.34435      0              7130.8596      30.944         21.33497       32.324158      21340.064      7809.3438      7424.6253      6158.6097      657.93915     -634.91998     -644.06502    
 136086000   251.32455     -416.4554      -332.28354     -416.45476      0              6574.1852      30.944         21.33497       32.482512      21444.607      5895.0139      7702.174       6125.3676      741.84001      731.33436     -106.24859    
 136088000   256.17272     -418.09916     -332.30358     -418.09862      0              5526.6842      30.944         21.33497       32.493885      21452.116      6209.7666      4851.4266      5518.8596     -893.44467      16.132036      68.873403    
 136090000   257.02503     -417.07973     -330.99869     -417.07838      0              4617.1898      30.944         21.33497       32.561461      21496.729      4529.8916      3754.0737      5567.6043      765.19758      884.77465      1257.4761    
 136092000   253.06252     -416.14491     -331.39097     -416.14426      0              8227.5383      30.944         21.33497       32.650541      21555.539      8315.5974      7842.1678      8524.8497      348.15777     -1010.8312      2171.3624    
 136094000   256.12179     -415.51968     -329.74115     -415.51907      0              5938.5456      30.944         21.33497       32.74463       21617.655      5493.7445      6354.5758      5967.3165     -323.89866     -1642.8921      2005.5887    
 136096000   249.73478     -414.71315     -331.07371     -414.71147      0              4675.73        30.944         21.33497       32.705032      21591.512      3228.7865      5572.2693      5226.1343      65.366669      288.15866      1042.4771    
 136098000   258.61861     -416.4537      -329.83896     -416.45323      0              5409.0964      30.944         21.33497       32.524407      21472.266      5503.3877      5816.4115      4907.4899     -295.06298      1722.9563     -253.41772    
 136100000   251.09953     -414.09484     -329.99834     -414.0931       0              4656.1655      30.944         21.33497       32.482855      21444.833      2999.6943      5425.6833      5543.1189      1012.2716      1975.1011      1427.7345    
 136102000   259.81726     -413.11308     -326.09689     -413.11165      0              5570.8258      30.944         21.33497       32.710836      21595.344      4632.0323      5435.9747      6644.4702     -2022.955      -994.056        1860.224     
 136104000   258.66298     -415.55064     -328.92103     -415.55008      0              4651.1376      30.944         21.33497       32.602138      21523.583      3471.8964      6199.0113      4282.5052      841.8332       901.99504      850.52269    
 136106000   248.23756     -414.7522      -331.61421     -414.7509       0              5897.3183      30.944         21.33497       32.526529      21473.667      4819.9981      6789.6099      6082.347      -855.44404      25.670027      577.46373    
 136108000   256.99304     -415.00574     -328.93542     -415.00432      0              5289.9879      30.944         21.33497       32.477904      21441.565      4083.9732      6038.4184      5747.5719     -1807.7154     -1185.1352      1371.4052    
 136110000   258.09525     -415.1564      -328.71694     -415.15582      0              5385.8425      30.944         21.33497       32.526891      21473.906      3812.7975      5708.5298      6636.2002     -902.91191      179.36784      10.755407    
 136112000   262.3386      -416.37878     -328.51816     -416.37736      0              7814.2463      30.944         21.33497       32.657411      21560.074      5146.9311      10785.405      7510.403       515.79915      848.548        1900.1774    
 136114000   254.17266     -416.43943     -331.31369     -416.43897      0              7188.0226      30.944         21.33497       32.554977      21492.448      8559.5182      6330.738       6673.8118      506.63264     -66.077625      585.42693    
 136116000   256.03473     -415.35394     -329.60457     -415.35371      0              5315.6838      30.944         21.33497       32.544914      21485.804      5216.0429      5244.6286      5486.3798      998.60925      1190.6241     -280.34365    
 136118000   250.11227     -413.86987     -330.10401     -413.86847      0              6035.1918      30.944         21.33497       32.768556      21633.45       6117.6789      6759.0458      5228.8508     -626.08791      103.68584     -219.61629    
 136120000   255.24369     -413.56742     -328.08299     -413.56575      0              7362.7998      30.944         21.33497       32.704108      21590.902      8477.2416      8195.7813      5415.3765      522.7329      -1717.1853      503.68472    
 136122000   255.90907     -417.10174     -331.39446     -417.10004      0              6944.0757      30.944         21.33497       32.500938      21456.772      7390.7291      6974.6967      6466.8014      427.91898      453.43487      866.32393    
 136124000   257.62291     -414.7767      -328.49543     -414.7761       0              6896.8489      30.944         21.33497       32.580151      21509.067      7229.2454      7474.1222      5987.1789      996.0517      -958.50082      1756.0682    
 136126000   257.26419     -414.7134      -328.55227     -414.71291      0              5922.658       30.944         21.33497       32.640034      21548.602      4939.5838      6214.7183      6613.672      -3247.1276      2219.3822     -664.53509    
 136128000   257.64766     -415.85195     -329.56239     -415.85029      0              5748.8401      30.944         21.33497       32.329124      21343.342      6477.3424      5211.7871      5557.391      -1297.3398     -510.88542     -241.41021    
 136130000   247.50855     -415.81353     -332.91969     -415.82095      0              5889.7981      30.944         21.33497       32.514314      21465.602      3031.8289      7125.9303      7511.6352     -686.2725       1022.3227      902.83276    
 136132000   255.60411     -415.14875     -329.5436      -415.14702      0              7523.1045      30.944         21.33497       32.608312      21527.659      8476.6044      7502.322       6590.3872      942.90057      293.55372     -579.63617    
 136134000   248.05481     -416.25781     -333.18102     -416.2563       0              6043.3568      30.944         21.33497       32.56803       21501.065      7442.5664      4876.5716      5810.9323     -836.0148      -642.27024      514.55793    
 136136000   257.10275     -414.99279     -328.88572     -414.99192      0              5284.8914      30.944         21.33497       32.56626       21499.897      4030.8864      8114.4069      3709.3809      305.96721      641.11822      2094.3648    
 136138000   260.03617     -413.62401     -326.53451     -413.62288      0              7553.498       30.944         21.33497       32.671936      21569.663      4883.6507      8296.2332      9480.6101      9.097008       787.38839      875.22704    
 136140000   251.75778     -413.37642     -329.05946     -413.37476      0              5756.0902      30.944         21.33497       32.702531      21589.861      4793.6227      6460.7019      6013.9461      514.70848      372.85241     -459.73394    
 136142000   256.24049     -413.74358     -327.9253      -413.7423       0              5336.6037      30.944         21.33497       32.675994      21572.342      4171.9859      4933.0228      6904.8023      684.63612     -565.91552      725.68078    
 136144000   249.6741      -413.96901     -330.3499      -413.96758      0              5174.9623      30.944         21.33497       32.759691      21627.598      5645.5543      5959.5242      3919.8083     -916.1299       611.23636      1733.957     
 136146000   248.70122     -416.11949     -332.82621     -416.11808      0              2712.648       30.944         21.33497       32.694066      21584.273      2862.1918      4523.4995      752.25273      449.92455      857.91884     -147.06938    
 136148000   251.31388     -412.00647     -327.83817     -412.00603      0              4322.6559      30.944         21.33497       32.701354      21589.084      5550.3132      4019.5872      3398.0672      961.97645      2277.0156      487.66166    
 136150000   256.2376      -414.65591     -328.8386      -414.65505      0              7135.1314      30.944         21.33497       32.601805      21523.363      7487.2909      6504.6289      7413.4744      141.80478     -1372.8051      421.35461    
 136152000   250.77511     -416.11293     -332.12507     -416.11154      0              6178.668       30.944         21.33497       32.808753      21659.988      5037.4701      6491.2802      7007.2538      248.70129     -586.79195     -549.123      
 136154000   253.28174     -413.06006     -328.2327      -413.05861      0              3200.2606      30.944         21.33497       32.931178      21740.812      4740.291       2157.1125      2703.3784      152.75635     -220.70369     -897.1715     
 136156000   269.73689     -416.50103     -326.16263     -416.49947      0              4910.6376      30.944         21.33497       32.854459      21690.163      4615.4281      4482.7829      5633.7019     -355.3272      -1949.2986      1989.8085    
 136158000   254.8433      -414.75506     -329.40471     -414.7535       0              5181.0972      30.944         21.33497       32.769529      21634.093      5193.4949      3901.4658      6448.331      -919.45906      1491.1432      294.77234    
 136160000   258.37806     -415.26766     -328.73348     -415.26576      0              5561.3836      30.944         21.33497       32.758129      21626.567      4979.5238      4396.269       7308.3579      974.08268      1747.9181     -304.50018    
 136162000   261.68548     -413.15699     -325.51511     -413.15615      0              5105.9745      30.944         21.33497       32.781193      21641.793      3694.0736      5421.9286      6201.9211      1171.2451      942.82891     -56.525766    
 136164000   253.14504     -414.83386     -330.05229     -414.83207      0              5669.9926      30.944         21.33497       32.769287      21633.933      5341.6624      5039.4358      6628.8796     -901.82524     -1559.6324     -1004.5394    
 136166000   256.17867     -417.03296     -331.23539     -417.03227      0              5369.8078      30.944         21.33497       32.762119      21629.201      4685.7776      7113.3405      4310.3053      92.839842     -559.48403     -644.48312    
 136168000   258.39245     -414.52414     -327.98514     -414.52277      0              4447.6027      30.944         21.33497       32.742337      21616.141      3584.6146      5238.9085      4519.285       212.55297      776.5732       449.63399    
 136170000   256.42358     -415.89381     -330.01421     -415.89216      0              5821.7516      30.944         21.33497       32.630254      21542.145      8839.2947      4125.6443      4500.3158      836.63975     -313.22807     -1014.6948    
 136172000   259.50264     -414.27255     -327.36173     -414.27119      0              7433.0243      30.944         21.33497       32.645926      21552.491      8783.4727      7001.1112      6514.4891     -467.51206     -1404.0624      1799.8387    
 136174000   259.69603     -418.61801     -331.64243     -418.61881      0              5533.7383      30.944         21.33497       32.509671      21462.537      2977.5828      6771.8208      6851.8112     -1149.952       618.22064     -904.57478    
 136176000   256.53941     -415.08873     -329.17033     -415.08811      0              5487.8228      30.944         21.33497       32.509054      21462.13       6621.4444      6756.6887      3085.3354     -825.55061      968.04949     -18.837551    
 136178000   259.58302     -416.16996     -329.23222     -416.1689       0              6119.106       30.944         21.33497       32.427586      21408.345      5396.4694      5473.8311      7487.0176      348.69387     -692.5955       809.34637    
 136180000   264.44836     -414.58518     -326.01798     -414.58439      0              8104.3555      30.944         21.33497       32.533481      21478.256      7975.687       8179.1456      8158.234      -63.350005     -769.69902     -1259.7967    
 136182000   254.25085     -413.00978     -327.85786     -413.00841      0              5559.1656      30.944         21.33497       32.589116      21514.986      6157.1232      3170.4382      7349.9355      559.00384     -1981.7249      359.02245    
 136184000   250.95909     -416.69372     -332.64425     -416.69305      0              7726.5656      30.944         21.33497       32.499088      21455.551      6111.4502      7863.8764      9204.3701     -1154.604      -231.83403      170.40714    
 136186000   255.07569     -414.39304     -328.96487     -414.40867      0              6803.1485      30.944         21.33497       32.656033      21559.164      7837.9891      6532.444       6039.0125     -6.4671004     -1099.9907      611.24828    
 136188000   253.72338     -416.91716     -331.9419      -416.9159       0              6187.9567      30.944         21.33497       32.692283      21583.096      6694.8975      4339.6898      7529.2829      125.99786      102.78998      1220.0571    
 136190000   251.73814     -416.23926     -331.92888     -416.23773      0              6007.768       30.944         21.33497       32.524183      21472.118      3952.2952      6129.5933      7941.4156      9.1389685     -206.50524      254.41126    
 136192000   258.79371     -416.08967     -329.41628     -416.08857      0              7079.195       30.944         21.33497       32.486397      21447.172      8679.6645      5423.0875      7134.8329     -1048.5538     -238.53266     -1085.3523    
 136194000   256.66305     -414.03057     -328.07077     -414.0288       0              6759.4574      30.944         21.33497       32.577366      21507.229      5655.2034      7537.7366      7085.4321     -303.02206     -2497.7831      1143.6468    
 136196000   256.39045     -415.08971     -329.22121     -415.08925      0              6118.5827      30.944         21.33497       32.588514      21514.589      5281.0117      6894.9373      6179.799       133.5432       1695.1628     -582.2258     
 136198000   253.14738     -415.53937     -330.75702     -415.53821      0              5335.8444      30.944         21.33497       32.671948      21569.671      4733.1347      5489.3687      5785.0297      265.94013     -223.19771      545.26051    
 136200000   254.72488     -417.04781     -331.73713     -417.04587      0              6301.6899      30.944         21.33497       32.670505      21568.718      5150.9599      7083.5123      6670.5975     -147.5056      -1736.4043     -538.30799    
 136202000   257.40637     -413.67142     -327.46267     -413.67097      0              7038.5852      30.944         21.33497       32.747128      21619.304      10341.572      3648.7139      7125.4695     -1013.215      -2271.0446      1487.9739    
 136204000   249.39358     -413.83882     -330.31366     -413.83703      0              5391.8659      30.944         21.33497       32.567397      21500.647      4586.2211      6749.9012      4839.4754      1072.0101      860.71112     -349.82893    
 136206000   255.42081     -416.49368     -330.94992     -416.49219      0              5087.3114      30.944         21.33497       32.925373      21736.98       5087.9338      4541.8934      5632.1069     -2284.949      -932.04793      744.34901    
 136208000   256.93109     -413.73114     -327.68157     -413.72922      0              6027.0031      30.944         21.33497       32.757721      21626.297      5889.9217      7451.3507      4739.7369     -1094.2922     -32.015343     -404.93637    
 136210000   249.47885     -412.86258     -329.30886     -412.89166      0              6796.2865      30.944         21.33497       32.719766      21601.24       5078.323       8929.8071      6380.7295     -20.371097     -2376.8171     -1680.4522    
 136212000   256.44851     -416.95432     -331.06637     -416.95341      0              7021.5748      30.944         21.33497       32.697694      21586.668      6163.0597      8085.4325      6816.2323     -751.86813     -934.00039      419.14132    
 136214000   263.91283     -415.52572     -327.13787     -415.52403      0              6571.78        30.944         21.33497       32.707036      21592.835      7632.8522      5345.4575      6737.0304     -1007.5836     -706.54395      241.91505    
 136216000   255.43568     -415.10734     -329.5586      -415.13205      0              8802.4217      30.944         21.33497       32.589047      21514.94       8158.7657      8397.7966      9850.7027      1900.2696     -110.07573      1048.8704    
[...]
 142776000   254.46436     -417.64338     -332.41994     -417.6427       0              8748.4315      30.944         21.33497       32.515518      21466.397      8282.1705      10270.553      7692.5711      9.3835061      1864.0055     -660.77193    
 142778000   251.57934     -415.31523     -331.05803     -415.31729      0              6785.6299      30.944         21.33497       32.415314      21400.244      7663.8277      7645.852       5047.2101     -1272.5861     -296.05803      1254.8229    
 142780000   253.63857     -416.1035      -331.15664     -416.10298      0              8916.0934      30.944         21.33497       32.300795      21324.64       9255.8612      8171.4852      9320.9338      178.95604     -1170.3146      313.74386    
 142782000   253.88707     -414.19649     -329.1664      -414.19756      0              5494.7337      30.944         21.33497       32.396326      21387.708      4095.955       5539.042       6849.2043      408.84226      1306.7995      675.9777     
 142784000   252.42357     -416.12339     -331.58345     -416.12238      0              6224.7371      30.944         21.33497       32.428934      21409.236      7297.9359      4325.9908      7050.2846     -579.8402      -437.18157      921.83287    
 142786000   255.63115     -416.38937     -330.77517     -416.38892      0              6258.4214      30.944         21.33497       32.615505      21532.408      6654.8387      5842.2507      6278.1747     -507.64053      572.2276      -513.64723    
 142788000   252.46537     -417.60296     -333.04901     -417.60241      0              7007.1503      30.944         21.33497       32.625054      21538.712      7029.1765      6644.3926      7347.8818     -524.95154      1203.0371      886.17628    
 142790000   257.38587     -415.86532     -329.66344     -415.86478      0              5721.1307      30.944         21.33497       32.668289      21567.256      8302.0052      4940.9656      3920.4212      1338.0869     -1756.643       181.05055    
 142792000   259.32526     -418.57066     -331.71925     -418.572        0              6462.8053      30.944         21.33497       32.747107      21619.29       6200.3149      8310.6903      4877.4107     -1172.8454     -5.0742126      597.67958    
 142794000   262.76203     -415.044       -327.04157     -415.04303      0              8219.4008      30.944         21.33497       32.525681      21473.107      7763.2817      9862.5991      7032.3216      1084.1092      196.49903     -511.78788    
 142796000   258.77677     -417.09493     -330.42722     -417.09477      0              8466.6815      30.944         21.33497       32.435237      21413.397      6350.0119      9422.7841      9627.2484     -1045.7602      165.71734     -177.24598    
 142798000   254.75514     -420.3122      -334.99139     -420.31433      0              6959.5619      30.944         21.33497       32.410982      21397.384      6433.2826      7340.5154      7104.8878     -577.06671     -143.78605      2836.6439    
 142800000   255.60524     -417.73781     -332.13229     -417.73807      0              7863.28        30.944         21.33497       32.493991      21452.186      8799.2411      9220.976       5569.6231      193.38538      254.47073     -1725.6257    
 142802000   254.90304     -416.44446     -331.07411     -416.44607      0              6599.0639      30.944         21.33497       32.547581      21487.565      6393.8585      7786.5875      5616.7457     -1543.2001      1592.1387     -738.38888    
 142804000   255.30153     -416.4515      -330.94769     -416.451        0              6962.9985      30.944         21.33497       32.56701       21500.392      7957.2569      7011.3571      5920.3816     -1779.7893      1086.2352      698.47334    
 142806000   252.09571     -417.94994     -333.5198      -417.95042      0              6083.0953      30.944         21.33497       32.464035      21432.409      4922.5563      5125.0833      8201.6463      423.5529       953.1431       2151.0049    
 142808000   250.78859     -413.39766     -329.4053      -413.39683      0              7392.2563      30.944         21.33497       32.574673      21505.451      6305.1313      9283.7388      6587.8988      105.80259     -929.74501      249.07168    
 142810000   262.12924     -415.35597     -327.56547     -415.35488      0              5523.4476      30.944         21.33497       32.709329      21594.349      4680.4179      6323.0599      5566.865      -1850.5564      758.73778     -685.23747    
 142812000   260.16933     -415.14807     -328.01397     -415.14753      0              6996.3032      30.944         21.33497       32.630418      21542.253      6373.1833      8515.3536      6100.3726     -356.27982      359.6381      -221.05204    
 142814000   255.38655     -415.35757     -329.82529     -415.35509      0              7188.3638      30.944         21.33497       32.635912      21545.88       6731.9934      6298.8451      8534.2529      1375.1082     -307.70834      1511.0866    
 142816000   262.03345     -414.16073     -326.40231     -414.16018      0              5273.0865      30.944         21.33497       32.669656      21568.158      4073.6473      5532.5486      6213.0636      2003.5608     -926.20656      654.89163    
 142818000   257.27005     -416.95865     -330.79556     -416.95948      0              7195.3209      30.944         21.33497       32.484685      21446.042      6313.2363      7592.08        7680.6465     -130.8548      -425.61068      158.36194    
 142820000   251.94132     -418.47982     -334.10139     -418.48107      0              6057.5387      30.944         21.33497       32.429657      21409.713      6000.3766      5661.2768      6510.9626      839.15772     -536.61236      1078.0234    
 142822000   261.73268     -418.14377     -330.48609     -418.14565      0              6651.9516      30.944         21.33497       32.587911      21514.19       8739.8568      4207.2981      7008.6998     -438.03592      69.617933     -930.25619    
 142824000   251.68198     -416.03617     -331.74459     -416.03356      0              6517.993       30.944         21.33497       32.569659      21502.141      6546.5835      4533.5453      8473.8503      1591.4168     -1258.9036      59.325612    
 142826000   258.90716     -417.04065     -330.32927     -417.03964      0              5439.8816      30.944         21.33497       32.356278      21361.269      5803.8917      4351.521       6164.2321      1141.7731      797.00945      873.40247    
 142828000   257.5342      -415.83233     -329.58076     -415.83195      0              6275.0389      30.944         21.33497       32.470665      21436.786      5410.7182      6509.1689      6905.2296      1207.8913     -361.25415     -1184.4038    
 142830000   265.25971     -417.21389     -328.37496     -417.21435      0              7302.3902      30.944         21.33497       32.385753      21380.728      6764.686       7410.7363      7731.7483      729.60301     -292.80318      913.06543    
 142832000   247.80543     -415.76007     -332.76681     -415.75938      0              5301.9725      30.944         21.33497       32.566091      21499.785      4712.5245      5793.1966      5400.1963     -1626.418       1255.3391     -1320.0499    
 142834000   251.97951     -414.75528     -330.36405     -414.75593      0              6398.3943      30.944         21.33497       32.367638      21368.769      7763.8397      5301.6131      6129.73       -482.00239      1688.0172      88.947392    
 142836000   260.16268     -416.48167     -329.3498      -416.4807       0              7367.2636      30.944         21.33497       32.497432      21454.457      7763.0701      7924.9271      6413.7937     -1794.7367     -301.98304     -424.09317    
 142838000   250.98718     -417.26714     -333.20827     -417.26906      0              5964.0043      30.944         21.33497       32.489283      21449.077      5171.7904      7137.2931      5582.9294      468.73341      936.66485      1454.3451    
 142840000   257.11411     -415.43986     -329.32899     -415.44146      0              7388.1905      30.944         21.33497       32.365194      21367.155      8932.0856      6092.0926      7140.3935     -602.32685      807.01086      221.84008    
 142842000   255.20634     -413.80836     -328.33643     -413.80951      0              5985.9572      30.944         21.33497       32.443334      21418.742      5006.6431      6707.0211      6244.2073      2394.398       248.76608      1154.1152    
 142844000   257.17722     -416.03957     -329.90757     -416.04177      0              6814.7047      30.944         21.33497       32.443324      21418.736      5425.6333      8134.1953      6884.2856      455.30474     -246.52224     -2517.7947    
 142846000   255.88727     -413.6493      -327.94932     -413.64834      0              7092.0897      30.944         21.33497       32.650242      21555.341      7195.7033      8270.5054      5810.0604     -171.96827     -574.80993      879.53653    
 142848000   256.73443     -415.28526     -329.30155     -415.28478      0              7693.3466      30.944         21.33497       32.672125      21569.788      7953.6003      5732.2508      9394.1887      1199.5334      180.95409      185.64303    
 142850000   258.33057     -414.1185      -327.60023     -414.11808      0              3775.7226      30.944         21.33497       32.610351      21529.005      1936.8685      5368.762       4021.5372      459.29796      584.10109      437.57155    
 142852000   256.23855     -414.16887     -328.35124     -414.17071      0              5845.93        30.944         21.33497       32.576671      21506.77       5383.0501      6277.6591      5877.081      -383.9537       1254.4401      826.59172    
 142854000   254.9294      -417.92667     -332.54749     -417.92826      0              6593.0108      30.944         21.33497       32.604929      21525.426      6606.4018      7852.3126      5320.3179      2446.7005      260.47393     -1098.3097    
 142856000   254.02524     -415.89259     -330.81623     -415.89463      0              4295.469       30.944         21.33497       32.680216      21575.129      2559.0836      5920.7485      4406.5748      653.76974      748.04496     -967.11481    
 142858000   254.96972     -414.19463     -328.80195     -414.19654      0              6488.1145      30.944         21.33497       32.520082      21469.411      5527.7824      7344.4371      6592.1239      212.36389     -370.37332      1042.9243    
 142860000   255.98599     -413.58409     -327.85104     -413.58619      0              5703.431       30.944         21.33497       32.581157      21509.731      5543.6075      5935.0474      5631.6383      1053.1012      608.41247     -886.41719    
 142862000   258.55971     -414.03781     -327.4428      -414.05169      0              6221.3387      30.944         21.33497       32.621334      21536.256      5285.0799      6902.8043      6476.1319     -86.447238      911.51538     -281.6038     
 142864000   251.90227     -415.25794     -330.89258     -415.25991      0              7127.3378      30.944         21.33497       32.434802      21413.11       7009.1154      7796.5284      6576.3695     -351.97264      549.79479     -1053.4539    
 142866000   251.4755      -415.93133     -331.7089      -415.93342      0              6654.1601      30.944         21.33497       32.632388      21543.554      7716.5409      5984.0284      6261.9109      752.64115      564.6644      -466.24175    
 142868000   261.30469     -414.47066     -326.95631     -414.47246      0              8026.9458      30.944         21.33497       32.648485      21554.181      7318.2986      10251.747      6510.792      -1399.9107      400.55482     -387.24508    
 142870000   253.91393     -417.31716     -332.27808     -417.31926      0              7629.2584      30.944         21.33497       32.545888      21486.447      7353.196       8583.2455      6951.3336     -732.84649      238.16514     -296.89172    
 142872000   260.43456     -414.5414      -327.31847     -414.54094      0              5013.0405      30.944         21.33497       32.75765       21626.25       4412.1365      5158.4391      5468.5458     -792.93687      15.575455      449.45877    
 142874000   249.18697     -412.79548     -329.33952     -412.80769      0              4344.4646      30.944         21.33497       32.637001      21546.599      4052.4372      5735.6793      3245.2771     -269.6716       270.98663      290.16312    
 142876000   255.19776     -413.00023     -327.53117     -413.00159      0              7171.6302      30.944         21.33497       32.57168       21503.475      6259.3073      6512.3458      8743.2376     -1348.9395      56.193386      518.67435    
 142878000   259.34823     -415.07043     -328.21132     -415.07204      0              4603.1619      30.944         21.33497       32.723599      21603.77       3266.5351      6524.8224      4018.1281      227.46804      585.48502      523.21239    
 142880000   245.24607     -416.00849     -333.87238     -416.0104       0              6686.9598      30.944         21.33497       32.68955       21581.291      7027.0065      5199.2462      7834.6265      153.11244     -1035.3891      1697.6829    
 142882000   251.44074     -415.35447     -331.14369     -415.35797      0              7410.2097      30.944         21.33497       32.551235      21489.978      6617.4442      7551.4259      8061.7591     -467.93685     -53.928944     -470.46733    
 142884000   247.42764     -413.19242     -330.32568     -413.19292      0              5996.2614      30.944         21.33497       32.58013       21509.053      5861.5598      7514.8254      4612.3989      1047.3147      745.849        1399.8319    
 142886000   258.80663     -416.61368     -329.93597     -416.62343      0              6673.3734      30.944         21.33497       32.502404      21457.74       5080.5564      7162.4999      7777.064       1160.5727      452.90589      1502.1609    
 142888000   250.9437      -414.36389     -330.31957     -414.36344      0              6158.0851      30.944         21.33497       32.721348      21602.284      5063.6273      6259.1173      7151.5108      322.05151     -883.96816      780.84753    
 142890000   248.03667     -414.09329     -331.02258     -414.09471      0              5029.5503      30.944         21.33497       32.701344      21589.078      3870.3177      4798.9892      6419.3439      495.35449      159.62852      1216.1993    
 142892000   248.0147      -417.43411     -334.37076     -417.43632      0              5728.1235      30.944         21.33497       32.618148      21534.152      6730.4355      4364.0424      6089.8926      1100.6306     -481.09024      748.08246    
 142894000   253.73815     -417.64421     -332.664       -417.64634      0              4707.4473      30.944         21.33497       32.799858      21654.116      4819.8379      7922.7582      1379.7458      166.98849      605.87167     -656.83796    
 142896000   254.02595     -415.55666     -330.48006     -415.55724      0              4759.4183      30.944         21.33497       32.742775      21616.43       3935.7981      6869.4453      3473.0114     -257.91257      153.61946      465.62383    
 142898000   253.2793      -415.40949     -330.58295     -415.41139      0              5260.6383      30.944         21.33497       32.646346      21552.768      5186.1752      8706.3512      1889.3885     -824.32579     -267.04961     -975.37717    
 142900000   262.02907     -413.95214     -326.19518     -413.9517       0              7109.4772      30.944         21.33497       32.561856      21496.989      5370.5972      7637.9572      8319.8772      1735.9548     -356.64338      241.27304    
 142902000   255.70647     -416.07328     -330.43385     -416.07319      0              5939.6966      30.944         21.33497       32.518744      21468.527      4865.9053      7029.7232      5923.4612     -676.71953     -2141.2316      177.53759    
 142904000   254.56863     -417.22221     -331.96385     -417.22414      0              6066.5466      30.944         21.33497       32.542858      21484.447      5484.5529      5782.5941      6932.4927      1202.736       945.35414      478.37359    
 142906000   257.42087     -417.45776     -331.24416     -417.45965      0              7553.2189      30.944         21.33497       32.457407      21428.033      7875.5962      7894.1676      6889.893      -761.15532      1982.6235     -589.44339    
 142908000   256.97198     -414.62566     -328.56239     -414.62827      0              9015.3219      30.944         21.33497       32.276638      21308.691      9355.2764      8465.8173      9224.8719     -1130.4034      239.91046      617.19355    
 142910000   260.84941     -413.94185     -326.57998     -413.9439       0              5955.0881      30.944         21.33497       32.472368      21437.91       6776.7462      4383.3889      6705.1293      1290.0679      686.21109      1208.9433    
 142912000   257.41898     -415.96672     -329.75375     -415.96865      0              7017.0566      30.944         21.33497       32.512735      21464.56       6592.751       7788.4702      6669.9487     -204.08612     -341.79943      767.85322    
 142914000   250.57062     -413.43828     -329.51891     -413.43879      0              6967.1271      30.944         21.33497       32.480412      21443.221      7610.6382      5453.8757      7836.8674     -47.380538      430.4183       1736.8089    
 142916000   253.24587     -415.34213     -330.52679     -415.34363      0              7160.4751      30.944         21.33497       32.593232      21517.704      7587.2654      6620.7139      7273.446       834.57051     -328.52333      344.06823    
 142918000   259.54376     -416.57976     -329.65517     -416.58267      0              5816.3555      30.944         21.33497       32.647115      21553.277      5072.3577      6825.0372      5551.6716      961.78807      366.84558      1983.8777    
WARNING: Wall time limit reached (../timer.cpp:193)
Loop time of 85800.2 on 4 procs for 7271000 steps with 2592 atoms

Performance: 3.661 ns/day, 6.556 hours/ns, 84.743 timesteps/s
1418.4% CPU use with 4 MPI tasks x no OpenMP threads

MPI task timing breakdown:
Section |  min time  |  avg time  |  max time  |%varavg| %total
---------------------------------------------------------------
Pair    | 20479      | 20527      | 20582      |  30.1 | 23.92
Bond    | 0.65337    | 0.70548    | 0.76013    |   4.8 |  0.00
Neigh   | 624.89     | 631.32     | 636.8      |  17.1 |  0.74
Comm    | 2346.1     | 2404.2     | 2447.2     |  85.6 |  2.80
Output  | 7755       | 7755       | 7755.1     |   0.0 |  9.04
Modify  | 54460      | 54462      | 54466      |   1.0 | 63.48
Other   |            | 19.89      |            |       |  0.02

Nlocal:            648 ave         659 max         643 min
Histogram: 2 1 0 0 0 0 0 0 0 1
Nghost:           4243 ave        4250 max        4231 min
Histogram: 1 0 0 0 0 1 0 0 0 2
Neighs:              0 ave           0 max           0 min
Histogram: 4 0 0 0 0 0 0 0 0 0
FullNghs:       167863 ave      171535 max      166052 min
Histogram: 2 0 1 0 0 0 0 0 0 1

Total # of neighbors = 671452
Ave neighs/atom = 259.04784
Ave special neighs/atom = 0
Neighbor list builds = 145420
Dangerous builds not checked
unfix 3
unfix 1
unfix 2


# Finalize simulation
write_restart	restart.lmp.${pid}
write_restart	restart.lmp.0
System init for write_restart ...
Generated 0 of 1 mixed pair_coeff terms from geometric mixing rule
write_data	data.final.${pid} nocoeff
write_data	data.final.0 nocoeff
System init for write_data ...
Generated 0 of 1 mixed pair_coeff terms from geometric mixing rule
Total wall time: 23:50:18
