LAMMPS (23 Jun 2022)
include procedure.lmp
echo both
include		in.partitions
variable        pid world 0
include		in.temp
variable	temperature equal 255
variable        tempDamp equal 0.100 # this is 0.1 ps
include		in.pressure
variable        pressure equal 6079.5
variable        pressureDamp equal 1.0 #this is 1ps

variable	barostat string	   tri
variable	direction string   z
variable	direction_x_bool equal 0
variable	direction_y_bool equal 0
variable	direction_z_bool equal 1

include		in.seed
variable        seed world 745823

units           metal
atom_style	full
box tilt large
read_restart 	restart.lmp.${pid}
read_restart 	restart.lmp.0
Reading restart file ...
  restart file = 23 Jun 2022, LAMMPS = 23 Jun 2022
  restoring atom style full from restart
  triclinic box = (0 0 -0.78882496) to (30.944 21.33497 31.76154) with tilt (-9.144178 0.9822034 -10.831872)
WARNING: Triclinic box skew is large (../domain.cpp:224)
  2 by 1 by 2 MPI processor grid
Summary of lammps deepmd module ...
  >>> Info of deepmd-kit:
  installed to:       /u/sigbjobo/software/DEEPMD_FROM_SOURCE/deepmd-kit/install
  source:             v2.1.3
  source branch:       master
  source commit:      5a32c49
  source commit at:   2022-07-01 09:52:58 +0800
  surpport model ver.:1.1 
  build float prec:   double
  build with tf inc:  /u/sigbjobo/software/DEEPMD_FROM_SOURCE/tensorflow/install/include;/u/sigbjobo/software/DEEPMD_FROM_SOURCE/tensorflow/install/include
  build with tf lib:  /u/sigbjobo/software/DEEPMD_FROM_SOURCE/tensorflow/install/lib/libtensorflow_cc.so;/u/sigbjobo/software/DEEPMD_FROM_SOURCE/tensorflow/install/lib/libtensorflow_framework.so
  set tf intra_op_parallelism_threads: 0
  set tf inter_op_parallelism_threads: 0
  >>> Info of lammps module:
  use deepmd-kit at:  /u/sigbjobo/software/DEEPMD_FROM_SOURCE/deepmd-kit/install
  source:             v2.1.3
  source branch:      master
  source commit:      5a32c49
  source commit at:   2022-07-01 09:52:58 +0800
  build float prec:   double
  build with tf inc:  /u/sigbjobo/software/DEEPMD_FROM_SOURCE/tensorflow/install/include;/u/sigbjobo/software/DEEPMD_FROM_SOURCE/tensorflow/install/include
  build with tf lib:  /u/sigbjobo/software/DEEPMD_FROM_SOURCE/tensorflow/install/lib/libtensorflow_cc.so;/u/sigbjobo/software/DEEPMD_FROM_SOURCE/tensorflow/install/lib/libtensorflow_framework.so
  restoring pair style deepmd from restart
  2592 atoms
Finding 1-2 1-3 1-4 neighbors ...
  special bond factors lj:    0        0        0       
  special bond factors coul:  0        0        0       
     0 = max # of 1-2 neighbors
     0 = max # of 1-3 neighbors
     0 = max # of 1-4 neighbors
     1 = max # of special neighbors
  special bonds CPU = 0.000 seconds
  read_restart CPU = 0.041 seconds
include 	in.setup
variable	out_freq equal 2000
variable	out_freq2 equal 2000

timestep        0.0005

neigh_modify    delay 7 every 1

include         in.deepmd
# This is deepMD model

# create groups ###
#group ox type 2
#group hy type 1

mass 2 15.999
mass 1 1.008

pair_style      deepmd ../graph.pb
pair_coeff      * *

bond_style      none
angle_style     none
dihedral_style  none
improper_style  none
neigh_modify exclude none


neighbor        2.0 bin
neigh_modify    every 50 delay 0 check no

thermo          ${out_freq}
thermo          2000
thermo_style 	custom step temp pe etotal epair emol press lx ly lz vol pxx pyy pzz pxy pxz pyz

restart 	${out_freq} restart.lmp.${pid} restart2.lmp.${pid}
restart 	2000 restart.lmp.${pid} restart2.lmp.${pid}
restart 	2000 restart.lmp.0 restart2.lmp.${pid}
restart 	2000 restart.lmp.0 restart2.lmp.0


timer           timeout 23:50:00 every 1000
New timer settings: style=normal  mode=nosync  timeout=23:50:00


# Set number of time steps
variable 	nsteps_wall		equal	 6000000
variable 	nsteps_enhanced_coex    equal	300000000

variable     nsteps_enhanced_coex_upto equal (${nsteps_wall}+${nsteps_enhanced_coex})
variable     nsteps_enhanced_coex_upto equal (6000000+${nsteps_enhanced_coex})
variable     nsteps_enhanced_coex_upto equal (6000000+300000000)


# Set temperature for first step
if "$(step) < 1  " then    "velocity 	all create ${temperature} ${seed} dist gaussian"


# Always run thermo and barostat


######################################
# Run simulation with wall potential #
######################################
if " $(step) < ${nsteps_wall} " then    "fix             3 all plumed plumedfile plumed.equil.dat outfile plumed.equil.out"   "fix             1 all nph ${direction} ${pressure} ${pressure} ${pressureDamp}"   "fix             2 all temp/csvr ${temperature} ${temperature} ${tempDamp} ${seed}"   "run             ${nsteps_wall} upto"
if " $(step) == ${nsteps_wall} " then    "unfix 3"   "unfix 1"   "unfix 2"


############################
# Run enhanced coesistence #
############################
if "$(step) == ${nsteps_wall}" then    "fix             3 all plumed plumedfile plumed.start.dat outfile plumed.out" else    "fix             3 all plumed plumedfile plumed.dat outfile plumed.out"
fix             3 all plumed plumedfile plumed.dat outfile plumed.out

if "$(step) < ${nsteps_enhanced_coex_upto} && $(step) >= ${nsteps_wall} " then    "include         in.dump"    "fix             1 all nph ${direction} ${pressure} ${pressure} ${pressureDamp}"   "fix             2 all temp/csvr ${temperature} ${temperature} ${tempDamp} ${seed}"   "run             ${nsteps_enhanced_coex_upto} upto"    "unfix 3"   "unfix 1"   "unfix 2"
include         in.dump
dump            myDump all atom ${out_freq2} dump.water.${pid}
dump            myDump all atom 2000 dump.water.${pid}
dump            myDump all atom 2000 dump.water.0
dump            myDump2 all dcd ${out_freq2} dump.${pid}.dcd
dump            myDump2 all dcd 2000 dump.${pid}.dcd
dump            myDump2 all dcd 2000 dump.0.dcd
dump_modify     myDump append yes
dump_modify     myDump2 append yes

fix             1 all nph ${direction} ${pressure} ${pressure} ${pressureDamp}
fix             1 all nph z ${pressure} ${pressure} ${pressureDamp}
fix             1 all nph z 6079.5 ${pressure} ${pressureDamp}
fix             1 all nph z 6079.5 6079.5 ${pressureDamp}
fix             1 all nph z 6079.5 6079.5 1
fix             2 all temp/csvr ${temperature} ${temperature} ${tempDamp} ${seed}
fix             2 all temp/csvr 255 ${temperature} ${tempDamp} ${seed}
fix             2 all temp/csvr 255 255 ${tempDamp} ${seed}
fix             2 all temp/csvr 255 255 0.1 ${seed}
fix             2 all temp/csvr 255 255 0.1 745823
run             ${nsteps_enhanced_coex_upto} upto
run             306000000 upto

CITE-CITE-CITE-CITE-CITE-CITE-CITE-CITE-CITE-CITE-CITE-CITE-CITE

Your simulation uses code contributions which should be cited:

- USER-DEEPMD package:

@article{Wang_ComputPhysCommun_2018_v228_p178,
  author = {Wang, Han and Zhang, Linfeng and Han, Jiequn and E, Weinan},
  doi = {10.1016/j.cpc.2018.03.016},
  url = {https://doi.org/10.1016/j.cpc.2018.03.016},
  year = 2018,
  month = {jul},
  publisher = {Elsevier {BV}},
  volume = 228,
  journal = {Comput. Phys. Commun.},
  title = {{DeePMD-kit: A deep learning package for many-body potential energy representation and molecular dynamics}},
  pages = {178--184}
}

CITE-CITE-CITE-CITE-CITE-CITE-CITE-CITE-CITE-CITE-CITE-CITE-CITE

Generated 0 of 1 mixed pair_coeff terms from geometric mixing rule
Neighbor list info ...
  update every 50 steps, delay 0 steps, check no
  max neighbors/atom: 2000, page size: 100000
  master list distance cutoff = 8
  ghost atom cutoff = 8
  binsize = 4, bins = 11 9 9
  1 neighbor lists, perpetual/occasional/extra = 1 0 0
  (1) pair deepmd, perpetual
      attributes: full, newton on
      pair build: full/bin
      stencil: full/bin/3d
      bin: standard
Per MPI rank memory allocation (min/avg/max) = 6.236 | 6.237 | 6.238 Mbytes
   Step          Temp          PotEng         TotEng         E_pair         E_mol          Press            Lx             Ly             Lz           Volume          Pxx            Pyy            Pzz            Pxy            Pxz            Pyz      
 204217000   252.12546     -416.03758     -331.59748     -416.03758      0              8566.9407      30.944         21.33497       32.550365      21489.403      8716.8922      8350.5154      8633.4146     -1718.9062      44.592918     -955.28218    
 204218000   255.79902     -415.31911     -329.64869     -415.38618      0              8698.445       30.944         21.33497       32.878057      21705.742      7134.4743      9831.7169      9129.1438      139.31523     -629.88541     -571.67689    
 204220000   257.97028     -415.3961      -328.99849     -415.40921      0              4259.1503      30.944         21.33497       32.812389      21662.388      4905.2955      4379.3674      3492.7879      1297.907      -424.19523      791.50149    
 204222000   261.41226     -418.60479     -331.05442     -418.61875      0              7753.0075      30.944         21.33497       32.885288      21710.516      8919.6262      7409.6074      6929.7889      1011.0631     -339.07599     -1437.6682    
 204224000   257.04406     -415.38951     -329.3021      -415.46507      0              6222.0685      30.944         21.33497       32.714921      21598.041      7036.0918      5746.2136      5883.9001      73.253541      410.63157     -1496.9062    
 204226000   262.70075     -415.08758     -327.10568     -415.10092      0              5054.5043      30.944         21.33497       32.831117      21674.753      5680.3719      5117.2072      4365.9336      1305.2117     -417.11118     -395.04822    
 204228000   255.2876      -414.01526     -328.51612     -414.0201       0              6511.8827      30.944         21.33497       32.871916      21701.688      5008.8009      6411.6584      8115.1889      194.54987      751.27678     -1713.3959    
 204230000   261.65616     -412.78028     -325.14822     -412.78815      0              6162.5061      30.944         21.33497       32.759311      21627.347      5276.9548      5628.2727      7582.2909     -528.34226      491.59711      666.75779    
 204232000   258.62629     -414.53125     -327.91394     -414.57593      0              5867.7174      30.944         21.33497       32.71546       21598.397      4269.9698      6038.8944      7294.2881     -916.42398      757.05083     -552.54819    
 204234000   254.02161     -413.50323     -328.42808     -413.51766      0              7655.7456      30.944         21.33497       32.509754      21462.592      6668.9709      9454.3887      6843.8772      363.94558     -140.94468      447.58101    
 204236000   255.41786     -416.46894     -330.92617     -416.48093      0              4532.8746      30.944         21.33497       32.753976      21623.825      5009.7663      3850.0437      4738.814       1037.3759      555.911        11.859794    
 204238000   249.71206     -416.15672     -332.5249      -416.1706       0              8164.9355      30.944         21.33497       32.757507      21626.156      7990.2094      7045.8858      9458.7113      1343.0379      69.36519      -167.81412    
 204240000   249.4275      -415.11805     -331.58153     -415.14836      0              5516.9143      30.944         21.33497       32.725647      21605.122      5873.4585      4882.5399      5794.7445      811.06309     -1103.4972      2187.291     
 204242000   264.0828      -413.69198     -325.24721     -413.70354      0              5279.71        30.944         21.33497       32.859117      21693.238      5952.526       3647.6415      6238.9625     -372.12864     -1037.9804      602.96073    
 204244000   261.48644     -414.86663     -327.29141     -414.88036      0              5139.7808      30.944         21.33497       32.659993      21561.779      4176.9006      5666.7022      5575.7396      1084.644       801.20999      695.11402    
 204246000   254.61038     -415.89212     -330.61978     -415.90155      0              6642.5981      30.944         21.33497       32.722714      21603.186      6171.3945      6386.7212      7369.6787      1625.0567      787.00708     -532.93769    
 204248000   261.08431     -414.24931     -326.80877     -414.26513      0              6224.3238      30.944         21.33497       32.792322      21649.141      5591.2376      5721.0093      7360.7245      534.44691     -191.29821     -793.39822    
 204250000   251.26949     -412.24634     -328.09292     -412.25826      0              6322.7602      30.944         21.33497       32.719142      21600.828      7188.2755      7476.5836      4303.4215     -235.32591     -132.3234       1087.6881    
 204252000   253.99312     -416.64698     -331.58138     -416.66557      0              5058.2892      30.944         21.33497       32.546291      21486.714      5537.6498      4821.2395      4815.9782     -769.49837     -224.85421     -1584.0423    
 204254000   255.07377     -416.44858     -331.02104     -416.45592      0              8023.6611      30.944         21.33497       32.477807      21441.501      7627.7304      8114.6885      8328.5643      346.37832      336.60129     -1569.8414    
 204256000   254.79065     -415.6257      -330.29299     -415.64417      0              8038.5239      30.944         21.33497       32.48082       21443.49       8556.5434      7416.0095      8143.019      -1437.8151     -145.82829      373.18261    
 204258000   251.97759     -416.58022     -332.18964     -416.61509      0              6061.5147      30.944         21.33497       32.505464      21459.76       7717.954       6333.3857      4133.2045     -1697.8175      928.05634      645.96167    
 204260000   253.72728     -415.23281     -330.25623     -415.23088      0              6224.7231      30.944         21.33497       32.568426      21501.327      5305.1728      6357.3467      7011.6498      19.779878     -617.09534      888.15234    
 204262000   251.48864     -416.58821     -332.36139     -416.59898      0              4516.483       30.944         21.33497       32.596339      21519.755      1940.606       6096.9641      5511.879       499.43189      295.88852     -309.49242    
 204264000   255.77073     -415.22324     -329.56229     -415.2371       0              6413.4001      30.944         21.33497       32.588319      21514.46       6140.8907      7923.313       5175.9965      1463.1272     -100.89735     -2396.6847    
 204266000   259.94639     -413.42421     -326.36478     -413.43886      0              4897.5497      30.944         21.33497       32.572906      21504.284      5826.6464      4881.7821      3984.2205      130.82607     -205.00956      812.38208    
 204268000   263.7454      -414.78239     -326.45062     -414.82412      0              7934.9618      30.944         21.33497       32.572651      21504.116      11627.641      7193.4253      4983.8189      649.46256      564.44384     -2460.0707    
 204270000   251.54288     -415.62745     -331.38246     -415.63981      0              3408.5829      30.944         21.33497       32.836865      21678.547      4595.747       2514.2196      3115.7819      8.4949057     -866.36515     -227.55792    
 204272000   264.83443     -417.32825     -328.63175     -417.34232      0              6149.352       30.944         21.33497       32.608157      21527.556      5613.555       7321.9276      5512.5734     -874.80889      107.07782      1146.8702    
 204274000   253.63401     -417.30621     -332.36088     -417.33371      0              6617.9325      30.944         21.33497       32.544451      21485.499      8544.2565      6877.5272      4432.0138     -45.935035     -374.86845     -562.08292    
 204276000   255.4428      -416.57455     -331.02343     -416.58586      0              7654.166       30.944         21.33497       32.408306      21395.617      5930.6273      9374.2809      7657.5896     -165.01996      571.26643     -1131.2634    
 204278000   250.49171     -417.80331     -333.91037     -417.81293      0              5867.2513      30.944         21.33497       32.58574       21512.758      7611.2829      5428.8626      4561.6085     -1016.2325     -838.34822     -498.79164    
 204280000   261.81293     -415.40933     -327.72477     -415.4282       0              6608.6975      30.944         21.33497       32.450954      21423.773      6822.7756      5138.5628      7864.754      -863.03639     -102.47512     -473.994      
 204282000   247.42289     -417.96438     -335.09923     -417.98381      0              8571.5796      30.944         21.33497       32.465156      21433.149      8916.6264      8120.535       8677.5776     -633.45357      141.33787      1730.0344    
 204284000   260.32979     -417.44617     -330.25833     -417.47069      0              7086.5941      30.944         21.33497       32.677393      21573.266      5871.6752      8018.7747      7369.3325      1456.7457      1298.6229      811.01328    
 204286000   251.86291     -417.93814     -333.58597     -417.95162      0              6725.0628      30.944         21.33497       32.726211      21605.495      5213.1216      7812.842       7149.2249      1249.8141      349.62903      262.62563    
 204288000   252.71156     -418.52923     -333.89283     -418.54316      0              3843.0506      30.944         21.33497       32.745564      21618.271      4326.3892      4511.8821      2690.8806     -257.70336     -391.25722     -298.88431    
 204290000   250.20757     -415.21308     -331.4153      -415.22716      0              6848.3058      30.944         21.33497       32.632984      21543.947      6605.6064      8500.3962      5438.915       500.72936     -1536.9817      277.03257    
 204292000   255.21746     -414.91676     -329.44111     -414.92933      0              4421.9307      30.944         21.33497       32.677004      21573.009      3251.0776      5294.1558      4720.5588      1311.9183     -209.91067      1349.315     
 204294000   253.60417     -417.6999      -332.76456     -417.71717      0              5512.3149      30.944         21.33497       32.562377      21497.333      5518.7443      6616.0228      4402.1775     -90.843453      478.46939     -491.69316    
 204296000   250.11105     -417.25733     -333.49188     -417.26474      0              5405.8111      30.944         21.33497       32.696305      21585.751      6145.5104      5284.971       4786.9519      52.140615     -1381.5272     -2256.9463    
 204298000   253.20876     -416.40255     -331.59963     -416.41566      0              6713.9477      30.944         21.33497       32.557294      21493.978      5978.5866      6312.6043      7850.652       331.88995     -1586.3009      1135.2353    
 204300000   256.22047     -415.13635     -329.32477     -415.15103      0              3816.8845      30.944         21.33497       32.745356      21618.134      3150.5788      3638.8656      4661.2092     -360.93275      513.8404       205.28095    
 204302000   258.2015      -417.659       -331.18396     -417.66854      0              4746.6043      30.944         21.33497       32.66672       21566.219      6552.62        4968.3804      2718.8125     -114.59545      1042.273      -1276.0602    
 204304000   256.60432     -414.91717     -328.97704     -414.93226      0              5348.4974      30.944         21.33497       32.440613      21416.946      5505.024       5949.0313      4591.437      -654.30671      845.23315      140.96995    
 204306000   248.05526     -416.99939     -333.92245     -417.0335       0              6574.9135      30.944         21.33497       32.524144      21472.092      6766.6071      5191.3645      7766.7689     -1204.2547     -119.77636      284.14183    
 204308000   252.75628     -414.8668      -330.21543     -414.87969      0              6280.7074      30.944         21.33497       32.542772      21484.39       6064.8447      6834.7385      5942.539       529.32665     -824.80947     -235.57262    
 204310000   256.38573     -414.55179     -328.68487     -414.55816      0              6623.8549      30.944         21.33497       32.560093      21495.826      4440.0777      7728.8747      7702.6122      386.71656     -1228.578      -195.75134    
 204312000   250.32558     -415.71026     -331.87296     -415.72221      0              7270.0969      30.944         21.33497       32.471538      21437.362      8015.4889      7910.3446      5884.4573     -1238.797       881.72413      201.34994    
 204314000   243.53211     -413.26799     -331.70591     -413.27672      0              8330.2632      30.944         21.33497       32.580774      21509.479      9879.5048      6025.5913      9085.6935      166.32196      12.908976     -599.51505    
 204316000   254.84667     -416.19697     -330.8455      -416.21039      0              5227.59        30.944         21.33497       32.687089      21579.667      4285.5158      5644.6609      5752.5934     -983.01945     -1366.7009      1190.0699    
 204318000   252.22281     -415.659       -331.18629     -415.67023      0              7562.8948      30.944         21.33497       32.672509      21570.041      6623.0909      8637.7917      7427.8018     -151.85137     -1631.6974     -1229.5462    
 204320000   255.24922     -416.57525     -331.08896     -416.58802      0              5929.1506      30.944         21.33497       32.595226      21519.02       5755.0077      5314.4615      6717.9827     -552.49708      571.7992       1976.3462    
 204322000   252.43489     -414.67507     -330.13134     -414.68109      0              6744.5502      30.944         21.33497       32.483853      21445.493      7377.9136      7137.6526      5718.0844     -1069.7469     -88.87199      -565.02293    
 204324000   256.27972     -414.73834     -328.90692     -414.75218      0              6890.1077      30.944         21.33497       32.531293      21476.812      6098.368       8352.3219      6219.6331     -61.686154      104.11102     -322.82701    
 204326000   255.63009     -413.74321     -328.12936     -413.75361      0              7620.5523      30.944         21.33497       32.567038      21500.41       8850.8901      7695.0707      6315.696       270.19688     -99.135398      852.86698    
 204328000   252.64673     -413.54331     -328.92862     -413.55933      0              7496.3412      30.944         21.33497       32.39045       21383.829      7952.0563      7042.9999      7493.9673      1222.322      -1524.42       -2107.413     
 204330000   254.36498     -414.86156     -329.67142     -414.87743      0              4759.2144      30.944         21.33497       32.432855      21411.824      6716.5721      4945.9634      2615.1076     -944.14198     -545.00545      1197.1755    
 204332000   257.21793     -413.96849     -327.82285     -413.98078      0              5167.9996      30.944         21.33497       32.519031      21468.717      4516.0954      4907.8952      6080.0082     -12.282815     -24.067045      2011.9516    
 204334000   259.98419     -419.06916     -331.99707     -419.0936       0              5839.3212      30.944         21.33497       32.538584      21481.625      4647.7629      7276.1934      5594.0074     -521.55009      1056.9588      1299.863     
 204336000   256.04716     -413.91784     -328.16431     -413.93027      0              5526.4264      30.944         21.33497       32.56486       21498.973      6515.9473      6532.843       3530.4889      879.83709     -175.41714      23.171546    
 204338000   251.7462      -415.09815     -330.78506     -415.11145      0              7053.4211      30.944         21.33497       32.474817      21439.527      9655.2338      7047.3556      4457.6741      331.26926      952.02376     -46.06328     
 204340000   250.42586     -415.94188     -332.071       -415.95204      0              7419.7164      30.944         21.33497       32.46121       21430.544      6763.8866      8852.0532      6643.2095     -833.64729     -394.99048     -1215.3482    
 204342000   260.87348     -414.02723     -326.6573      -414.03893      0              6846.7854      30.944         21.33497       32.500329      21456.37       7039.6938      6386.9769      7113.6854      513.66103      461.11852     -1198.5511    
 204344000   253.71589     -415.17867     -330.20591     -415.18904      0              9209.0519      30.944         21.33497       32.430877      21410.519      8239.7792      9821.0735      9566.3029      868.18476      220.31918      2079.3793    
 204346000   257.18782     -415.11561     -328.98006     -415.12893      0              6527.7688      30.944         21.33497       32.466618      21434.114      6715.7915      6213.095       6654.42        348.37873      862.32375      293.64537    
 204348000   253.99932     -417.75375     -332.68607     -417.77782      0              5293.3703      30.944         21.33497       32.394598      21386.567      5605.1486      5128.9886      5145.9737     -1046.5392     -659.35038      77.601414    
 204350000   259.49991     -414.53893     -327.62903     -414.55269      0              5186.6904      30.944         21.33497       32.626944      21539.96       6316.6905      4457.1649      4786.2157      107.303       -1391.2495      67.926365    
 204352000   255.92031     -416.47927     -330.76822     -416.49312      0              4402.6172      30.944         21.33497       32.651567      21556.216      5840.4063      5594.0685      1773.3767      1286.8893     -1039.4823     -93.896758    
 204354000   254.55237     -413.36577     -328.11287     -413.38232      0              7395.7048      30.944         21.33497       32.475764      21440.152      7046.6107      8113.1724      7027.3311     -584.75995     -1061.5792      243.11854    
 204356000   249.75753     -418.15331     -334.50626     -418.17477      0              4365.6868      30.944         21.33497       32.552033      21490.504      2534.2526      6639.0153      3923.7925      880.84436      995.14972     -1550.6165    
 204358000   253.40185     -414.39535     -329.52776     -414.44179      0              7726.5987      30.944         21.33497       32.551405      21490.09       6185.9547      8511.8664      8481.9749      173.1532       840.29455      741.40278    
 204360000   257.63914     -414.51309     -328.22638     -414.52116      0              5713.7114      30.944         21.33497       32.403035      21392.138      6105.4481      6199.1751      4836.5109      742.92597     -1524.9089     -1692.4458    
 204362000   252.63451     -413.19248     -328.58189     -413.21335      0              7442.9055      30.944         21.33497       32.433531      21412.27       8361.193       6421.8029      7545.7205      1002.4222     -174.45097      1247.0918    
 204364000   250.58602     -413.68709     -329.76256     -413.69882      0              6909.4394      30.944         21.33497       32.482159      21444.374      7656.3614      6697.5258      6374.4309     -2049.3299      875.93723     -248.26587    
 204366000   259.57937     -412.529       -325.59248     -412.54619      0              6285.0673      30.944         21.33497       32.62031       21535.58       5905.6558      6826.6257      6122.9204     -1008.7615      1550.8203      1109.7097    
 204368000   256.15331     -415.86481     -330.07572     -415.87708      0              7852.7905      30.944         21.33497       32.584274      21511.789      6548.9835      10978.96       6030.4276      1234.0365      637.45073      122.95678    
 204370000   251.40953     -415.08355     -330.88322     -415.09784      0              6216.2278      30.944         21.33497       32.568468      21501.355      5962.5271      6730.6422      5955.514      -871.01564      353.43738     -871.54891    
 204372000   253.55134     -414.39896     -329.48131     -414.40678      0              5398.6108      30.944         21.33497       32.618914      21534.659      5153.4924      4907.9811      6134.359       987.7399       446.21929      1074.7835    
 204374000   249.31637     -414.89459     -331.39529     -414.90165      0              7024.2912      30.944         21.33497       32.491374      21450.458      7554.8929      7235.2925      6282.6883     -134.30626      244.14873      2284.7752    
 204376000   255.63106     -415.3403      -329.72612     -415.35381      0              7260.0326      30.944         21.33497       32.541795      21483.745      7082.8576      6102.2551      8594.985      -417.38552      1144.3197      750.06427    
 204378000   255.95954     -417.20032     -331.47613     -417.20184      0              7584.8692      30.944         21.33497       32.535473      21479.572      9244.7308      7544.6563      5965.2205     -1568.8819      267.20672      615.61406    
 204380000   254.20322     -416.85059     -331.71462     -416.85261      0              5033.5041      30.944         21.33497       32.58821       21514.388      5009.1701      4829.43        5261.9123      620.55071      600.77049     -944.94879    
 204382000   259.86018     -415.51097     -328.48041     -415.5204       0              5983.5778      30.944         21.33497       32.642256      21550.069      4587.3924      7673.1672      5690.1738     -389.76152      106.09272      1684.1053    
 204384000   246.45579     -417.02113     -334.47988     -417.02797      0              8387.4505      30.944         21.33497       32.593977      21518.195      9485.7415      7867.4348      7809.1753     -565.65572      123.4053      -892.22701    
 204386000   258.43811     -416.80459     -330.2503      -416.81785      0              6289.7089      30.944         21.33497       32.756134      21625.25       5685.9855      7354.9141      5828.2272     -463.18393      1478.0974     -389.43221    
 204388000   253.50831     -418.62581     -333.72257     -418.63496      0              5387.7326      30.944         21.33497       32.474523      21439.333      8109.7203      3714.3497      4339.1278     -374.74085      649.09337      2272.0803    
 204390000   254.68756     -415.62739     -330.3292      -415.64077      0              5858.2737      30.944         21.33497       32.433988      21412.572      5922.6793      5427.6183      6224.5236      1166.714       1706.4344      569.86953    
 204392000   247.43265     -413.93505     -331.06663     -413.9426       0              6176.1375      30.944         21.33497       32.50743       21461.058      8443.6261      4491.8548      5592.9315     -596.62228     -352.69301      1.1159786    
 204394000   253.36654     -416.74385     -331.88809     -416.75372      0              6093.8765      30.944         21.33497       32.459869      21429.659      5195.1262      6081.3877      7005.1157      1951.9739      1673.7677      857.07137    
 204396000   254.29242     -417.47263     -332.30678     -417.47914      0              3496.2284      30.944         21.33497       32.484477      21445.905      3230.8933      4227.4045      3030.3873     -183.58506      839.32096     -962.07475    
 204398000   253.67092     -417.41694     -332.45925     -417.42821      0              5808.403       30.944         21.33497       32.664148      21564.521      5300.4201      7456.69        4668.099      -790.97655      1799.9522      1734.9432    
 204400000   254.85436     -414.06572     -328.71167     -414.07828      0              6687.1694      30.944         21.33497       32.542558      21484.249      6882.8866      6636.3839      6542.2376     -397.05203      218.54695      380.78618    
 204402000   252.09581     -416.04507     -331.6149      -416.06061      0              6923.2768      30.944         21.33497       32.394742      21386.663      6599.0954      7186.6387      6984.0964     -1289.5531      2144.7209     -198.42732    
 204404000   258.3689      -418.20908     -331.67797     -418.2226       0              6282.6523      30.944         21.33497       32.398079      21388.865      8096.3001      4823.0728      5928.5839      447.65418      1877.4715      246.77611    
 204406000   247.77879     -416.66681     -333.68247     -416.67346      0              5993.0003      30.944         21.33497       32.385864      21380.801      6380.8914      6325.8533      5272.2562      1550.7356     -372.11707     -190.61209    
 204408000   263.44401     -417.18829     -328.95746     -417.20547      0              6803.5043      30.944         21.33497       32.578605      21508.047      7659.756       8200.2658      4550.491      -680.23411      121.34572      1559.6608    
 204410000   256.71914     -416.37419     -330.3956      -416.38827      0              6737.092       30.944         21.33497       32.468673      21435.471      4701.5346      8253.3354      7256.4061      1113.9761     -769.55109     -1278.1718    
 204412000   256.37801     -414.98204     -329.1177      -414.9887       0              4643.0789      30.944         21.33497       32.382714      21378.721      4803.6116      4296.9552      4828.6698     -867.02401      1542.7211     -1074.6997    
 204414000   257.84281     -415.01287     -328.65795     -415.02516      0              7272.6989      30.944         21.33497       32.368454      21369.307      6430.4374      7650.1378      7737.5214      1202.1343      760.41306      286.06452    
 204416000   254.38068     -412.32339     -327.12799     -412.32227      0              5540.6049      30.944         21.33497       32.460348      21429.975      6310.3957      6967.5041      3343.9149     -678.96024      122.07713      1006.8127    
 204418000   256.1255      -414.96949     -329.18972     -414.98021      0              7089.2455      30.944         21.33497       32.580884      21509.552      7809.1284      6542.1561      6916.4521      498.84942     -445.74513      205.49357    
 204420000   246.6613      -418.36985     -335.75977     -418.38459      0              6932.4589      30.944         21.33497       32.588806      21514.781      6278.2627      8073.471       6445.6428      1487.4         110.07675     -2559.7781    
 204422000   248.36806     -416.42932     -333.24762     -416.43805      0              6711.5441      30.944         21.33497       32.468204      21435.161      6060.5372      7492.6888      6581.4063      794.57924     -679.22215      1348.3834    
 204424000   254.53222     -414.02704     -328.78088     -414.03702      0              6757.9415      30.944         21.33497       32.538651      21481.669      7300.5899      6596.7823      6376.4524     -268.1858      -487.20275     -336.88524    
 204426000   259.98082     -417.35274     -330.28178     -417.3614       0              7164.8367      30.944         21.33497       32.662852      21563.666      7992.7111      7475.5622      6026.2367     -537.46263     -410.35352      970.92514    
 204428000   258.25893     -417.63239     -331.13811     -417.63886      0              5543.2701      30.944         21.33497       32.687765      21580.113      4381.4349      7338.1057      4910.2697     -337.1976      -59.746356      335.2535     
 204430000   259.20231     -415.61992     -328.80969     -415.63268      0              5113.6617      30.944         21.33497       32.683121      21577.047      6581.8513      5100.4792      3658.6546     -459.14582      1359.2191      355.58752    
 204432000   247.78484     -418.39835     -335.41198     -418.40928      0              4372.3204      30.944         21.33497       32.625175      21538.792      4953.2025      3598.8485      4564.9102     -1390.3575      1152.0465     -30.91963     
 204434000   255.3468      -413.93127     -328.4123      -413.93972      0              8654.674       30.944         21.33497       32.666225      21565.893      6931.0448      10890.826      8142.1514      1899.0547      1982.8094     -1689.9868    
 204436000   251.87865     -414.97978     -330.62233     -414.97558      0              5631.461       30.944         21.33497       32.81392       21663.399      5068.2112      6019.6769      5806.4949     -1552.6283      979.51353      390.02625    
 204438000   260.53527     -418.5047      -331.24805     -418.52084      0              3504.1212      30.944         21.33497       32.821114      21668.149      3519.2986      1552.077       5440.9879     -2302.901       923.98975      460.13105    
 204440000   258.19092     -415.87341     -329.4019      -415.87719      0              4699.9478      30.944         21.33497       32.794452      21650.547      4607.4177      5251.2355      4241.1903      1078.2467      881.59321     -219.87088    
 204442000   258.42272     -416.29744     -329.7483      -416.31425      0              4063.5992      30.944         21.33497       32.65386       21557.729      3138.1229      4323.207       4729.4678      1329.7471      258.30028     -1440.9205    
 204444000   253.10383     -414.12124     -329.35346     -414.13034      0              4077.9895      30.944         21.33497       32.713618      21597.181      4429.6977      3115.0545      4689.2161     -939.85114      689.3072       798.7966     
 204446000   258.30232     -415.5253      -329.01649     -415.53359      0              6173.08        30.944         21.33497       32.636263      21546.112      7792.6304      6769.3835      3957.2262      486.57806      1731.5004     -71.172253    
 204448000   260.76763     -414.97052     -327.63604     -414.9768       0              7837.3946      30.944         21.33497       32.477522      21441.313      7217.0229      8091.9269      8203.2341     -224.3851      -668.73688      182.25981    
 204450000   256.88422     -414.63639     -328.60251     -414.65411      0              5751.7158      30.944         21.33497       32.455207      21426.581      5124.1882      7271.5349      4859.4242      473.82151      1165.6903      910.37676    
 204452000   255.09641     -417.73602     -332.30091     -417.74996      0              4549.6331      30.944         21.33497       32.347199      21355.275      4192.8088      5497.7283      3958.3623      1476.8206     -795.6703       388.24067    
 204454000   253.04125     -415.73332     -330.9865      -415.76483      0              8205.025       30.944         21.33497       32.636539      21546.294      8691.9658      8932.0024      6991.1067      346.08969      173.14264      1550.332     
 204456000   254.91925     -416.78783     -331.41205     -416.80134      0              6416.9847      30.944         21.33497       32.427029      21407.978      7447.9091      6650.2006      5152.8445      463.63649      669.21266     -1394.8112    
 204458000   258.6813      -415.60809     -328.97234     -415.61994      0              6897.8956      30.944         21.33497       32.380092      21376.99       9428.8152      6477.3089      4787.5626     -98.664438     -924.05838      764.48223    
 204460000   261.49147     -414.85574     -327.27884     -414.87097      0              7167.7739      30.944         21.33497       32.457348      21427.994      7424.8182      7232.0785      6846.4249     -846.87831      437.16601     -962.05264    
 204462000   260.44931     -413.7895      -326.56163     -413.80154      0              6603.7394      30.944         21.33497       32.618724      21534.533      6666.1795      7757.1176      5387.921      -126.57032     -1099.569       1344.5292    
 204464000   257.08348     -414.56913     -328.46852     -414.58142      0              7851.1702      30.944         21.33497       32.779499      21640.675      8399.1332      7781.9204      7372.4569      630.3919      -939.11605      481.31195    
 204466000   257.83903     -417.41919     -331.06553     -417.48578      0              5535.9663      30.944         21.33497       32.648002      21553.862      6433.1717      3992.5095      6182.2177      37.024871     -812.9764       1196.582     
 204468000   257.33736     -413.41531     -327.22968     -413.42334      0              6854.3384      30.944         21.33497       32.67135       21569.276      8382.0872      6338.8108      5842.1174     -572.32487     -2997.6353     -1226.1499    
 204470000   257.729       -416.05722     -329.74042     -416.07566      0              6819.921       30.944         21.33497       32.472475      21437.981      6836.8814      6275.3899      7347.4918     -411.60278      681.21617      605.72409    
 204472000   260.18527     -415.25755     -328.11812     -415.27667      0              7062.3607      30.944         21.33497       32.322392      21338.897      8181.2795      7262.0974      5743.7051      388.98881     -696.29745     -915.85477    
 204474000   258.49288     -416.08624     -329.5136      -416.09863      0              4523.099       30.944         21.33497       32.517283      21467.563      5392.2531      3251.3932      4925.6508      341.82554     -177.82112     -2258.0137    
 204476000   255.12151     -417.35098     -331.90746     -417.36173      0              5204.542       30.944         21.33497       32.483234      21445.084      6121.5884      5647.6103      3844.4273      147.38251     -1447.7024      2004.3862    
 204478000   250.39603     -413.91304     -330.05214     -413.91922      0              6194.9705      30.944         21.33497       32.394504      21386.505      5696.5209      7525.434       5362.9566     -1472.4924      155.05596     -1119.3156    
 204480000   257.83738     -411.03513     -324.68203     -411.07752      0              7796.3691      30.944         21.33497       32.358003      21362.408      7900.2492      8604.1444      6884.7138      223.08025      310.2775      -844.4721     
 204482000   256.75888     -415.0044      -329.0125      -415.01497      0              7204.5707      30.944         21.33497       32.311965      21332.014      7830.4605      7321.573       6461.6786     -1267.0081      551.61528     -580.56799    
 204484000   260.7277      -413.07296     -325.75185     -413.08315      0              5217.7635      30.944         21.33497       32.448882      21422.405      6968.7225      4941.9692      3742.5987     -43.201797     -684.01717     -929.63098    
 204486000   250.43256     -415.70385     -331.83072     -415.71275      0              5659.4428      30.944         21.33497       32.377274      21375.13       6569.0221      6746.4754      3662.8308     -411.2088      -702.48909     -503.3377     
 204488000   247.91949     -415.08144     -332.04997     -415.0933       0              6607.7477      30.944         21.33497       32.496048      21453.543      7052.6774      6693.2173      6077.3485     -436.89393     -173.95548      731.08617    
 204490000   261.93821     -414.8759      -327.14937     -414.88167      0              6106.9588      30.944         21.33497       32.532521      21477.623      7041.6035      7348.8896      3930.3832     -1009.5123      59.440423     -868.27381    
 204492000   255.32918     -413.3501      -327.83703     -413.3544       0              8066.7083      30.944         21.33497       32.439942      21416.503      9645.4501      7649.6919      6904.9828     -1289.6688     -459.15442     -1404.533     
 204494000   249.83764     -412.11538     -328.44149     -412.14067      0              7112.5263      30.944         21.33497       32.28178       21312.086      8159.873       7585.0224      5592.6836     -743.57699     -894.23599     -301.08397    
 204496000   254.75547     -412.07609     -326.75516     -412.08552      0              7012.1849      30.944         21.33497       32.441894      21417.792      6849.3168      8644.8324      5542.4055      581.41407      176.84669      78.797399    
 204498000   251.92555     -414.18952     -329.81637     -414.20186      0              5188.043       30.944         21.33497       32.510427      21463.037      6843.8403      4248.1292      4472.1596     -1449.4066     -972.07413     -1579.4628    
 204500000   252.82588     -412.1221      -327.44741     -412.13485      0              7474.8653      30.944         21.33497       32.514967      21466.034      6762.9083      7584.4051      8077.2825     -311.32808     -665.74149     -948.41353    
 204502000   252.57084     -413.09836     -328.50909     -413.11122      0              5317.5606      30.944         21.33497       32.609889      21528.7        4603.2278      4975.8172      6373.6367      495.43101      730.12209     -71.399732    
 204504000   251.60779     -415.21165     -330.94492     -415.2243       0              5880.3783      30.944         21.33497       32.351558      21358.153      6061.7759      5560.1371      6019.2219     -1379.0693     -297.51054     -711.60787    
 204506000   257.12099     -411.88159     -325.76842     -411.88833      0              6918.7769      30.944         21.33497       32.183459      21247.175      9489.6683      5173.1012      6093.5613     -1057.1129      898.58853     -2092.9932    
 204508000   259.48228     -413.43118     -326.52719     -413.44161      0              6721.9171      30.944         21.33497       32.32602       21341.293      6402.7495      6651.0918      7111.91        200.49781     -288.51782     -1100.7778    
 204510000   253.72814     -415.97735     -331.00048     -415.98556      0              5930.6608      30.944         21.33497       32.367452      21368.646      5437.8669      6293.5132      6060.6023     -1103.0075     -163.20191     -140.30098    
 204512000   257.20454     -412.23839     -326.09724     -412.2423       0              4811.7879      30.944         21.33497       32.606473      21526.445      7013.2434      4878.6581      2543.4623      1550.715      -585.88865     -1369.4097    
 204514000   256.95126     -416.69404     -330.63771     -416.70811      0              6247.6174      30.944         21.33497       32.450258      21423.313      5009.3138      5867.6695      7865.869       582.81683      49.028165      315.75908    
 204516000   250.05902     -414.79952     -331.05149     -414.81694      0              5832.7346      30.944         21.33497       32.525595      21473.05       4043.01        6848.8824      6606.3112      986.25192     -787.30881     -107.42543    
 204518000   251.88055     -412.76691     -328.40883     -412.78548      0              8661.247       30.944         21.33497       32.319136      21336.748      8795.7956      8861.1888      8326.7566     -1167.5048     -1155.932      -956.4363     
 204520000   250.87488     -413.69787     -329.6766      -413.70284      0              5639.4658      30.944         21.33497       32.342844      21352.4        6654.511       5410.3754      4853.511       310.19062     -869.4128       1050.2086    
 204522000   260.49756     -416.01654     -328.77252     -416.01599      0              6130.2326      30.944         21.33497       32.363582      21366.091      4756.2145      7820.6198      5813.8634     -299.41527     -224.07097      229.89966    
 204524000   258.29012     -413.65044     -327.14571     -413.65427      0              8826.3813      30.944         21.33497       32.529539      21475.654      9185.3366      9243.032       8050.7753     -224.73718     -1687.1556     -398.20908    
 204526000   259.78805     -415.98179     -328.97539     -415.99566      0              7033.0595      30.944         21.33497       32.461763      21430.909      7554.652       7115.5245      6429.0018     -642.80274      189.14542     -2009.0056    
 204528000   262.95857     -415.85995     -327.79169     -415.86956      0              5748.5505      30.944         21.33497       32.478179      21441.747      7103.2428      5569.1601      4573.2486      663.9955      -289.62187     -1258.2314    
 204530000   254.94696     -416.18502     -330.79996     -416.19785      0              7122.4359      30.944         21.33497       32.443599      21418.917      6873.8841      9323.0455      5170.3782      1020.7333     -983.34054     -1006.1153    
 204532000   253.40604     -413.73951     -328.87053     -413.73783      0              7357.1647      30.944         21.33497       32.361243      21364.547      7863.6579      7572.6896      6635.1465      171.44283      173.34407     -1765.2691    
 204534000   253.41844     -414.0868      -329.21366     -414.07984      0              5431.5917      30.944         21.33497       32.575978      21506.312      6952.6881      4258.4898      5083.5972     -828.80996     -236.963        674.9298     
 204536000   254.23929     -412.52565     -327.3776      -412.51859      0              6600.7371      30.944         21.33497       32.67832       21573.878      5876.8426      8109.8701      5815.4987     -913.19406      167.51386      1171.0228    
 204538000   257.29915     -415.63394     -329.4611      -415.64677      0              7030.6444      30.944         21.33497       32.48395       21445.556      8104.6029      5921.9378      7065.3924      141.57882      396.52359      732.53641    
 204540000   258.49024     -414.06815     -327.4964      -414.07842      0              7724.554       30.944         21.33497       32.516428      21466.998      10101.982      6818.6912      6252.9887     -1007.7792     -2187.38        1993.8182    
 204542000   263.56797     -414.52143     -326.24908     -414.52641      0              5038.889       30.944         21.33497       32.743452      21616.877      6139.7441      5242.9345      3733.9883     -690.98062      411.80864     -2123.1622    
 204544000   258.02127     -415.91565     -329.50096     -415.91201      0              5368.7201      30.944         21.33497       32.673208      21570.503      4137.3244      6688.4408      5280.3951      869.81097     -108.18399     -193.48229    
 204546000   256.87593     -415.63512     -329.60403     -415.64478      0              4814.3113      30.944         21.33497       32.651195      21555.97       3649.5761      6250.2409      4543.1169      1016.2461      901.73535     -923.4046     
 204548000   255.26392     -415.77121     -330.27999     -415.77823      0              6925.7031      30.944         21.33497       32.548163      21487.949      6277.4803      6724.1056      7775.5234      1022.3743      1694.1787     -815.18228    
 204550000   257.48791     -413.39268     -327.15662     -413.39686      0              6422.7958      30.944         21.33497       32.635225      21545.426      5206.6262      6886.0027      7175.7583      1316.2244     -90.672072      58.011864    
 204552000   253.08492     -418.09283     -333.33139     -418.09639      0              6849.4968      30.944         21.33497       32.546508      21486.857      6323.0939      6216.0191      8009.3775      1377.9516     -420.41241     -1435.7718    
 204554000   250.92889     -412.8981      -328.85874     -412.90899      0              6461.663       30.944         21.33497       32.353328      21359.321      4020.5503      8277.5935      7086.8452      521.7086       476.01804     -763.97037    
 204556000   257.68369     -413.93007     -327.62844     -413.93646      0              6016.3883      30.944         21.33497       32.411288      21397.586      5102.1898      7852.8205      5094.1546      605.74488     -1038.5916     -912.40701    
 204558000   251.8211      -413.19263     -328.85446     -413.20297      0              7845.4831      30.944         21.33497       32.480533      21443.301      7074.1819      8220.9705      8241.297      -109.95624      1144.0456     -41.991863    
 204560000   255.18014     -415.52749     -330.06433     -415.53416      0              5779.2102      30.944         21.33497       32.519532      21469.048      4216.5754      6448.8478      6672.2075      364.09526      679.56571      1212.1621    
 204562000   256.66789     -415.88344     -329.92202     -415.89584      0              6164.6048      30.944         21.33497       32.370614      21370.733      6133.3805      4575.8422      7784.5918     -839.2877       845.33108     -37.649567    
 204564000   247.84389     -413.32304     -330.31689     -413.3329       0              7212.0261      30.944         21.33497       32.264837      21300.901      6239.3482      7718.0984      7678.6318      872.34001      1813.9934     -1802.0477    
 204566000   257.626       -418.54821     -332.2659      -418.5573       0              5682.7955      30.944         21.33497       32.472966      21438.305      8356.1009      4963.4959      3728.7898      449.91853     -1015.8231      390.73915    
 204568000   254.74906     -414.06181     -328.74303     -414.06388      0              7278.7786      30.944         21.33497       32.539305      21482.101      6572.5401      8322.6346      6941.1611      1100.6214      1070.6226      258.92147    
 204570000   249.58696     -416.16175     -332.57183     -416.17336      0              5376.5706      30.944         21.33497       32.603856      21524.717      5386.4144      7789.598       2953.6995      351.14701     -1889.9158     -923.26465    
 204572000   254.58303     -413.80036     -328.53719     -413.80419      0              6381.0779      30.944         21.33497       32.627654      21540.429      7671.1774      6455.6526      5016.4038      1155.3512     -162.75664     -527.30177    
 204574000   258.14679     -415.19358     -328.73685     -415.19136      0              6316.4277      30.944         21.33497       32.539665      21482.339      4828.0831      7771.4824      6349.7177      251.76813     -218.11452     -11.069391    
 204576000   258.91101     -415.28957     -328.57689     -415.29938      0              7099.6995      30.944         21.33497       32.350035      21357.147      7532.652       5986.5562      7779.8902      373.30877      481.70347     -1339.0856    
 204578000   258.51613     -414.87721     -328.29679     -414.95708      0              6575.613       30.944         21.33497       32.26439       21300.605      5306.0042      8881.8343      5539.0006      812.37723      1194.7018      314.15581    
 204580000   257.15162     -414.33351     -328.21008     -414.34438      0              5284.8732      30.944         21.33497       32.371045      21371.018      5632.1083      4050.2513      6172.26        1096.5473     -966.86469     -99.255283    
 204582000   259.16631     -413.63811     -326.83993     -413.64945      0              5220.982       30.944         21.33497       32.374567      21373.343      6594.8109      4197.9748      4870.1604      515.96401     -1293.8762     -1752.6503    
 204584000   252.09489     -415.64587     -331.216       -415.65477      0              4518.8054      30.944         21.33497       32.363723      21366.184      4456.1796      3591.6761      5508.5604     -1514.0795      176.50755     -110.49881    
 204586000   257.52267     -415.33549     -329.08779     -415.34244      0              7616.6455      30.944         21.33497       32.301593      21325.166      8942.5793      6295.3435      7612.0137     -224.44467     -587.82586      404.64235    
 204588000   249.2389      -415.7542      -332.28084     -415.77306      0              6711.6627      30.944         21.33497       32.230873      21278.478      5971.3758      7698.9463      6464.6659      1060.3453      720.41943     -415.17202    
 204590000   247.7611      -418.0203      -335.04188     -418.03589      0              7717.9106      30.944         21.33497       32.285372      21314.458      8057.8092      8196.4421      6899.4807      503.64565     -877.40498      538.31665    
 204592000   257.02928     -415.17898     -329.09653     -415.19309      0              6324.6538      30.944         21.33497       32.380919      21377.537      7568.4942      6665.2671      4740.2002     -1437.5179     -446.82971     -779.46129    
 204594000   248.18651     -414.6707      -331.5498      -414.68521      0              7065.3236      30.944         21.33497       32.390725      21384.01       6595.5819      7183.6268      7416.7622      896.3803      -387.54804     -52.154054    
 204596000   253.43721     -414.32295     -329.44353     -414.33979      0              6131.6886      30.944         21.33497       32.50216       21457.578      5667.1642      5586.8499      7141.0515      1389.9426      948.91204     -188.3134     
 204598000   251.34876     -414.56702     -330.38704     -414.57557      0              5756.9725      30.944         21.33497       32.595282      21519.057      6320.3175      4320.2756      6630.3244      1866.3776      322.72215      77.26618     
 204600000   263.84086     -415.23312     -326.86938     -415.24029      0              4653.8047      30.944         21.33497       32.555728      21492.943      3025.7241      6363.1699      4572.5202     -390.07254      1798.409       66.422237    
 204602000   253.41315     -418.23011     -333.35874     -418.24497      0              5467.9691      30.944         21.33497       32.705308      21591.695      5139.5205      6823.568       4440.8187     -1161.026      -774.91697      894.21443    
 204604000   251.66557     -414.83325     -330.54717     -414.83651      0              5865.576       30.944         21.33497       32.589306      21515.112      6924.1475      5420.6992      5251.8811     -613.81541      213.33143      873.7307     
 204606000   248.8354      -417.01766     -333.67944     -417.03115      0              5326.5607      30.944         21.33497       32.517003      21467.378      6483.9749      4554.802       4940.9053      128.41885      1087.2278     -474.26629    
 204608000   249.63866     -414.21586     -330.60862     -414.22543      0              6092.2114      30.944         21.33497       32.548105      21487.911      5685.9391      6368.7044      6221.9908      1152.6706      533.5843       346.81045    
 204610000   254.77524     -413.94986     -328.62231     -413.95007      0              4662.3599      30.944         21.33497       32.578333      21507.867      3966.447       6402.2421      3618.3907     -359.8788      -289.00124     -491.09913    
 204612000   248.88604     -414.04348     -330.6883      -414.04838      0              5462.6992      30.944         21.33497       32.359077      21363.116      5791.3306      4273.0043      6323.7626     -561.40093      473.44247      1582.7742    
 204614000   252.54385     -417.88783     -333.3076      -417.89364      0              5591.9928      30.944         21.33497       32.52166       21470.452      6350.4592      5810.4522      4615.0669     -250.96248     -51.600348     -7.6909936    
 204616000   251.57182     -419.26622     -335.01154     -419.28279      0              5639.9741      30.944         21.33497       32.25461       21294.149      5573.891       3649.1516      7696.8796     -994.26328     -1334.7485     -88.30343     
 204618000   258.85707     -417.54726     -330.85265     -417.55959      0              6474.3959      30.944         21.33497       32.380819      21377.471      8181.6977      5899.4112      5342.0788     -796.41113      164.23936     -1153.7403    
 204620000   252.16144     -414.97741     -330.52525     -414.99012      0              5681.3614      30.944         21.33497       32.440741      21417.03       5857.9137      4962.1414      6224.0289      1810.8838      2130.7206     -80.096802    
 204622000   251.83407     -415.93461     -331.59209     -415.94731      0              6381.1584      30.944         21.33497       32.4624        21431.329      5761.5078      6068.7874      7313.1802     -1028.0117      132.59269     -542.01105    
 204624000   255.344       -416.25007     -330.73204     -416.25748      0              5003.2578      30.944         21.33497       32.504449      21459.09       6112.5395      4372.9529      4524.281       162.1054       613.96124      288.54848    
 204626000   262.06596     -414.77197     -327.00267     -414.78166      0              5953.4445      30.944         21.33497       32.478952      21442.257      7685.1743      3372.9151      6802.244       767.74642     -52.809348      1514.051     
 204628000   252.41857     -411.32895     -326.79068     -411.34212      0              8420.8508      30.944         21.33497       32.24849       21290.109      8852.8704      6702.6446      9707.0375      1162.2515      283.44129      653.98453    
 204630000   252.00562     -418.65013     -334.25017     -418.6611       0              6346.9423      30.944         21.33497       32.312849      21332.597      7794.1316      5764.18        5482.5153     -167.51721      617.87682     -487.36769    
 204632000   252.59717     -417.22962     -332.63153     -417.24364      0              6998.7452      30.944         21.33497       32.303571      21326.472      6128.7112      7996.9715      6870.5529     -1368.2279     -1266.6292     -308.56286    
 204634000   256.43526     -415.83422     -329.95071     -415.84511      0              7554.0915      30.944         21.33497       32.330414      21344.194      5973.537       8537.7567      8150.981       11.989268     -447.43971      270.02451    
 204636000   260.53022     -416.0331      -328.77814     -416.03602      0              6793.5405      30.944         21.33497       32.444425      21419.463      10728.27       3727.3891      5924.9628     -1410.2007      625.69495     -4.0215676    
 204638000   258.90865     -416.95576     -330.24388     -416.96282      0              7470.0978      30.944         21.33497       32.520151      21469.456      8869.8183      7403.2041      6137.2708      699.46661      57.168521      443.34232    
 204640000   257.26372     -414.66636     -328.50538     -414.69566      0              4867.7698      30.944         21.33497       32.520842      21469.912      5638.5759      4598.3613      4366.3722      843.897       -202.89841      1378.3564    
 204642000   257.48044     -415.7589      -329.52534     -415.76548      0              6246.8525      30.944         21.33497       32.270174      21304.424      8564.0144      5110.2256      5066.3177     -1440.0102     -3396.9567     -2531.1524    
 204644000   252.37254     -417.01485     -332.492       -417.02926      0              9319.4641      30.944         21.33497       32.355586      21360.812      9465.7714      10536.227      7956.3933     -797.46995      1436.9358     -240.79066    
 204646000   256.12151     -416.18928     -330.41085     -416.19609      0              5223.4527      30.944         21.33497       32.4731        21438.394      4752.8871      5919.2436      4998.2274      189.24828     -252.03694     -103.00739    
 204648000   255.17056     -417.23258     -331.77263     -417.23541      0              6438.8528      30.944         21.33497       32.702303      21589.711      6763.9916      6569.4743      5983.0925      32.812114     -699.73379      1008.0311    
 204650000   257.82672     -417.17637     -330.82684     -417.18456      0              5908.4783      30.944         21.33497       32.347798      21355.671      5506.6832      5904.3373      6314.4146     -294.97109     -592.8427      -2177.9788    
 204652000   252.4396      -417.88548     -333.34017     -417.89299      0              5800.9716      30.944         21.33497       32.446549      21420.865      7489.3644      5921.6813      3991.8691     -1609.3608      1238.0069     -447.29626    
 204654000   252.94511     -417.44775     -332.73313     -417.44649      0              6757.2124      30.944         21.33497       32.553206      21491.279      7423.8858      7935.5955      4912.156      -847.51384      1490.194       331.19937    
 204656000   255.77759     -413.76348     -328.10023     -413.76026      0              5717.7651      30.944         21.33497       32.61178       21529.949      6968.4653      5563.4543      4621.3757     -1965.0831      1045.0069      965.33475    
 204658000   254.75197     -420.15502     -334.83526     -420.16697      0              5886.9248      30.944         21.33497       32.430689      21410.394      6208.6135      5709.5807      5742.58       -767.25925      963.03767      211.95038    
 204660000   252.80903     -414.57554     -329.9065      -414.5802       0              6453.7928      30.944         21.33497       32.317452      21335.637      6502.9173      6234.3303      6624.131      -444.62763      1570.7104      859.44682    
 204662000   252.96637     -416.76093     -332.0392      -416.76826      0              6624.6911      30.944         21.33497       32.246289      21288.655      8115.5003      6397.6854      5360.8877     -1491.926      -190.25141     -775.34893    
 204664000   254.42492     -414.38045     -329.17023     -414.37654      0              7216.9914      30.944         21.33497       32.40894       21396.036      7547.2356      6203.9291      7899.8094      1277.392      -560.75642      1005.8635    
 204666000   248.89283     -415.81701     -332.45956     -415.82129      0              6324.8194      30.944         21.33497       32.584343      21511.835      6310.7279      5071.1473      7592.5831     -1157.1256     -554.75225      25.472781    
 204668000   249.54947     -417.37813     -333.80076     -417.37893      0              5773.86        30.944         21.33497       32.566485      21500.046      7792.0493      4789.2691      4740.2614     -96.423542     -1106.0492     -299.26157    
 204670000   256.72543     -417.05988     -331.07919     -417.0649       0              5836.6362      30.944         21.33497       32.524724      21472.475      4021.6939      7649.9014      5838.3134     -58.725753      923.18106     -73.591245    
 204672000   255.97638     -413.10136     -327.37154     -413.09353      0              6188.4358      30.944         21.33497       32.584337      21511.831      4916.5125      7451.0454      6197.7495     -114.79488     -469.94743     -896.9652     
 204674000   249.55006     -416.00548     -332.42791     -416.00804      0              5515.7371      30.944         21.33497       32.572504      21504.019      5147.5322      7988.0566      3411.6224      941.33465      347.52227      1127.4325    
 204676000   252.76526     -415.56093     -330.90655     -415.55548      0              6230.1226      30.944         21.33497       32.508727      21461.914      5646.8389      7261.3164      5782.2126     -201.84722     -1098.4384     -950.1584     
 204678000   254.88316     -413.87017     -328.50648     -413.87368      0              7200.5532      30.944         21.33497       32.497547      21454.533      6910.3098      7361.4671      7329.8826     -374.00196     -581.4124       129.53559    
 204680000   257.42958     -414.44222     -328.2257      -414.4477       0              4916.4974      30.944         21.33497       32.626643      21539.761      2942.7274      6798.6168      5008.1481      442.0855       339.00181      523.86009    
 204682000   255.27067     -414.3855      -328.89203     -414.38664      0              5984.1287      30.944         21.33497       32.413601      21399.113      4830.2506      6178.4225      6943.7131      113.97767      1160.9156     -777.1321     
 204684000   258.81285     -411.85944     -325.17965     -411.86159      0              5819.9955      30.944         21.33497       32.422087      21404.715      5040.4292      7415.0717      5004.4856     -990.98579     -1020.7321     -484.23499    
 204686000   251.62438     -412.73786     -328.46557     -412.73991      0              7743.4061      30.944         21.33497       32.37732       21375.161      9163.6735      6654.0437      7412.5011      106.43727     -1035.5581      1016.9387    
 204688000   256.75067     -414.43075     -328.4416      -414.44262      0              7122.131       30.944         21.33497       32.409638      21396.496      6903.9962      8001.1498      6461.2472      1101.5976     -938.6372      -381.88653    
 204690000   252.58385     -413.90322     -329.3096      -413.89709      0              6731.4223      30.944         21.33497       32.465672      21433.489      6458.0333      6585.6346      7150.5989      80.287919     -1638.7146      105.73914    
 204692000   255.56974     -415.11985     -329.52621     -415.10911      0              5779.1679      30.944         21.33497       32.532848      21477.839      6851.1192      5857.6491      4628.7354     -111.38146     -1007.2294     -1184.1444    
 204694000   252.82784     -412.97333     -328.298       -412.96723      0              5662.3175      30.944         21.33497       32.55529       21492.655      5460.7022      5935.5737      5590.6766     -901.14489     -116.91744      397.07006    
 204696000   251.29659     -414.36141     -330.1989      -414.38861      0              5515.3813      30.944         21.33497       32.498173      21454.947      5497.7958      4479.4217      6568.9266      2403.0382     -1164.4424      129.40892    
 204698000   250.91349     -415.38277     -331.34857     -415.3873       0              7095.9172      30.944         21.33497       32.401895      21391.385      5812.1946      7770.2616      7705.2955      294.25525      1419.8144      164.08183    
 204700000   259.32495     -417.94172     -331.09041     -417.95095      0              5189.9292      30.944         21.33497       32.470089      21436.406      4974.2886      4915.8799      5679.6191      1150.9136     -1134.5578      122.7994     
 204702000   261.02617     -413.64303     -326.22196     -413.64341      0              5332.6004      30.944         21.33497       32.550674      21489.607      5347.7218      5210.4736      5439.6058      448.41419     -459.43958      581.82235    
 204704000   251.75967     -414.36961     -330.05201     -414.37377      0              5179.8913      30.944         21.33497       32.550771      21489.671      5438.3179      6860.0673      3241.2889      697.62617      36.60816      -1470.2696    
 204706000   258.62971     -414.92988     -328.31142     -414.92777      0              5785.4698      30.944         21.33497       32.381018      21377.602      4918.2312      5117.7661      7320.4123     -581.93397     -307.61798     -324.91654    
 204708000   257.69416     -411.88913     -325.584       -411.87853      0              7876.0691      30.944         21.33497       32.423929      21405.931      6484.3599      7939.9736      9203.8739      1550.5253     -2015.3075      616.63988    
 204710000   252.66048     -415.59742     -330.97813     -415.6008       0              6032.1861      30.944         21.33497       32.366248      21367.851      5388.1214      5051.7853      7656.6517      69.50329       239.79678      613.54838    
 204712000   248.7488      -411.69041     -328.38119     -411.68295      0              5557.1075      30.944         21.33497       32.378573      21375.988      7802.2501      4457.6717      4411.4007     -1754.55       -250.5579      -428.10301    
 204714000   245.58634     -414.75288     -332.50281     -414.74058      0              5985.479       30.944         21.33497       32.552636      21490.903      5900.5501      5849.6899      6206.1969     -487.59359     -1850.5446      560.75109    
 204716000   258.4841      -413.58597     -327.01628     -413.5813       0              6215.9859      30.944         21.33497       32.507949      21461.401      9184.4861      3643.3465      5820.1249     -1173.8466     -754.08287      1196.9051    
 204718000   254.98914     -410.98675     -325.58756     -410.98127      0              6450.0181      30.944         21.33497       32.563512      21498.082      6960.6865      6514.6626      5874.7052     -2314.672      -1597.2734      1364.5864    
 204720000   256.36565     -415.53015     -329.66995     -415.52361      0              4612.8891      30.944         21.33497       32.393403      21385.778      4595.8453      2692.4775      6550.3447     -228.80957     -1404.1553     -471.1585     
 204722000   253.90148     -414.37621     -329.3413      -414.37074      0              5709.2973      30.944         21.33497       32.574954      21505.637      5478.2892      6827.9574      4821.6454      224.13558     -1033.7398     -410.59656    
 204724000   254.96043     -416.08302     -330.69345     -416.07659      0              5876.8416      30.944         21.33497       32.460964      21430.381      7115.0552      4919.727       5595.7427     -96.516031     -1279.9219      437.06324    
 204726000   262.64227     -415.00748     -327.04516     -415.00062      0              6425.7915      30.944         21.33497       32.463412      21431.998      6520.2724      5600.2604      7156.8416      386.11525      1154.3384     -549.25703    
 204728000   255.00568     -415.35401     -329.94929     -415.35123      0              6046.3813      30.944         21.33497       32.356833      21361.635      7211.8932      6374.1         4553.1505      113.96022     -555.92608     -1856.3086    
 204730000   256.30987     -414.33092     -328.48941     -414.32746      0              7968.2023      30.944         21.33497       32.532871      21477.854      8914.8314      6159.8506      8829.9248     -599.46442     -1260.1587      1026.5717    
 204732000   250.59653     -415.68809     -331.76005     -415.68017      0              5324.4039      30.944         21.33497       32.655281      21558.667      6348.7552      3639.9932      5984.4633      688.3995      -318.00772     -159.31488    
 204734000   263.47283     -416.08888     -327.8484      -416.08636      0              6765.785       30.944         21.33497       32.498801      21455.361      6221.7417      6514.173       7561.4404      19.450375     -1226.3537     -1624.2494    
 204736000   257.45607     -415.65492     -329.42953     -415.65175      0              6861.9815      30.944         21.33497       32.411633      21397.813      8167.2967      6417.2826      6001.3651     -185.72947     -478.10188      1515.1915    
 204738000   255.84559     -414.27051     -328.58448     -414.26706      0              5302.9843      30.944         21.33497       32.434693      21413.038      6923.5298      7174.8537      1810.5694      1266.8935     -548.98423     -657.06219    
 204740000   258.86096     -415.69998     -329.00407     -415.69648      0              6964.9109      30.944         21.33497       32.567474      21500.698      7135.3733      7023.5171      6735.8423      656.76697      2239.6554      312.24699    
 204742000   247.97841     -414.49219     -331.44098     -414.48688      0              5225.1404      30.944         21.33497       32.460055      21429.781      5399.6429      4932.9634      5342.8148     -712.60369     -1280.9536     -1596.8673    
 204744000   263.70197     -416.40896     -328.09173     -416.4115       0              7697.0408      30.944         21.33497       32.47409       21439.047      9669.7055      7141.7137      6279.7031      384.27686     -277.58668      639.37044    
 204746000   251.43245     -414.25654     -330.04854     -414.25085      0              7672.2126      30.944         21.33497       32.346629      21354.899      6508.6308      8504.2529      8003.7542      1232.5056      67.308584     -2017.804     
 204748000   255.0692      -414.38251     -328.9565      -414.37973      0              5944.6349      30.944         21.33497       32.296496      21321.802      4706.9355      4612.5256      8514.4437      1048.2464     -1024.945       1424.8745    
 204750000   241.71636     -415.59439     -334.64043     -415.59151      0              8539.4419      30.944         21.33497       32.245752      21288.301      7705.3338      9590.2901      8322.7019      750.54972     -112.39452      59.056294    
 204752000   246.70165     -413.49304     -330.86944     -413.49075      0              6336.0278      30.944         21.33497       32.28808       21316.245      4421.6368      7825.0186      6761.4281      653.98377      975.31086     -817.59021    
 204754000   265.12245     -415.62034     -326.82737     -415.61183      0              5147.1047      30.944         21.33497       32.35429       21359.956      5957.0813      5874.9762      3609.2565      1119.3483      813.82929     -1575.2625    
 204756000   262.76768     -415.32033     -327.31601     -415.32059      0              7232.6138      30.944         21.33497       32.40248       21391.771      6255.8676      8472.0342      6969.9396     -111.98973      598.78343     -166.47073    
 204758000   255.60004     -414.44171     -328.83792     -414.43917      0              5929.0922      30.944         21.33497       32.380715      21377.402      6996.087       5221.615       5569.5745     -854.04806     -313.02283      1084.1542    
 204760000   249.28364     -416.89152     -333.40318     -416.89961      0              5449.4338      30.944         21.33497       32.45889       21429.012      4948.9934      6080.6406      5318.6675     -862.9006       822.25066      610.3502     
 204762000   255.34535     -414.35865     -328.84017     -414.3479       0              6357.8631      30.944         21.33497       32.478977      21442.274      7207.115       6009.5939      5856.8804     -1422.8321     -1282.7452      2033.8458    
 204764000   256.42917     -415.40994     -329.52847     -415.39896      0              6456.9254      30.944         21.33497       32.568517      21501.387      6777.1769      7595.5122      4998.0872     -434.33519     -1247.9467      138.33074    
 204766000   255.56598     -412.79578     -327.2034      -412.78548      0              6292.9163      30.944         21.33497       32.541481      21483.538      7370.2627      6668.6615      4839.8246     -53.228303     -15.906561      7.0908602    
 204768000   249.06849     -413.59547     -330.17918     -413.59081      0              6435.9065      30.944         21.33497       32.630477      21542.292      7257.8387      7142.4336      4907.4473     -1053.2763      1720.3172      556.17996    
 204770000   251.23979     -415.05569     -330.91221     -415.05726      0              5590.2348      30.944         21.33497       32.458908      21429.024      5858.0086      5875.5921      5037.1037     -639.55339      995.66962      971.16383    
 204772000   257.67345     -416.27052     -329.97233     -416.26907      0              6017.6992      30.944         21.33497       32.619521      21535.059      5113.9615      6684.3688      6254.7672      106.71821     -570.55922      99.732435    
 204774000   255.96266     -414.46568     -328.74045     -414.46745      0              5765.0676      30.944         21.33497       32.493288      21451.721      6580.8442      5874.5444      4839.8143     -45.672718     -2604.2116      47.364972    
 204776000   250.17877     -415.61513     -331.827       -415.61784      0              5837.3518      30.944         21.33497       32.474112      21439.062      7814.8256      3987.5387      5709.6912     -1994.3538     -690.54236      1199.1387    
 204778000   262.36889     -416.55336     -328.68259     -416.55309      0              5916.7582      30.944         21.33497       32.606037      21526.157      5931.2235      4927.5972      6891.454      -30.724225      454.01744      1921.5784    
 204780000   263.11232     -414.94173     -326.82198     -414.93695      0              6637.608       30.944         21.33497       32.503049      21458.166      7576.3347      6700.2392      5636.25       -986.8546       380.03472      1076.8334    
 204782000   253.81144     -414.25264     -329.24788     -414.25445      0              7335.8126      30.944         21.33497       32.492815      21451.409      6775.9336      8318.5937      6912.9104     -735.19996      518.1559       494.00317    
 204784000   255.68837     -416.59683     -330.96346     -416.60288      0              7372.1669      30.944         21.33497       32.354607      21360.166      7590.3199      8013.426       6512.7549     -786.69341      452.56306     -822.20875    
[...]
 206660000   258.5621      -413.57178     -326.97597     -413.55863      0              4222.6678      30.944         21.33497       32.497835      21454.723      5958.1727      4457.3741      2252.4567     -726.76994     -1184.864      -607.23351    
 206662000   253.24222     -412.64591     -327.83179     -412.63331      0              5802.9886      30.944         21.33497       32.383927      21379.522      6468.3036      5222.2067      5718.4554      889.6822      -1469.8555     -1898.8957    
 206664000   252.82196     -412.80293     -328.12956     -412.79139      0              6046.2129      30.944         21.33497       32.391461      21384.496      5741.9481      7656.1574      4740.5332      380.91335      664.06421     -561.45389    
 206666000   258.18264     -413.30312     -326.83439     -413.29311      0              6788.1273      30.944         21.33497       32.275208      21307.747      8619.4354      6165.5414      5579.405      -193.80609     -909.8397       629.16026    
 206668000   251.81761     -414.35195     -330.01495     -414.34446      0              5193.8862      30.944         21.33497       32.252335      21292.647      5377.5682      4587.3038      5616.7866     -853.59732      47.783643      1583.1664    
 206670000   253.81678     -412.77096     -327.76441     -412.75811      0              6734.1083      30.944         21.33497       32.412586      21398.443      8794.9172      7875.0881      3532.3195      151.16381      44.960328     -779.76395    
 206672000   255.35502     -415.9701      -330.44838     -415.9666       0              6530.0658      30.944         21.33497       32.390176      21383.648      7687.599       6337.6955      5564.903       186.49414      245.75393     -140.56458    
 206674000   255.17616     -414.76487     -329.30304     -414.75407      0              7205.5798      30.944         21.33497       32.375217      21373.772      7174.5484      8023.794       6418.3971      765.87549     -1131.0688     -871.93379    
 206676000   246.33801     -415.61379     -333.11198     -415.60354      0              6781.7388      30.944         21.33497       32.477582      21441.353      6249.1728      7270.1323      6825.9114     -795.7554       1079.7537     -334.18553    
 206678000   253.48144     -413.9365      -329.04227     -413.92717      0              6139.3323      30.944         21.33497       32.344033      21353.185      5101.3806      6324.2709      6992.3454     -19.574007      346.17756      1853.5566    
 206680000   251.76125     -411.13744     -326.81931     -411.12499      0              6086.4111      30.944         21.33497       32.61422       21531.559      7086.2112      6917.8633      4255.1587      874.38526     -985.5046       236.17684    
 206682000   252.35172     -415.31353     -330.79765     -415.30109      0              7898.3816      30.944         21.33497       32.363061      21365.747      7349.6359      10514.928      5830.581      -986.79745      412.2487      -442.24686    
 206684000   254.5781      -413.82647     -328.56494     -413.81481      0              5783.4279      30.944         21.33497       32.569304      21501.906      4228.6455      6909.7056      6211.9326     -486.31454     -1668.919       845.74807    
 206686000   259.98262     -412.82282     -325.75125     -412.81299      0              6141.1135      30.944         21.33497       32.585307      21512.471      6651.9842      7161.9377      4609.4186     -82.775834      469.134       -374.31907    
 206688000   251.61971     -417.68605     -333.41533     -417.68082      0              5100.3106      30.944         21.33497       32.529248      21475.462      3463.2057      5713.057       6124.669       735.88603      1263.5857     -166.76461    
 206690000   258.4356      -416.21336     -329.65991     -416.20384      0              5544.0568      30.944         21.33497       32.779917      21640.951      5750.5325      6883.614       3998.024       314.39824     -940.66598     -595.43338    
 206692000   250.09551     -413.56572     -329.80547     -413.55425      0              5203.8033      30.944         21.33497       32.7093        21594.33       3528.3544      5737.6876      6345.3679      15.252599      369.2175      -240.48437    
 206694000   252.05379     -415.31096     -330.89486     -415.31241      0              6998.5809      30.944         21.33497       32.58185       21510.189      8206.1629      5494.5034      7295.0764     -2085.6135     -517.15383      234.34923    
 206696000   254.48095     -413.78902     -328.56004     -413.77842      0              5268.2289      30.944         21.33497       32.544112      21485.275      4082.92        7348.8377      4372.9288      10.924057      1649.9604     -1369.1496    
 206698000   254.03086     -414.46639     -329.38814     -414.457        0              6237.1339      30.944         21.33497       32.55154       21490.179      4224.7944      7639.2775      6847.3299     -418.04293      605.7106       968.90826    
 206700000   250.30779     -411.25661     -327.42527     -411.24338      0              7198.3664      30.944         21.33497       32.590656      21516.003      8860.2321      5782.6481      6952.2191     -1585.414      -817.3901       1190.5406    
 206702000   258.8623      -417.72564     -331.02928     -417.72006      0              6380.9378      30.944         21.33497       32.651866      21556.413      6424.797       6208.6576      6509.3588     -1188.6536      1248.8078     -599.36514    
 206704000   250.26523     -413.70923     -329.89214     -413.69931      0              6364.3646      30.944         21.33497       32.55038       21489.413      8808.624       5467.7474      4816.7223      1553.0207     -937.05688     -155.78097    
 206706000   254.95958     -414.85123     -329.46195     -414.84826      0              7717.4517      30.944         21.33497       32.4509        21423.738      8092.6999      6978.5638      8081.0914      114.47903      865.93882      2433.0917    
 206708000   256.48952     -414.36724     -328.46556     -414.3587       0              6968.022       30.944         21.33497       32.389914      21383.475      6968.3018      6393.7492      7542.015       790.78896      378.60153      547.48587    
 206710000   258.25317     -414.42011     -327.92775     -414.40974      0              7040.3206      30.944         21.33497       32.508659      21461.869      7355.036       7987.1083      5778.8175     -93.83549       945.83008      2371.717     
 206712000   257.2471      -414.99773     -328.84232     -414.98535      0              5507.1288      30.944         21.33497       32.65839       21560.72       5921.488       4997.6508      5602.2477      330.45732     -789.77076      1383.8966    
 206714000   250.28998     -416.09914     -332.27377     -416.0886       0              3465.2956      30.944         21.33497       32.589832      21515.459      4377.5976      2856.451       3161.8383      458.18792      97.329529      1317.5283    
 206716000   257.54134     -415.89524     -329.64129     -415.88417      0              6027.1399      30.944         21.33497       32.516813      21467.253      6090.3757      4424.1067      7566.9373     -760.94329      867.37023      1646.2166    
 206718000   259.26379     -417.88429     -331.05347     -417.87708      0              7024.8373      30.944         21.33497       32.467885      21434.951      5320.8908      8329.4726      7424.1484      352.04843     -453.29405     -640.39524    
 206720000   261.3732      -414.79208     -327.25479     -414.79121      0              7451.2728      30.944         21.33497       32.350373      21357.37       6221.9682      6608.9591      9522.8912      1153.8349      377.20148      2774.606     
 206722000   255.99599     -413.42906     -327.69266     -413.41851      0              6758.2114      30.944         21.33497       32.504059      21458.832      7181.5847      6608.4469      6484.6027     -209.71861     -1025.7822      2334.9699    
 206724000   253.76463     -413.15682     -328.16774     -413.1446       0              4516.9071      30.944         21.33497       32.633532      21544.309      4019.6006      4728.7304      4802.3903      1282.7726     -13.706698      258.33436    
 206726000   252.04092     -415.43262     -331.02083     -415.42167      0              6212.1838      30.944         21.33497       32.630615      21542.383      4572.8802      5805.6301      8258.041       1450.6414      539.98817      271.04348    
 206728000   252.03184     -412.52272     -328.11397     -412.51474      0              7300.5977      30.944         21.33497       32.52982       21475.839      6754.3115      7898.7376      7248.7441     -1138.8921      1487.716      -291.6901     
 206730000   256.39813     -412.04945     -326.17837     -412.03631      0              6661.135       30.944         21.33497       32.633406      21544.226      8222.979       6592.3006      5168.1254      121.02407     -1707.3921      539.08583    
 206732000   254.43139     -410.83894     -325.62655     -410.82643      0              4856.9034      30.944         21.33497       32.577127      21507.071      5619.7889      3617.8666      5333.0547     -492.79016     -275.50268      332.52023    
 206734000   250.64761     -415.17645     -331.2313      -415.16547      0              6305.8101      30.944         21.33497       32.583667      21511.388      6875.4952      6188.2259      5853.7093     -512.50008     -370.82494      888.73018    
 206736000   251.4884      -412.68515     -328.45841     -412.67521      0              6858.0271      30.944         21.33497       32.678297      21573.863      6345.2056      6270.8288      7958.0469      194.88769      2440.0214      85.808127    
 206738000   249.9436      -411.57526     -327.86589     -411.5625       0              5494.9271      30.944         21.33497       32.622764      21537.2        5979.5972      4442.9606      6062.2233     -1377.1681      132.47816      946.03104    
 206740000   253.49582     -411.34934     -326.45029     -411.33723      0              6828.6938      30.944         21.33497       32.626736      21539.823      6744.1367      8393.6867      5348.2581     -672.36956     -921.15975      798.76287    
 206742000   255.62728     -414.57796     -328.96505     -414.57644      0              6434.6189      30.944         21.33497       32.512082      21464.129      7231.395       7645.5674      4426.8944     -986.34065     -834.95631      840.56854    
 206744000   262.95344     -414.31039     -326.24385     -414.30219      0              6255.899       30.944         21.33497       32.597509      21520.527      6710.4144      6284.0975      5773.1852      380.29406      555.80136     -27.36124     
 206746000   255.47042     -412.22221     -326.66184     -412.21123      0              6477.3222      30.944         21.33497       32.505501      21459.784      8019.4048      5217.4085      6195.1532      1935.0791      953.17006     -3.4452769    
 206748000   251.72368     -411.02145     -326.71591     -411.00979      0              5928.9246      30.944         21.33497       32.699205      21587.665      6275.1119      5317.0489      6194.6129      76.159217     -1191.3084      1894.1896    
 206750000   252.78236     -414.04522     -329.38511     -414.05116      0              4681.2496      30.944         21.33497       32.761097      21628.526      5031.1664      6044.7892      2967.7932     -239.08694      735.95594     -537.48064    
 206752000   252.03393     -415.58336     -331.17392     -415.57727      0              6033.9636      30.944         21.33497       32.600955      21522.802      7692.0767      6247.2703      4162.5437     -555.03768     -923.24762      1080.0888    
 206754000   256.3932      -413.60348     -327.73405     -413.60134      0              6342.0292      30.944         21.33497       32.564572      21498.783      7054.2218      5084.6334      6887.2324      356.36984     -558.07426      579.96078    
 206756000   256.25219     -413.55248     -327.73028     -413.54506      0              6142.6831      30.944         21.33497       32.767977      21633.068      4683.4673      7651.7086      6092.8735      65.533209     -1270.728      -1285.9247    
 206758000   245.03633     -412.18453     -330.11867     -412.17241      0              4506.9002      30.944         21.33497       32.577848      21507.547      4246.1301      5803.806       3470.7644     -273.60664     -203.29471      868.74881    
 206760000   257.74197     -414.18936     -327.86821     -414.19764      0              5925.4525      30.944         21.33497       32.433403      21412.186      6130.5217      5329.972       6315.8639      1207.5211      622.02737      110.68794    
 206762000   258.4746      -412.07033     -325.50382     -412.06021      0              5933.6582      30.944         21.33497       32.474347      21439.217      6319.4455      4755.8306      6725.6984      1226.4392     -3278.2776     -73.875457    
 206764000   248.53193     -412.54712     -329.31054     -412.53735      0              5274.4046      30.944         21.33497       32.509611      21462.498      6404.6157      4963.0608      4455.5374      199.28103     -2510.7173     -267.79263    
 206766000   248.59618     -416.56159     -333.30348     -416.55961      0              7748.5997      30.944         21.33497       32.326313      21341.486      7852.6629      7015.3341      8377.8021     -521.76739      2080.9497      282.31083    
 206768000   265.11287     -413.2298      -324.44005     -413.22385      0              6616.5682      30.944         21.33497       32.473315      21438.536      6049.8514      8090.4354      5709.4177     -39.943454      1447.8351      114.39874    
 206770000   259.44093     -414.67976     -327.78961     -414.67349      0              6578.1848      30.944         21.33497       32.559582      21495.488      8413.0694      5904.4744      5417.0106      18.03656       251.60004      673.72228    
 206772000   255.31442     -415.18751     -329.67939     -415.17524      0              7125.8548      30.944         21.33497       32.489155      21448.993      6723.9464      7186.0451      7467.5728      910.33062      285.79626     -1078.8575    
 206774000   255.65841     -417.68944     -332.0661      -417.68959      0              4645.1191      30.944         21.33497       32.478426      21441.91       6266.9148      3469.8716      4198.5708     -407.58972     -513.97965      691.90361    
 206776000   255.82435     -413.42629     -327.74738     -413.41895      0              6531.0988      30.944         21.33497       32.480644      21443.374      6066.5213      6877.4147      6649.3604     -16.923239     -570.17122     -73.24228     
 206778000   257.89904     -415.17297     -328.79922     -415.16465      0              7442.9665      30.944         21.33497       32.491084      21450.267      7309.217       8599.1413      6420.5411      3413.1251      210.61947     -290.60592    
 206780000   246.61381     -414.24183     -331.64765     -414.2337       0              7994.1121      30.944         21.33497       32.319397      21336.92       7336.2299      8366.9952      8279.1112     -251.44299     -953.35182      69.199169    
 206782000   256.81404     -410.54499     -324.53462     -410.53705      0              7911.3115      30.944         21.33497       32.326725      21341.758      7280.3036      8593.8834      7859.7475      1968.8747      429.03562     -1375.3266    
 206784000   253.07749     -414.92632     -330.16737     -414.9172       0              8397.7863      30.944         21.33497       32.402105      21391.523      7280.4597      8825.0173      9087.8819     -514.5117      -246.62854      93.552428    
 206786000   252.72725     -417.0884      -332.44675     -417.0853       0              6024.5346      30.944         21.33497       32.452841      21425.019      7971.1909      5835.2013      4267.2116      1258.3177      1464.0506      939.68387    
 206788000   255.73301     -415.50553     -329.85722     -415.4933       0              7224.1219      30.944         21.33497       32.454566      21426.157      7345.6746      7724.4314      6602.2597      1467.9185      1449.7651      526.82999    
 206790000   255.5123      -412.13708     -326.56268     -412.12389      0              4784.7548      30.944         21.33497       32.544631      21485.618      4477.924       3858.1445      6018.1959      1118.2659     -359.48809      1285.0122    
 206792000   255.43736     -416.13774     -330.58844     -416.12491      0              8534.3684      30.944         21.33497       32.600583      21522.556      9068.1451      7618.6586      8916.3016     -824.0887      -761.35187     -693.1076     
 206794000   254.3125      -413.51661     -328.34404     -413.51008      0              4803.1231      30.944         21.33497       32.70366       21590.607      4020.8827      5581.8021      4806.6846      229.32456      206.83968     -47.248342    
 206796000   253.36906     -415.572       -330.7154      -415.56281      0              5234.7781      30.944         21.33497       32.627171      21540.11       4566.767       4637.1181      6500.4493     -1306.984      -2132.0863     -460.51292    
 206798000   255.0305      -415.73902     -330.32598     -415.74333      0              5777.8122      30.944         21.33497       32.635648      21545.706      5588.9703      5307.8645      6436.6018     -368.3873       183.99457     -342.70484    
 206800000   260.56784     -417.24477     -329.9772      -417.24033      0              8369.041       30.944         21.33497       32.434819      21413.121      5773.5944      9553.4273      9780.1014     -683.10239      575.54601     -159.00257    
 206802000   252.20938     -419.01488     -334.54668     -419.00638      0              2224.2263      30.944         21.33497       32.59638       21519.782      3973.705       1201.4471      1497.5269      545.6647      -58.194305      392.79228    
 206804000   247.51294     -415.86311     -332.9678      -415.85155      0              5353.4127      30.944         21.33497       32.740102      21614.666      5858.5417      3493.2144      6708.482      -618.21867     -617.69805     -796.02484    
 206806000   258.04671     -416.56972     -330.14651     -416.56203      0              4491.2598      30.944         21.33497       32.633654      21544.39       5677.7805      4450.7347      3345.2641      628.26904     -2271.1261      1266.0559    
 206808000   254.99183     -415.68346     -330.28338     -415.67485      0              4435.3108      30.944         21.33497       32.536105      21479.989      4086.0982      6402.3564      2817.4779      201.67313     -1031.1085     -337.53861    
 206810000   256.47048     -417.44885     -331.55354     -417.43883      0              6381.64        30.944         21.33497       32.612723      21530.571      7841.0821      6889.2649      4414.573      -308.86461     -517.62614     -73.028514    
 206812000   247.98026     -415.17002     -332.1182      -415.16836      0              4875.4074      30.944         21.33497       32.46716       21434.472      2928.9214      6119.1241      5578.1767     -1410.5729     -668.13068     -41.560479    
 206814000   256.76289     -415.89722     -329.90398     -415.88812      0              6603.6718      30.944         21.33497       32.446694      21420.96       5840.1729      7698.9875      6271.855       622.71588     -482.81782      853.17362    
 206816000   251.42052     -413.59712     -329.39311     -413.58494      0              4172.7496      30.944         21.33497       32.466483      21434.025      2870.4