LAMMPS (23 Jun 2022)
include procedure.lmp
echo both
include		in.partitions
variable        pid world 0
include		in.temp
variable	temperature equal 255
variable        tempDamp equal 0.100 # this is 0.1 ps
include		in.pressure
variable        pressure equal 6079.5
variable        pressureDamp equal 1.0 #this is 1ps

variable	barostat string	   tri
variable	direction string   z
variable	direction_x_bool equal 0
variable	direction_y_bool equal 0
variable	direction_z_bool equal 1

include		in.seed
variable        seed world 745823

units           metal
atom_style	full
box tilt large
read_restart 	restart.lmp.${pid}
read_restart 	restart.lmp.0
Reading restart file ...
  restart file = 23 Jun 2022, LAMMPS = 23 Jun 2022
  restoring atom style full from restart
  triclinic box = (0 0 -0.77641774) to (30.944 21.33497 31.749133) with tilt (-9.144178 0.98145463 -10.823614)
WARNING: Triclinic box skew is large (../domain.cpp:224)
  2 by 1 by 2 MPI processor grid
Summary of lammps deepmd module ...
  >>> Info of deepmd-kit:
  installed to:       /u/sigbjobo/software/DEEPMD_FROM_SOURCE/deepmd-kit/install
  source:             v2.1.3
  source branch:       master
  source commit:      5a32c49
  source commit at:   2022-07-01 09:52:58 +0800
  surpport model ver.:1.1 
  build float prec:   double
  build with tf inc:  /u/sigbjobo/software/DEEPMD_FROM_SOURCE/tensorflow/install/include;/u/sigbjobo/software/DEEPMD_FROM_SOURCE/tensorflow/install/include
  build with tf lib:  /u/sigbjobo/software/DEEPMD_FROM_SOURCE/tensorflow/install/lib/libtensorflow_cc.so;/u/sigbjobo/software/DEEPMD_FROM_SOURCE/tensorflow/install/lib/libtensorflow_framework.so
  set tf intra_op_parallelism_threads: 0
  set tf inter_op_parallelism_threads: 0
  >>> Info of lammps module:
  use deepmd-kit at:  /u/sigbjobo/software/DEEPMD_FROM_SOURCE/deepmd-kit/install
  source:             v2.1.3
  source branch:      master
  source commit:      5a32c49
  source commit at:   2022-07-01 09:52:58 +0800
  build float prec:   double
  build with tf inc:  /u/sigbjobo/software/DEEPMD_FROM_SOURCE/tensorflow/install/include;/u/sigbjobo/software/DEEPMD_FROM_SOURCE/tensorflow/install/include
  build with tf lib:  /u/sigbjobo/software/DEEPMD_FROM_SOURCE/tensorflow/install/lib/libtensorflow_cc.so;/u/sigbjobo/software/DEEPMD_FROM_SOURCE/tensorflow/install/lib/libtensorflow_framework.so
  restoring pair style deepmd from restart
  2592 atoms
Finding 1-2 1-3 1-4 neighbors ...
  special bond factors lj:    0        0        0       
  special bond factors coul:  0        0        0       
     0 = max # of 1-2 neighbors
     0 = max # of 1-3 neighbors
     0 = max # of 1-4 neighbors
     1 = max # of special neighbors
  special bonds CPU = 0.000 seconds
  read_restart CPU = 0.003 seconds
include 	in.setup
variable	out_freq equal 2000
variable	out_freq2 equal 2000

timestep        0.0005

neigh_modify    delay 7 every 1

include         in.deepmd
# This is deepMD model

# create groups ###
#group ox type 2
#group hy type 1

mass 2 15.999
mass 1 1.008

pair_style      deepmd ../graph.pb
pair_coeff      * *

bond_style      none
angle_style     none
dihedral_style  none
improper_style  none
neigh_modify exclude none


neighbor        2.0 bin
neigh_modify    every 50 delay 0 check no

thermo          ${out_freq}
thermo          2000
thermo_style 	custom step temp pe etotal epair emol press lx ly lz vol pxx pyy pzz pxy pxz pyz

restart 	${out_freq} restart.lmp.${pid} restart2.lmp.${pid}
restart 	2000 restart.lmp.${pid} restart2.lmp.${pid}
restart 	2000 restart.lmp.0 restart2.lmp.${pid}
restart 	2000 restart.lmp.0 restart2.lmp.0


timer           timeout 23:50:00 every 1000
New timer settings: style=normal  mode=nosync  timeout=23:50:00


# Set number of time steps
variable 	nsteps_wall		equal	 6000000
variable 	nsteps_enhanced_coex    equal	300000000

variable     nsteps_enhanced_coex_upto equal (${nsteps_wall}+${nsteps_enhanced_coex})
variable     nsteps_enhanced_coex_upto equal (6000000+${nsteps_enhanced_coex})
variable     nsteps_enhanced_coex_upto equal (6000000+300000000)


# Set temperature for first step
if "$(step) < 1  " then    "velocity 	all create ${temperature} ${seed} dist gaussian"


# Always run thermo and barostat


######################################
# Run simulation with wall potential #
######################################
if " $(step) < ${nsteps_wall} " then    "fix             3 all plumed plumedfile plumed.equil.dat outfile plumed.equil.out"   "fix             1 all nph ${direction} ${pressure} ${pressure} ${pressureDamp}"   "fix             2 all temp/csvr ${temperature} ${temperature} ${tempDamp} ${seed}"   "run             ${nsteps_wall} upto"
if " $(step) == ${nsteps_wall} " then    "unfix 3"   "unfix 1"   "unfix 2"


############################
# Run enhanced coesistence #
############################
if "$(step) == ${nsteps_wall}" then    "fix             3 all plumed plumedfile plumed.start.dat outfile plumed.out" else    "fix             3 all plumed plumedfile plumed.dat outfile plumed.out"
fix             3 all plumed plumedfile plumed.dat outfile plumed.out

if "$(step) < ${nsteps_enhanced_coex_upto} && $(step) >= ${nsteps_wall} " then    "include         in.dump"    "fix             1 all nph ${direction} ${pressure} ${pressure} ${pressureDamp}"   "fix             2 all temp/csvr ${temperature} ${temperature} ${tempDamp} ${seed}"   "run             ${nsteps_enhanced_coex_upto} upto"    "unfix 3"   "unfix 1"   "unfix 2"
include         in.dump
dump            myDump all atom ${out_freq2} dump.water.${pid}
dump            myDump all atom 2000 dump.water.${pid}
dump            myDump all atom 2000 dump.water.0
dump            myDump2 all dcd ${out_freq2} dump.${pid}.dcd
dump            myDump2 all dcd 2000 dump.${pid}.dcd
dump            myDump2 all dcd 2000 dump.0.dcd
dump_modify     myDump append yes
dump_modify     myDump2 append yes

fix             1 all nph ${direction} ${pressure} ${pressure} ${pressureDamp}
fix             1 all nph z ${pressure} ${pressure} ${pressureDamp}
fix             1 all nph z 6079.5 ${pressure} ${pressureDamp}
fix             1 all nph z 6079.5 6079.5 ${pressureDamp}
fix             1 all nph z 6079.5 6079.5 1
Resetting global fix info from restart file:
  fix style: nph, fix ID: 1
fix             2 all temp/csvr ${temperature} ${temperature} ${tempDamp} ${seed}
fix             2 all temp/csvr 255 ${temperature} ${tempDamp} ${seed}
fix             2 all temp/csvr 255 255 ${tempDamp} ${seed}
fix             2 all temp/csvr 255 255 0.1 ${seed}
fix             2 all temp/csvr 255 255 0.1 745823
Resetting global fix info from restart file:
  fix style: temp/csvr, fix ID: 2
run             ${nsteps_enhanced_coex_upto} upto
run             306000000 upto

CITE-CITE-CITE-CITE-CITE-CITE-CITE-CITE-CITE-CITE-CITE-CITE-CITE

Your simulation uses code contributions which should be cited:

- USER-DEEPMD package:

@article{Wang_ComputPhysCommun_2018_v228_p178,
  author = {Wang, Han and Zhang, Linfeng and Han, Jiequn and E, Weinan},
  doi = {10.1016/j.cpc.2018.03.016},
  url = {https://doi.org/10.1016/j.cpc.2018.03.016},
  year = 2018,
  month = {jul},
  publisher = {Elsevier {BV}},
  volume = 228,
  journal = {Comput. Phys. Commun.},
  title = {{DeePMD-kit: A deep learning package for many-body potential energy representation and molecular dynamics}},
  pages = {178--184}
}

CITE-CITE-CITE-CITE-CITE-CITE-CITE-CITE-CITE-CITE-CITE-CITE-CITE

Generated 0 of 1 mixed pair_coeff terms from geometric mixing rule
All restart file global fix info was re-assigned
Neighbor list info ...
  update every 50 steps, delay 0 steps, check no
  max neighbors/atom: 2000, page size: 100000
  master list distance cutoff = 8
  ghost atom cutoff = 8
  binsize = 4, bins = 11 9 9
  1 neighbor lists, perpetual/occasional/extra = 1 0 0
  (1) pair deepmd, perpetual
      attributes: full, newton on
      pair build: full/bin
      stencil: full/bin/3d
      bin: standard
Per MPI rank memory allocation (min/avg/max) = 7.31 | 7.311 | 7.312 Mbytes
   Step          Temp          PotEng         TotEng         E_pair         E_mol          Press            Lx             Ly             Lz           Volume          Pxx            Pyy            Pzz            Pxy            Pxz            Pyz      
 188184000   258.61564     -416.46495     -329.8512      -416.46495      0              5438.2841      30.944         21.33497       32.525551      21473.021      5158.4868      5295.9213      5860.4442      954.13707      1235.4991     -1853.9679    
 188186000   260.11837     -417.10237     -329.98534     -417.10313      0              5216.8285      30.944         21.33497       32.483009      21444.935      5768.9658      5212.223       4669.2968      704.06214     -906.57524      1214.5552    
 188188000   254.51488     -415.15957     -329.91922     -415.16677      0              5647.2177      30.944         21.33497       32.426681      21407.748      3966.9272      7133.9298      5840.7961      143.45841      1069.1433     -386.77157    
 188190000   253.13404     -415.56335     -330.78546     -415.57182      0              5810.5625      30.944         21.33497       32.483925      21445.54       6863.7654      5162.3679      5405.5541     -1318.5003      806.40731     -967.03314    
 188192000   255.80961     -414.57533     -328.90136     -414.5788       0              6041.5         30.944         21.33497       32.429362      21409.518      5694.1144      5936.6009      6493.7848      800.18955      325.159        117.47184    
 188194000   246.33602     -414.82171     -332.32056     -414.83635      0              5437.6928      30.944         21.33497       32.488426      21448.511      6176.1011      5498.5068      4638.4704     -931.73881      812.62616      454.68955    
 188196000   252.11102     -414.34949     -329.91422     -414.38378      0              7975.7786      30.944         21.33497       32.48601       21446.917      8231.966       6669.0543      9026.3155     -277.66142     -310.93187      253.70688    
 188198000   250.67608     -413.56909     -329.61441     -413.57265      0              7796.4037      30.944         21.33497       32.338547      21349.563      6879.0884      8896.59        7613.5326      1386.5399     -61.772568     -1309.8637    
 188200000   251.90035     -415.70877     -331.34406     -415.72233      0              4423.4622      30.944         21.33497       32.394887      21386.758      4898.5905      4378.4259      3993.3701      171.30571     -28.646449     -30.598024    
 188202000   251.54613     -415.79803     -331.55195     -415.8102       0              5453.2326      30.944         21.33497       32.407178      21394.872      5019.24        5007.7823      6332.6754     -864.75023      2383.355      -369.56411    
 188204000   255.03602     -415.81836     -330.40347     -415.82695      0              9114.3741      30.944         21.33497       32.315451      21334.315      10035.711      9882.6572      7424.7542     -822.55698      805.38107     -551.4177     
 188206000   261.42835     -417.24107     -329.68531     -417.25473      0              5135.2608      30.944         21.33497       32.393134      21385.601      4119.763       4477.8886      6808.1306     -1541.6082     -39.428825      221.49002    
 188208000   259.83141     -411.48899     -324.46806     -411.48925      0              7039.2951      30.944         21.33497       32.502997      21458.131      5552.2027      8698.8137      6866.8688      556.03079     -591.1531      -648.98863    
 188210000   258.3034      -413.33138     -326.8222      -413.34655      0              5907.368       30.944         21.33497       32.354702      21360.228      7629.8997      5245.3575      4846.8469     -1294.4156      344.15247     -229.75908    
 188212000   250.8425      -417.83965     -333.82923     -417.85786      0              7180.9195      30.944         21.33497       32.468778      21435.54       8170.0231      5540.7442      7831.9913      430.82784     -785.17575      1524.7209    
 188214000   259.40464     -413.47733     -326.59934     -413.48032      0              5986.0868      30.944         21.33497       32.542619      21484.289      5576.916       7726.134       4655.2104      88.422937     -699.78154      326.21518    
 188216000   255.89189     -415.2929      -329.59137     -415.29582      0              6764.8169      30.944         21.33497       32.471343      21437.234      7370.6455      5457.7619      7466.0432      129.46573     -1282.7728      2092.356     
 188218000   258.82338     -414.05791     -327.37458     -414.05792      0              6539.4346      30.944         21.33497       32.665248      21565.248      6537.7293      5733.0824      7347.492      -1102.3979     -2282.1683      872.98029    
 188220000   251.7659      -413.10535     -328.78567     -413.10915      0              8514.8429      30.944         21.33497       32.547051      21487.215      7920.7052      8720.9513      8902.8722      1078.1068      462.85337     -18.925877    
 188222000   257.52662     -415.11938     -328.87036     -415.11429      0              6848.3878      30.944         21.33497       32.587619      21513.997      6978.8435      7290.5547      6275.7653      283.20697      667.39553      977.45766    
 188224000   252.50561     -415.90052     -331.3331      -415.91383      0              8078.5586      30.944         21.33497       32.564678      21498.853      8440.401       7015.3001      8779.9746     -2940.7046     -248.68392      1757.1201    
 188226000   255.44398     -411.68987     -326.13835     -411.68411      0              4681.3465      30.944         21.33497       32.709951      21594.76       5594.7002      3472.3887      4976.9506     -347.3663      -1589.0706      233.1697     
 188228000   253.1692      -415.23429     -330.44463     -415.24506      0              6283.6958      30.944         21.33497       32.768974      21633.726      5328.6479      8143.6027      5378.8367     -134.17973     -970.14534      2035.0044    
 188230000   255.56649     -417.09662     -331.50407     -417.09586      0              4611.7347      30.944         21.33497       32.733793      21610.5        5328.2363      5442.8096      3064.1583     -173.7181      -2648.9532      657.19394    
 188232000   254.31631     -414.2192      -329.04535     -414.22475      0              6296.1367      30.944         21.33497       32.756323      21625.374      5032.8626      7400.6127      6454.9347      296.20531      35.924357      1153.4258    
 188234000   253.56495     -413.23266     -328.31046     -413.23136      0              6308.0306      30.944         21.33497       32.714383      21597.686      6301.7734      7377.1027      5245.2156     -133.38242     -674.04247     -701.45188    
 188236000   251.57274     -412.49721     -328.24222     -412.50649      0              7019.3975      30.944         21.33497       32.742874      21616.496      8038.0433      8106.6187      4913.5305      1104.95       -578.00153     -578.5882     
 188238000   259.17741     -413.49213     -326.69024     -413.50724      0              6750.9559      30.944         21.33497       32.564553      21498.77       6896.6395      7575.3301      5780.8981      107.47018     -1175.7993     -3361.1971    
 188240000   250.68151     -412.77052     -328.81402     -412.78292      0              6666.2611      30.944         21.33497       32.66764       21566.827      6396.1642      7843.2692      5759.3501     -554.70705     -631.34233     -1936.6193    
 188242000   258.63698     -413.84238     -327.22149     -413.8361       0              5775.1958      30.944         21.33497       32.789606      21647.347      7233.7568      5407.613       4684.2176      376.75784      1633.8824      389.85445    
 188244000   251.49833     -418.69221     -334.46214     -418.69751      0              6082.6408      30.944         21.33497       32.757228      21625.972      5897.4325      6239.2041      6111.2857      463.59144     -853.19703      504.49859    
 188246000   259.61181     -413.09588     -326.1485      -413.10098      0              5155.6156      30.944         21.33497       32.814311      21663.657      4753.3714      4339.5073      6373.9683      831.28264     -1042.7479      1467.1106    
 188248000   252.77009     -415.21467     -330.55867     -415.22891      0              4433.6902      30.944         21.33497       32.737323      21612.831      5003.4443      2258.0887      6039.5377     -912.1492       1387.6972     -59.613743    
 188250000   259.83727     -414.87894     -327.85606     -414.89227      0              5591.0529      30.944         21.33497       32.6774        21573.27       5848.5608      6624.1218      4300.4762      95.381476      457.8335      -1923.0569    
 188252000   251.867       -414.13256     -329.77902     -414.14122      0              6711.0715      30.944         21.33497       32.730906      21608.594      6281.1042      7241.9958      6610.1144     -141.76643      562.31895      1373.688     
 188254000   253.6032      -412.55554     -327.62052     -412.56345      0              5688.0767      30.944         21.33497       32.692246      21583.071      7369.5767      3570.401       6124.2525      631.77806      395.45042      350.76272    
 188256000   261.738       -412.97353     -325.31406     -412.98265      0              7171.6033      30.944         21.33497       32.65824       21560.621      6790.96        8508.3268      6215.523       576.8665       39.044685     -610.7118     
 188258000   243.61195     -415.78779     -334.19897     -415.79677      0              5932.6         30.944         21.33497       32.50434       21459.018      5815.148       6475.6562      5506.996      -358.69562      1025.5794      1182.0157    
 188260000   259.52843     -414.11402     -327.19457     -414.12054      0              6688.5674      30.944         21.33497       32.512777      21464.588      7228.1287      7731.2159      5106.3576      385.99899     -136.35295      720.05921    
 188262000   255.08712     -413.41623     -327.98423     -413.41206      0              6154.6328      30.944         21.33497       32.472374      21437.914      5369.5262      5275.4452      7818.9272     -1280.3572     -848.20422      280.72188    
 188264000   260.31636     -413.09079     -325.90745     -413.09036      0              7519.4844      30.944         21.33497       32.436893      21414.49       6617.5189      8547.8929      7393.0414     -1201.2046     -1102.3785      1399.6396    
 188266000   249.52009     -414.62484     -331.05731     -414.62301      0              7051.8946      30.944         21.33497       32.686273      21579.128      6321.016       8585.8106      6248.8572      11.284886      517.14599     -131.49269    
 188268000   259.0738      -413.86218     -327.09498     -413.86209      0              6227.8474      30.944         21.33497       32.508964      21462.07       5150.2931      7420.6011      6112.6479      1495.4494      363.61369      632.24195    
 188270000   250.93212     -418.01559     -333.97516     -418.02266      0              4909.1958      30.944         21.33497       32.702544      21589.87       4361.1685      5348.5991      5017.8197      390.89745      9.3251785      7.3052454    
 188272000   253.02141     -414.22411     -329.48394     -414.2189       0              6510.5423      30.944         21.33497       32.785752      21644.803      5174.1771      7423.3521      6934.0976      267.34692      124.96794     -182.69814    
 188274000   259.34671     -414.07303     -327.21443     -414.08047      0              5306.319       30.944         21.33497       32.729153      21607.437      6002.7362      4417.3605      5498.8602     -32.987499     -905.03272     -21.451408    
 188276000   253.83215     -412.63276     -327.62106     -412.63639      0              6548.2705      30.944         21.33497       32.770252      21634.57       6643.1867      6538.2229      6463.4019     -1179.4623      336.59086      112.49126    
 188278000   257.86721     -411.97266     -325.60957     -411.9737       0              6418.6148      30.944         21.33497       32.676933      21572.962      6630.3786      6275.3324      6350.1334      1031.4029     -802.87551      221.86096    
 188280000   256.49741     -415.74141     -329.83708     -415.75146      0              6011.1232      30.944         21.33497       32.654193      21557.95       2841.2786      6616.7789      8575.3119      107.17412     -702.73156      968.22855    
 188282000   262.81697     -415.39031     -327.36948     -415.38942      0              5910.8423      30.944         21.33497       32.900317      21720.438      5099.5646      7283.8497      5349.1125      939.54642     -689.2611      -1406.8529    
 188284000   261.43112     -413.92907     -326.37238     -413.92152      0              5836.5822      30.944         21.33497       32.826684      21671.826      5577.3116      5581.2888      6351.1462     -1426.5732     -523.60304      835.3355     
 188286000   258.50601     -415.00658     -328.42955     -414.99938      0              5770.1221      30.944         21.33497       32.672709      21570.173      3599.2065      6027.029       7684.1307      848.02597      1067.5109      384.34596    
 188288000   252.97836     -415.51334     -330.78759     -415.51271      0              7689.9747      30.944         21.33497       32.6343        21544.816      5544.3177      9447.9188      8077.6877      842.67895      233.26943     -486.8259     
 188290000   257.10162     -414.85877     -328.75208     -414.85165      0              5040.9064      30.944         21.33497       32.549102      21488.569      6498.616       4521.7032      4102.4         47.842188      1812.8154     -870.81042    
 188292000   255.75316     -415.38372     -329.72865     -415.37718      0              4118.0857      30.944         21.33497       32.807261      21659.003      4224.571       5428.5532      2701.1328     -932.34588     -277.31745     -239.24891    
 188294000   255.64193     -413.62705     -328.00924     -413.61883      0              7046.3119      30.944         21.33497       32.774431      21637.329      5865.1251      7397.6651      7876.1455      122.64663      598.11049      1557.3938    
 188296000   256.12916     -413.0357      -327.2547      -413.03164      0              5268.8123      30.944         21.33497       32.680855      21575.551      6653.1765      4257.657       4895.6035     -166.61714     -556.21519     -982.53562    
 188298000   255.42714     -416.79187     -331.24599     -416.78693      0              6562.8231      30.944         21.33497       32.613161      21530.86       4233.2498      8550.2143      6905.0054      506.8917      -343.04898     -188.21889    
 188300000   250.05135     -413.40964     -329.66419     -413.41247      0              4735.5778      30.944         21.33497       32.626622      21539.747      4125.513       5395.3563      4685.8642     -2104.7592      1167.1427      629.52706    
 188302000   261.78208     -415.10771     -327.43348     -415.10166      0              5616.6177      30.944         21.33497       32.573648      21504.775      5550.89        4678.8963      6620.0668     -945.79032     -1601.1005     -267.00898    
 188304000   259.58125     -413.98661     -327.04947     -413.9786       0              7430.7366      30.944         21.33497       32.73335       21610.208      7740.2151      7044.1384      7507.8561      442.56225      330.1546       1552.739     
 188306000   255.77874     -414.18572     -328.52209     -414.18203      0              7140.9142      30.944         21.33497       32.633726      21544.437      7432.7883      5932.7641      8057.1901      886.39091     -150.58525     -926.38481    
 188308000   255.61825     -412.54584     -326.93596     -412.53375      0              4663.7196      30.944         21.33497       32.582396      21510.55       3492.7497      3524.0538      6974.3554      2190.8214     -824.25835      716.16953    
 188310000   251.94131     -411.68912     -327.31069     -411.68174      0              6518.5489      30.944         21.33497       32.788133      21646.375      7607.7677      5258.5286      6689.3503     -738.46988      707.65306     -648.38281    
 188312000   255.7987      -415.03745     -329.36713     -415.03669      0              7080.256       30.944         21.33497       32.772282      21635.91       5637.9429      7246.1795      8356.6455      642.05796      1866.2368      776.63557    
 188314000   249.65761     -412.44347     -328.82988     -412.44295      0              5306.0834      30.944         21.33497       32.591744      21516.721      4812.314       6535.8967      4570.0394      846.75024     -1708.2138      758.96379    
 188316000   251.45731     -413.31377     -329.09744     -413.31061      0              5839.8504      30.944         21.33497       32.537919      21481.187      3907.3669      6469.5529      7142.6315     -1600.4336     -216.885       -379.10673    
 188318000   254.75738     -414.08151     -328.75995     -414.08497      0              1953.0212      30.944         21.33497       32.792414      21649.201      2893.6748      1810.5541      1154.8348      119.10497      174.06409     -110.13179    
 188320000   252.50751     -411.62428     -327.05623     -411.61201      0              4113.6691      30.944         21.33497       32.839743      21680.447      3537.818       4592.1054      4211.0839      70.294271      1010.6331      171.31117    
 188322000   257.37973     -417.08644     -330.88661     -417.08536      0              5502.2119      30.944         21.33497       32.681322      21575.859      7092.1227      4256.8371      5157.6758     -414.62366     -2254.5133     -692.23012    
 188324000   256.43393     -413.17615     -327.29308     -413.16934      0              5735.4949      30.944         21.33497       32.620426      21535.657      5686.699       6375.4458      5144.34       -743.27125     -839.64145     -1071.7759    
 188326000   261.62408     -414.11123     -326.48992     -414.10253      0              6943.8954      30.944         21.33497       32.729602      21607.733      6436.288       8412.031       5983.3673      1543.8867      1247.0282      448.28509    
 188328000   257.08052     -415.17215     -329.07253     -415.15968      0              6235.9656      30.944         21.33497       32.668969      21567.704      9595.5884      4110.5683      5001.7401      80.539334     -827.47669     -334.34239    
 188330000   252.14909     -412.29615     -327.84813     -412.28807      0              5963.403       30.944         21.33497       32.707675      21593.258      7333.4771      5425.39        5131.3419      81.23172      -456.9626      -1405.0711    
 188332000   252.50026     -414.95954     -330.39391     -414.94999      0              5081.8225      30.944         21.33497       32.792997      21649.586      4931.4344      5227.3609      5086.6721      1676.5071     -499.29068      1144.4075    
 188334000   251.58898     -414.89853     -330.63811     -414.89345      0              6442.0828      30.944         21.33497       32.645861      21552.448      4123.3245      9180.8196      6022.1042     -586.96347      390.5636      -1006.9218    
 188336000   252.79201     -413.11872     -328.45539     -413.10629      0              8417.6674      30.944         21.33497       32.528194      21474.766      9362.5321      6405.9514      9484.5188     -1207.6319     -645.5038       1592.1629    
 188338000   255.14084     -413.30372     -327.85373     -413.2911       0              6620.4497      30.944         21.33497       32.679698      21574.787      7119.1467      4483.887       8258.3154     -346.11879      2067.0956     -504.39974    
 188340000   257.93635     -412.58055     -326.1943      -412.57332      0              6515.9261      30.944         21.33497       32.644492      21551.545      5361.3951      7188.0732      6998.3101     -463.85983      2041.9277     -494.89978    
 188342000   257.6693      -413.72632     -327.42952     -413.71546      0              6849.7687      30.944         21.33497       32.811902      21662.067      6705.3898      4917.6441      8926.2724     -456.88482      1564.8933     -727.98487    
 188344000   260.69747     -414.60276     -327.29178     -414.58985      0              7159.9601      30.944         21.33497       32.734427      21610.919      5409.1439      7556.992       8513.7445     -1403.5608      994.31227     -337.57085    
 188346000   261.93503     -413.24653     -325.52107     -413.23401      0              4209.706       30.944         21.33497       32.636936      21546.556      3458.4454      4218.83        4951.8426      19.81847      -349.36064     -327.69473    
 188348000   261.83305     -413.24539     -325.55409     -413.23761      0              7314.1946      30.944         21.33497       32.581561      21509.998      7353.8946      8314.8407      6273.8485     -1161.9835      860.85401     -886.32627    
 188350000   261.49388     -414.3099      -326.73219     -414.30877      0              4993.3283      30.944         21.33497       32.632878      21543.877      4177.9872      5161.3931      5640.6048      519.91019      2196.6775     -663.44363    
 188352000   254.86903     -414.26948     -328.91052     -414.26094      0              4506.4829      30.944         21.33497       32.696471      21585.861      3114.7119      5715.5062      4689.2306      132.6591       25.318268     -1377.6244    
 188354000   263.56194     -415.24936     -326.97902     -415.24191      0              6769.687       30.944         21.33497       32.568601      21501.443      7166.8302      7239.262       5902.969      -50.334334      672.69687      902.2666     
 188356000   256.11597     -415.49332     -329.71674     -415.48691      0              4895.029       30.944         21.33497       32.794542      21650.606      6273.7333      1802.4128      6608.9408     -208.96371     -424.95964      389.05366    
 188358000   254.97545     -415.1936      -329.799       -415.19236      0              6324.2169      30.944         21.33497       32.730095      21608.059      5533.4833      5841.9864      7597.181       775.08711      686.77607      454.78906    
 188360000   247.97608     -412.51584     -329.46542     -412.5035       0              6771.9804      30.944         21.33497       32.703167      21590.282      6857.4153      5874.7442      7583.7816      2170.3554     -896.56898      599.81662    
 188362000   252.1892      -412.98822     -328.52677     -412.98214      0              7660.5638      30.944         21.33497       32.671271      21569.224      7021.2792      7415.9901      8544.4222      588.55294      1471.909       279.70288    
 188364000   254.66155     -415.70701     -330.41754     -415.69877      0              6544.9412      30.944         21.33497       32.739836      21614.49       5540.2964      5267.3726      8827.1547     -147.00295     -619.52344     -453.00587    
 188366000   254.38349     -411.51609     -326.31975     -411.50664      0              5628.5954      30.944         21.33497       32.565467      21499.373      6721.342       5225.6429      4938.8013     -523.08871     -1489.7761      713.82108    
 188368000   252.94341     -414.16706     -329.45302     -414.16089      0              6012.3923      30.944         21.33497       32.58373       21511.43       8261.2238      6243.3204      3532.6327     -190.86558     -1376.5566      392.46719    
 188370000   252.51897     -416.1478      -331.5759      -416.14025      0              6796.7264      30.944         21.33497       32.661876      21563.022      7207.271       5479.7887      7703.1195      377.2639      -1327.9435      621.77545    
 188372000   257.96637     -415.6328      -329.2365      -415.62447      0              5929.95        30.944         21.33497       32.559034      21495.126      5420.8883      7264.2341      5104.7277      264.897        100.10916     -659.01625    
 188374000   256.30873     -413.11719     -327.27605     -413.10947      0              5182.4082      30.944         21.33497       32.642589      21550.288      5629.5959      4513.5686      5404.0601     -218.35549      533.94101      2282.3332    
 188376000   252.95747     -412.50011     -327.78135     -412.48764      0              4974.9123      30.944         21.33497       32.518763      21468.54       6424.6442      3388.7866      5111.3061     -270.03907     -247.67587     -392.19346    
 188378000   255.04143     -416.20411     -330.78741     -416.19736      0              6258.6101      30.944         21.33497       32.428786      21409.138      6266.4326      5395.7615      7113.6363      445.09638      895.1826      -279.73978    
 188380000   251.90066     -415.35235     -330.98753     -415.34423      0              5645.5723      30.944         21.33497       32.470189      21436.471      5589.5335      5295.1507      6052.0327      1037.4243      1136.4405     -947.77387    
 188382000   255.75141     -413.79769     -328.14321     -413.8013       0              7145.6807      30.944         21.33497       32.593727      21518.03       7998.2347      6860.2381      6578.5692      369.05631      1688.5738      1383.4993    
 188384000   256.38922     -413.25174     -327.38365     -413.24357      0              5697.0705      30.944         21.33497       32.540096      21482.624      5000.2022      6309.6405      5781.369       2015.4593      557.89586     -328.68344    
 188386000   259.61132     -415.54924     -328.60202     -415.54859      0              5462.3937      30.944         21.33497       32.504085      21458.85       5660.1239      4584.1532      6142.9038      1628.6609     -205.41158      1282.4466    
 188388000   252.0194      -415.8886      -331.48401     -415.88781      0              5113.4511      30.944         21.33497       32.590048      21515.601      4382.0944      5219.9508      5738.3082     -43.757675     -1407.3223      502.25711    
 188390000   258.8519      -414.9215      -328.22862     -414.91754      0              6863.0008      30.944         21.33497       32.612729      21530.575      6990.7403      6446.8547      7151.4074      1539.9934     -646.64874     -1077.2485    
 188392000   252.65365     -413.82343     -329.20643     -413.81499      0              4563.2203      30.944         21.33497       32.50608       21460.167      4642.6018      3616.6529      5430.4061      274.54199      581.6551      -838.29262    
 188394000   250.66247     -414.5007      -330.55057     -414.5076       0              6458.8213      30.944         21.33497       32.43645       21414.198      6827.215       8225.8637      4323.385       468.26102      43.67913      -353.0227     
 188396000   256.78132     -415.93427     -329.93486     -415.93204      0              5609.7767      30.944         21.33497       32.54832       21488.053      4502.7476      5755.942       6570.6405      488.38312      591.50018      313.48397    
 188398000   257.39949     -414.16342     -327.95698     -414.16681      0              4678.4455      30.944         21.33497       32.534018      21478.611      4272.7954      4726.9087      5035.6324     -573.58044      1905.06        456.76052    
 188400000   250.18161     -413.16418     -329.37509     -413.15645      0              5733.8934      30.944         21.33497       32.490331      21449.769      5216.9882      6368.8758      5615.8161      424.67481      183.85375      119.40997    
 188402000   249.96412     -415.02518     -331.30894     -415.02266      0              6347.0434      30.944         21.33497       32.400614      21390.539      6526.5701      6705.8138      5808.7462     -1073.2222     -1197.9582     -1738.3047    
 188404000   247.6815      -417.46782     -334.51606     -417.46052      0              7935.6824      30.944         21.33497       32.595474      21519.184      8901.1028      7632.2835      7273.661      -83.193981     -1448.7245      391.41234    
 188406000   258.94656     -414.06875     -327.34417     -414.0723       0              5976.4742      30.944         21.33497       32.572936      21504.304      5895.8518      7578.7343      4454.8364      730.98786     -50.238869     -180.71506    
 188408000   260.83818     -415.73511     -328.377       -415.73458      0              4072.2799      30.944         21.33497       32.618191      21534.181      4387.4461      4551.8824      3277.5114      1069.98       -507.98441      916.12109    
 188410000   253.46583     -414.13156     -329.24255     -414.12575      0              6244.5072      30.944         21.33497       32.616145      21532.83       7311.4419      2577.6457      8844.4338     -704.9558      -636.38339      1674.7462    
 188412000   261.28659     -415.53119     -328.0229      -415.53494      0              5434.4903      30.944         21.33497       32.738095      21613.34       4683.5843      6904.4193      4715.4671      771.08885     -1300.9358     -783.3093     
 188414000   255.46377     -414.86712     -329.30898     -414.8592       0              4970.0822      30.944         21.33497       32.739133      21614.026      6372.0357      5485.4448      3052.7661      746.60172     -8.9154371      735.26152    
 188416000   255.94433     -416.20614     -330.48705     -416.20705      0              5130.4659      30.944         21.33497       32.649868      21555.094      5018.2737      6591.6586      3781.4653     -1132.7948      1676.6386      8.0870286    
 188418000   260.93062     -415.02461     -327.63554     -415.01791      0              6087.6151      30.944         21.33497       32.49071       21450.019      6147.8156      7012.4         5102.6297     -9.327275      -816.98233     -2005.436     
 188420000   250.6387      -413.81984     -329.87767     -413.8281       0              8817.8075      30.944         21.33497       32.497568      21454.547      10059.767      8078.4102      8315.2457     -885.38577     -871.26945      173.98318    
 188422000   252.78311     -415.66319     -331.00283     -415.65898      0              5840.7423      30.944         21.33497       32.43431       21412.785      4531.7777      5977.5663      7012.8829      2397.5589     -539.64461     -1537.4211    
 188424000   253.50172     -415.29661     -330.39558     -415.28863      0              6051.0021      30.944         21.33497       32.598125      21520.933      5887.3268      7414.2144      4851.4652      1400.0028     -1401.4973      915.71525    
 188426000   248.95411     -415.05717     -331.67919     -415.05042      0              4975.1443      30.944         21.33497       32.6143        21531.612      3769.7894      5965.3029      5190.3406     -922.26178     -51.720233     -60.890644    
 188428000   251.84753     -414.37993     -330.03291     -414.36747      0              5917.8728      30.944         21.33497       32.669752      21568.221      7277.229       4607.8686      5868.5209      737.74886      1100.7521      3267.34      
 188430000   255.91674     -415.36716     -329.65731     -415.36121      0              6348.7979      30.944         21.33497       32.564695      21498.864      7514.3803      6113.6131      5418.4002     -431.4224      -104.2987      -540.60598    
 188432000   247.80875     -417.16622     -334.17184     -417.17287      0              5238.7294      30.944         21.33497       32.392092      21384.913      4446.4235      3265.2914      8004.4734      204.87439     -232.32995      1255.6676    
 188434000   258.40447     -414.79585     -328.25282     -414.80371      0              5007.0217      30.944         21.33497       32.347774      21355.655      3230.2825      4367.3242      7423.4583     -27.376649      647.1494      -1033.9266    
 188436000   252.54976     -415.58088     -330.99867     -415.57338      0              4907.3529      30.944         21.33497       32.517186      21467.499      5230.9573      2071.8973      7419.2039     -630.28721     -640.13674      218.80263    
 188438000   257.65026     -415.13261     -328.84218     -415.12612      0              5524.6874      30.944         21.33497       32.383681      21379.36       3931.2422      6419.9736      6222.8463     -166.09286     -184.41822     -1236.2373    
 188440000   259.16915     -413.33165     -326.53252     -413.32635      0              9606.2164      30.944         21.33497       32.394993      21386.828      10608.628      8022.4261      10187.595      1264.8935      33.348598      670.93284    
 188442000   253.38065     -418.85685     -333.99636     -418.85204      0              4677.5963      30.944         21.33497       32.539849      21482.461      4895.2638      3599.2214      5538.3037     -1000.8394     -1111.7336      52.653805    
 188444000   258.59356     -413.14228     -326.53592     -413.1527       0              5797.0461      30.944         21.33497       32.44808       21421.876      6883.7881      4868.6453      5638.7049      1044.9916     -639.34624      201.91678    
 188446000   254.86233     -414.71626     -329.35954     -414.72214      0              5397.4436      30.944         21.33497       32.482579      21444.651      7249.625       5389.3499      3553.3559      1484.9109     -744.51445     -372.21498    
 188448000   258.74829     -415.48725     -328.82908     -415.48603      0              4820.1067      30.944         21.33497       32.491534      21450.563      5888.5989      5264.8183      3306.903       1551.7106     -474.88131     -1072.4196    
 188450000   255.18295     -410.9878      -325.52371     -410.9815       0              7019.0686      30.944         21.33497       32.527726      21474.457      7246.1236      5747.7056      8063.3766     -478.17546      1027.5664      414.28041    
 188452000   253.47946     -416.98758     -332.09401     -416.98674      0              6182.8169      30.944         21.33497       32.514007      21465.4        7088.7331      3792.2864      7667.4311      226.52369      252.12939     -261.51295    
 188454000   259.78128     -412.21216     -325.20802     -412.20588      0              5108.9887      30.944         21.33497       32.418211      21402.157      3524.5606      5380.6259      6421.7795     -164.00793     -184.51613     -818.40631    
 188456000   251.33145     -415.82984     -331.65566     -415.82358      0              5215.1916      30.944         21.33497       32.619615      21535.121      6043.7125      3561.3234      6040.5389     -121.7311      -517.25487     -890.41453    
 188458000   248.13345     -412.09912     -328.996       -412.09146      0              7062.3207      30.944         21.33497       32.686011      21578.955      9547.9738      5129.6538      6509.3343      1370.7047     -503.05086     -87.751777    
 188460000   253.14073     -414.47096     -329.69083     -414.46914      0              6730.5866      30.944         21.33497       32.566542      21500.083      7123.3478      6709.8937      6358.5182     -170.26908     -54.778485     -889.78626    
 188462000   255.10122     -416.47722     -331.04049     -416.46932      0              5482.4556      30.944         21.33497       32.559183      21495.225      4388.379       5880.6031      6178.3848     -571.89921      748.55648      1369.5207    
 188464000   250.92477     -413.1999      -329.16193     -413.19431      0              6976.933       30.944         21.33497       32.453923      21425.733      7402.7147      7176.6571      6351.4271     -102.33502      1066.2715     -1607.1844    
 188466000   245.28192     -414.34305     -332.19493     -414.33999      0              6497.7355      30.944         21.33497       32.505373      21459.7        6833.966       5800.9302      6858.3103      27.885317     -2034.473       624.14589    
 188468000   258.59733     -414.02219     -327.41457     -414.01628      0              5823.302       30.944         21.33497       32.682794      21576.831      6458.1254      5330.1808      5681.5997      1488.0399     -1125.138      -604.61289    
 188470000   249.2356      -415.07431     -331.60206     -415.06574      0              4642.7768      30.944         21.33497       32.708592      21593.863      5789.4366      4882.617       3256.2769     -653.81783      827.55017     -964.55445    
 188472000   254.99884     -413.40412     -328.00169     -413.40465      0              8130.5076      30.944         21.33497       32.580461      21509.272      7911.962       9010.0742      7469.4868     -2562.4067      79.746573     -1622.8787    
 188474000   255.08648     -414.77389     -329.3421      -414.7625       0              6189.0861      30.944         21.33497       32.819954      21667.383      8999.8635      7562.3393      2005.0555      285.49665     -38.67128      -1282.2673    
 188476000   256.87659     -411.06332     -325.032       -411.05708      0              4591.7772      30.944         21.33497       32.654884      21558.405      4177.2147      5874.255       3723.8618      87.774296     -356.90095     -686.07627    
 188478000   243.16065     -413.05617     -331.6185      -413.05195      0              3787.5254      30.944         21.33497       32.730379      21608.247      2974.825       4086.6559      4301.0954      1002.0419      1072.8994     -26.328724    
 188480000   253.19057     -412.78359     -327.98676     -412.77096      0              6487.3034      30.944         21.33497       32.532797      21477.805      5576.7026      8039.7776      5845.4299     -1030.5323      54.137642     -697.52629    
 188482000   258.1216      -413.67389     -327.2256      -413.66648      0              5417.7178      30.944         21.33497       32.715367      21598.336      6253.6082      5260.2087      4739.3366      1456.8885     -120.02669     -477.90246    
 188484000   251.25623     -415.25185     -331.10286     -415.24642      0              5281.1575      30.944         21.33497       32.502932      21458.088      5444.8497      3730.6121      6668.0108     -69.105865      169.3314       1062.1607    
 188486000   248.80962     -412.75851     -329.42893     -412.75187      0              6126.8146      30.944         21.33497       32.482941      21444.89       6583.3839      6306.7972      5490.2628     -75.742797      52.755018     -55.835371    
 188488000   250.78353     -415.5721      -331.58142     -415.57061      0              6833.5409      30.944         21.33497       32.338864      21349.772      5892.3715      8071.8035      6536.4478      217.23228      377.89846     -46.886285    
 188490000   255.92799     -415.22316     -329.50954     -415.22548      0              7330.5019      30.944         21.33497       32.523715      21471.809      7464.1391      7878.8682      6648.4982     -53.053434     -623.91617      1204.0347    
 188492000   257.70673     -411.40483     -325.09548     -411.39893      0              7502.7671      30.944         21.33497       32.661979      21563.089      8061.2297      5779.1735      8667.8981     -691.05519      550.49124      219.80411    
 188494000   255.64213     -413.72312     -328.10524     -413.71614      0              5326.1519      30.944         21.33497       32.481871      21444.184      6584.9874      5923.9667      3469.5015     -497.74845      970.49391     -1108.9675    
 188496000   256.92291     -412.03029     -325.98346     -412.02307      0              7865.1621      30.944         21.33497       32.564029      21498.424      7551.8603      7159.7876      8883.8385     -1149.73       -415.36326      1285.7889    
 188498000   257.45505     -413.4999      -327.27484     -413.49891      0              6950.9237      30.944         21.33497       32.355555      21360.791      6908.0999      7637.6527      6307.0184     -1845.8241     -751.31082     -2286.3476    
 188500000   260.47971     -413.31588     -326.07783     -413.31254      0              8987.6397      30.944         21.33497       32.420425      21403.618      9214.0581      8532.459       9216.402       704.91298     -666.12103     -806.75013    
 188502000   261.52899     -413.32794     -325.73847     -413.31846      0              5673.82        30.944         21.33497       32.365736      21367.513      6239.1503      6042.9642      4739.3456      1928.3418     -34.04819      -483.95071    
 188504000   254.44144     -415.12848     -329.91273     -415.12007      0              7505.2254      30.944         21.33497       32.533977      21478.584      5229.4876      9238.9003      8047.2883     -574.39511      219.35852     -562.71757    
 188506000   255.83953     -415.41938     -329.73539     -415.40729      0              4572.6603      30.944         21.33497       32.59411       21518.283      5616.5283      3936.6463      4164.8062     -964.14123      767.74064     -1079.9052    
 188508000   251.19492     -413.29793     -329.16948     -413.29062      0              6724.7869      30.944         21.33497       32.422719      21405.132      4618.411       6742.7607      8813.1891      1345.2029      2174.4564     -567.35472    
 188510000   251.9483      -411.8729      -327.49213     -411.86209      0              6785.2422      30.944         21.33497       32.551038      21489.847      6828.2527      8299.4674      5228.0065      1093.8345      171.17647     -495.84467    
 188512000   256.29222     -413.34686     -327.51125     -413.33729      0              6635.8475      30.944         21.33497       32.378682      21376.059      6356.093       4674.3997      8877.0499     -1147.7941     -199.29841     -108.35585    
 188514000   254.22732     -412.5113      -327.36726     -412.49872      0              5345.4756      30.944         21.33497       32.60009       21522.231      4662.3516      7108.7946      4265.2807      882.67161     -395.84127      1334.7849    
 188516000   263.71487     -411.78332     -323.46177     -411.77116      0              4893.5424      30.944         21.33497       32.642257      21550.069      3402.6056      5802.7088      5475.3127     -1332.9582      1018.3809      1485.0832    
 188518000   258.41766     -413.75824     -327.2108      -413.7518       0              6897.4954      30.944         21.33497       32.53142       21476.896      5976.9274      6547.7521      8167.8068      525.86054      2276.5372      111.06555    
 188520000   253.98237     -411.40422     -326.34221     -411.39167      0              7813.9064      30.944         21.33497       32.581468      21509.937      6788.2433      8739.2082      7914.2676      1707.9054     -463.26807      2672.0977    
 188522000   255.09675     -416.54296     -331.10773     -416.53341      0              5062.9896      30.944         21.33497       32.680553      21575.351      5770.4048      5211.1356      4207.4285      923.93946     -306.34876     -150.05369    
 188524000   251.84968     -413.70324     -329.3555      -413.69064      0              6002.9622      30.944         21.33497       32.80741       21659.102      3676.9349      7493.7361      6838.2155      311.45251      1559.9279     -285.40793    
 188526000   261.17434     -415.86884     -328.39815     -415.86151      0              6421.5689      30.944         21.33497       32.789988      21647.599      6534.0665      7342.4045      5388.2357     -1302.4872     -516.83568     -639.75151    
 188528000   262.57672     -414.50206     -326.56169     -414.50567      0              6695.6689      30.944         21.33497       32.76581       21631.637      7004.8234      6446.383       6635.8001      498.31409      206.89517      774.26954    
 188530000   253.79714     -412.22779     -327.22782     -412.22344      0              6502.0666      30.944         21.33497       32.905627      21723.943      5671.6893      6916.0214      6918.489       249.71095      1541.2136      735.95257    
 188532000   260.9685      -412.79633     -325.39457     -412.78636      0              6706.6266      30.944         21.33497       32.692664      21583.347      6805.1849      7706.2849      5608.41        685.29896      989.22378     -809.20087    
 188534000   253.9112      -414.18425     -329.14608     -414.17544      0              5569.9696      30.944         21.33497       32.761741      21628.951      5285.3706      6970.1686      4454.3696     -1249.4419      310.88865     -421.22258    
 188536000   251.56588     -411.64064     -327.38795     -411.6309       0              6650.634       30.944         21.33497       32.808601      21659.888      6800.525       7761.0811      5390.2959     -288.96268      844.07435     -634.50898    
 188538000   256.35483     -411.40872     -325.55215     -411.39575      0              6311.5449      30.944         21.33497       32.76264       21629.545      4076.7785      7006.9652      7850.891       372.20877     -194.29482     -462.30895    
 188540000   258.37396     -413.3634      -326.8306      -413.36054      0              6385.3479      30.944         21.33497       32.615258      21532.245      7268.0964      5632.6205      6255.327       487.78064      1529.9314     -391.50759    
 188542000   254.80107     -415.97563     -330.63943     -415.97534      0              6648.5031      30.944         21.33497       32.653539      21557.518      5890.8128      5363.2969      8691.3996     -1194.6341     -172.87682      735.15806    
 188544000   249.41043     -413.12788     -329.59707     -413.12093      0              4346.1508      30.944         21.33497       32.710136      21594.882      3672.4267      4724.4686      4641.557       1765.9705     -1544.1705      141.24957    
 188546000   255.25592     -413.36219     -327.87366     -413.36742      0              6370.7639      30.944         21.33497       32.565222      21499.212      5588.9538      7863.6343      5659.7035     -1189.0466     -859.78766     -1485.8505    
 188548000   249.27002     -413.27029     -329.78651     -413.26229      0              6082.809       30.944         21.33497       32.584934      21512.225      5210.2082      6822.6667      6215.5523     -986.2799       945.37699      446.70745    
 188550000   249.53536     -414.20102     -330.62837     -414.19109      0              8495.4742      30.944         21.33497       32.507128      21460.859      8219.4777      8939.5004      8327.4446     -310.3623      -737.05125     -326.30468    
 188552000   259.32775     -414.99674     -328.1445      -414.98919      0              7374.0325      30.944         21.33497       32.476786      21440.827      6863.2332      7747.9107      7510.9538      301.94336      322.75716      1404.8217    
 188554000   255.56533     -413.35868     -327.76652     -413.34796      0              7188.889       30.944         21.33497       32.609731      21528.596      7691.8474      6440.3793      7434.4403      32.939181     -1829.2241      1476.5609    
 188556000   256.89548     -410.10655     -324.0689      -410.09794      0              5923.5599      30.944         21.33497       32.724168      21604.146      4177.2973      7285.5466      6307.8357      1338.6695      639.43843     -394.63213    
 188558000   255.55323     -410.68644     -325.09833     -410.68113      0              5342.0081      30.944         21.33497       32.815446      21664.407      4095.2031      5395.5068      6535.3144      1199.5052     -138.9188      -263.23176    
 188560000   259.50254     -414.39511     -327.48433     -414.38718      0              5855.8637      30.944         21.33497       32.741251      21615.424      4205.3923      5498.3786      7863.8202      430.16967     -482.53237     -20.574819    
 188562000   255.03209     -411.75645     -326.34288     -411.7487       0              5434.992       30.944         21.33497       32.543886      21485.125      7034.8784      5568.9275      3701.1702     -1368.8645      350.46717     -33.63466     
 188564000   247.59522     -414.45088     -331.52801     -414.44699      0              4872.5965      30.944         21.33497       32.469206      21435.823      5353.5053      6665.8443      2598.4399      380.17003      1074.2104     -349.79493    
 188566000   261.10214     -410.78007     -323.33356     -410.76745      0              6824.4046      30.944         21.33497       32.538813      21481.777      7965.0819      5916.3841      6591.7478     -84.199298     -353.25182      1769.0974    
 188568000   257.76139     -414.70084     -328.37319     -414.69313      0              6765.0204      30.944         21.33497       32.426063      21407.34       6149.255       7557.8856      6587.9207     -351.37215      1435.3412      1346.3226    
 188570000   265.05339     -412.75868     -323.98884     -412.7542       0              5824.9341      30.944         21.33497       32.62575       21539.171      6137.2634      6156.6897      5180.849       186.79298     -761.56841      952.41371    
 188572000   258.24455     -416.52759     -330.03813     -416.51665      0              6719.3845      30.944         21.33497       32.447715      21421.635      5935.8675      7631.1405      6591.1454     -828.51638      1656.2196     -950.60865    
 188574000   259.24638     -415.09139     -328.2664      -415.08928      0              6264.1794      30.944         21.33497       32.610631      21529.19       6331.5629      6565.0618      5895.9137     -469.42629      692.23605      172.59243    
 188576000   250.55067     -412.60047     -328.68779     -412.59515      0              6972.5288      30.944         21.33497       32.524744      21472.489      6565.3834      8117.0401      6235.163       255.71825      52.393693     -269.14744    
 188578000   256.14837     -411.20676     -325.41933     -411.1973       0              6527.9668      30.944         21.33497       32.490657      21449.984      7617.4219      7691.0693      4275.4093     -2592.9533     -188.41965     -96.290355    
 188580000   257.66633     -412.11626     -325.82045     -412.11992      0              5687.3203      30.944         21.33497       32.419484      21402.997      5332.7178      5628.874       6100.3691      46.371884     -1307.4347      597.95415    
 188582000   253.68622     -417.38294     -332.42012     -417.38538      0              8271.5656      30.944         21.33497       32.337737      21349.028      9255.2883      7720.7302      7838.6782     -511.94559     -3298.811       86.409348    
 188584000   255.50331     -413.22662     -327.65523     -413.22861      0              6191.0743      30.944         21.33497       32.562418      21497.36       6087.875       7675.2154      4810.1324     -161.38091     -1093.2648     -610.63845    
 188586000   252.87421     -415.23919     -330.54831     -415.23606      0              5677.144       30.944         21.33497       32.463401      21431.991      4340.5696      5649.2426      7041.6198      301.82425     -175.79056      94.900511    
 188588000   258.9562      -417.3807      -330.65289     -417.37755      0              6377.955       30.944         21.33497       32.371336      21371.21       6784.8996      5127.6475      7221.3179      339.13364     -404.55097     -553.42615    
 188590000   253.8081      -412.93321     -327.92957     -412.92321      0              6368.3799      30.944         21.33497       32.444171      21419.295      6522.8274      5143.5313      7438.781       782.3454      -1700.8142      161.28473    
 188592000   254.59187     -412.8326      -327.56647     -412.8362       0              8099.2918      30.944         21.33497       32.448469      21422.133      7673.7128      8353.1146      8271.048      -1204.3999      457.38075      450.32925    
 188594000   256.05296     -415.7819      -330.02642     -415.79063      0              8003.1788      30.944         21.33497       32.402737      21391.941      7301.7863      11099.865      5607.8854      216.63962     -236.85427      181.25002    
 188596000   261.83634     -413.42231     -325.72991     -413.42581      0              7479.0582      30.944         21.33497       32.400247      21390.297      8226.3818      7864.3944      6346.3983     -914.72496      396.01136     -1225.1922    
 188598000   253.22671     -414.35914     -329.55022     -414.35527      0              5665.0418      30.944         21.33497       32.560429      21496.047      3532.0855      5309.9437      8153.0962      1616.8424      632.13543      799.56418    
 188600000   251.1427      -415.6886      -331.57763     -415.69173      0              5861.8632      30.944         21.33497       32.683204      21577.102      6085.5071      5182.3594      6317.7231      1797.7449      519.5652      -958.97711    
 188602000   258.55592     -417.4325      -330.83875     -417.43742      0              6755.3203      30.944         21.33497       32.624828      21538.562      6260.3602      6155.9286      7849.6722     -1186.2763      1269.4172     -1043.1735    
 188604000   253.58146     -417.01931     -332.09158     -417.01853      0              4853.8592      30.944         21.33497       32.657323      21560.016      6504.3572      4484.9574      3572.2629      119.24617     -368.00785      2378.1968    
 188606000   256.90613     -418.12689     -332.08568     -418.13024      0              6882.2044      30.944         21.33497       32.520203      21469.49       7358.3976      7193.222       6094.9936     -1008.7427      1223.0523      1177.2594    
 188608000   262.6791      -416.24348     -328.26882     -416.24639      0              5216.9975      30.944         21.33497       32.554535      21492.156      4803.9495      7025.417       3821.6262      1480.376       4.034985      -418.9219     
 188610000   255.42585     -413.95116     -328.40571     -413.95581      0              7912.0647      30.944         21.33497       32.634871      21545.193      6200.5607      9238.9556      8296.6779      894.61799      732.5879      -1065.6735    
 188612000   259.57791     -416.68603     -329.75        -416.69424      0              5199.2782      30.944         21.33497       32.492823      21451.414      3769.8186      6598.2955      5229.7206     -820.69789      1229.4917     -1780.3294    
 188614000   259.90476     -415.34955     -328.30406     -415.3569       0              6792.1905      30.944         21.33497       32.558859      21495.01       8731.4992      7386.641       4258.4315     -855.84114     -880.62075      1260.5213    
 188616000   252.34131     -413.9463      -329.4339      -413.94687      0              5595.6148      30.944         21.33497       32.649688      21554.975      6301.3645      5529.6489      4955.831      -358.19576     -13.67658       567.88365    
 188618000   254.52483     -412.89561     -327.65193     -412.89877      0              4820.522       30.944         21.33497       32.6198        21535.244      4701.1111      4045.8463      5714.6085     -241.61573     -601.3739       316.37505    
 188620000   259.44791     -416.94409     -330.0516      -416.95961      0              6782.5672      30.944         21.33497       32.544697      21485.661      7678.2242      7591.8959      5077.5814     -148.06075      645.98185     -771.18142    
 188622000   252.43996     -411.75166     -327.20623     -411.75196      0              5485.3941      30.944         21.33497       32.464106      21432.456      5133.2077      4168.0798      7154.8947      277.45874     -1493.0361      332.1933     
 188624000   259.63341     -417.27349     -330.31888     -417.27802      0              6304.7774      30.944         21.33497       32.572635      21504.105      6560.1791      5451.1337      6903.0195      1458.022      -626.44492      182.74789    
 188626000   259.58448     -416.49113     -329.5529      -416.49885      0              6603.8393      30.944         21.33497       32.651267      21556.018      5463.6798      7296.0809      7051.7572     -265.15725     -811.27384      488.18969    
 188628000   255.26035     -414.73096     -329.24094     -414.73908      0              5538.9964      30.944         21.33497       32.583933      21511.564      5835.1968      5928.3571      4853.4353     -256.62796      29.935751     -274.95547    
 188630000   256.52068     -414.19198     -328.27986     -414.20093      0              7688.8925      30.944         21.33497       32.568886      21501.631      8516.4863      8280.0438      6270.1475     -43.77902      -295.94169     -934.94464    
 188632000   258.32011     -415.24673     -328.73196     -415.25024      0              5049.2727      30.944         21.33497       32.543713      21485.012      4974.2942      5313.0199      4860.5041      433.11592      734.94816     -1105.5327    
 188634000   256.29654     -415.84179     -330.00474     -415.84358      0              6864.3308      30.944         21.33497       32.581114      21509.703      7778.021       7281.0322      5533.9393     -273.94785     -795.87729     -821.84274    
 188636000   253.1302      -415.25027     -330.47367     -415.24722      0              6560.7601      30.944         21.33497       32.58862       21514.659      9153.1752      7169.2918      3359.8133     -889.72778     -1275.852      -1480.0729    
 188638000   248.51201     -415.0764      -331.84649     -415.08218      0              7263.165       30.944         21.33497       32.325287      21340.809      7560.2573      7453.2265      6776.0113     -2522.8447     -2063.0031      140.53685    
 188640000   254.61303     -418.07511     -332.80189     -418.0814       0              5299.1181      30.944         21.33497       32.470985      21436.997      4635.3219      7645.215       3616.8174      632.49916     -834.9895      -1720.1926    
 188642000   246.05331     -413.72808     -331.32161     -413.73411      0              6342.0273      30.944         21.33497       32.586441      21513.22       6060.3422      7110.3099      5855.4298     -1131.441       107.69999      306.11106    
 188644000   265.52879     -414.39947     -325.47041     -414.40148      0              7922.2402      30.944         21.33497       32.497129      21454.257      8521.5737      9161.9851      6083.1618      1195.9735     -577.82758     -566.17881    
 188646000   258.79886     -415.6606      -328.98549     -415.65527      0              8703.5737      30.944         21.33497       32.468831      21435.575      8174.2127      9696.0459      8240.4626      733.9385       1231.3844     -2200.6969    
 188648000   255.24669     -414.96364     -329.47819     -414.96183      0              4763.8728      30.944         21.33497       32.537212      21480.719      3539.191       5865.2693      4887.1581     -108.74277      314.48349      463.91141    
 188650000   255.12732     -414.7549      -329.30943     -414.75836      0              4659.1005      30.944         21.33497       32.626394      21539.596      3866.6585      4968.6839      5141.9591     -960.15884      525.8366       108.74524    
 188652000   258.18518     -417.78341     -331.31382     -417.78537      0              5639.5333      30.944         21.33497       32.550417      21489.438      3897.1828      6690.0117      6331.4055      1015.9913      1824.8536      1307.8694    
 188654000   251.53683     -414.49457     -330.2516      -414.49289      0              5571.5805      30.944         21.33497       32.587353      21513.822      4546.6864      6262.1237      5905.9313     -692.51647     -565.8857       203.16104    
 188656000   251.33526     -415.00685     -330.83139     -415.00945      0              6212.972       30.944         21.33497       32.425681      21407.088      6750.4023      6129.7209      5758.7927     -232.15862     -2017.5302     -736.98266    
 188658000   258.33268     -412.19028     -325.6713      -412.1896       0              5196.3362      30.944         21.33497       32.540271      21482.739      6033.3168      3054.6854      6501.0063     -232.59808     -797.16164     -1678.6607    
 188660000   253.46302     -412.30908     -327.42101     -412.30452      0              5381.8263      30.944         21.33497       32.468418      21435.303      4524.3628      6090.2732      5530.8428      803.7623      -214.39184     -541.48838    
 188662000   256.06417     -414.60869     -328.84946     -414.60718      0              6808.0994      30.944         21.33497       32.567298      21500.582      6536.3765      5264.3296      8623.592      -277.40372      1313.7318     -693.87316    
 188664000   254.10985     -416.00145     -330.89675     -416.0015       0              4995.6716      30.944         21.33497       32.609322      21528.326      3660.9966      6503.6424      4822.3759     -116.93668      970.71573     -334.95265    
 188666000   256.24611     -413.70504     -327.88488     -413.70204      0              6641.0003      30.944         21.33497       32.70514       21591.584      8809.5894      6999.8607      4113.5508      210.33899     -296.27847     -117.3773     
 188668000   246.4794      -414.69142     -332.14225     -414.69442      0              6548.952       30.944         21.33497       32.455257      21426.614      7570.1904      4533.1462      7543.5195     -0.39372251     512.40481      1969.9016    
 188670000   264.7666      -413.2482      -324.57441     -413.24646      0              4753.7301      30.944         21.33497       32.665436      21565.372      4276.2021      6268.4983      3716.4899      907.95334      882.31284      106.92974    
 188672000   261.78265     -414.82938     -327.15496     -414.83427      0              6433.7942      30.944         21.33497       32.483641      21445.352      5481.7929      6863.2638      6956.326      -1453.8381     -1586.7         702.69066    
 188674000   247.65431     -414.98409     -332.04143     -414.99562      0              6012.5078      30.944         21.33497       32.373172      21372.422      6619.6241      5008.638       6409.2612     -1199.9941      551.52749     -184.11253    
 188676000   259.46913     -410.89203     -323.99243     -410.90037      0              7360.0819      30.944         21.33497       32.334203      21346.695      7336.6702      5720.8473      9022.7283     -563.55928      1412.4915      864.72871    
 188678000   253.7548      -413.70778     -328.72199     -413.7106       0              6874.3904      30.944         21.33497       32.474208      21439.125      6831.0832      7089.7998      6702.2881      589.59223     -312.0859       16.11662     
 188680000   254.89597     -413.93951     -328.57153     -413.93838      0              4739.8879      30.944         21.33497       32.684026      21577.645      4890.147       4645.3004      4684.2163      648.06112     -2545.4745     -1207.4297    
 188682000   256.38376     -415.95551     -330.08924     -415.9507       0              5948.5942      30.944         21.33497       32.693133      21583.657      4934.5968      6520.0764      6391.1093     -1068.4995      564.93362      1112.1841    
 188684000   252.43152     -414.08715     -329.54454     -414.07704      0              4171.004       30.944         21.33497       32.685895      21578.878      4293.4311      4664.7206      3554.8604      239.89576     -297.96269     -320.34401    
 188686000   255.45679     -414.23338     -328.67757     -414.23309      0              7731.8489      30.944         21.33497       32.78331       21643.191      7682.3451      6774.7396      8738.4621     -287.65083     -887.16768      1038.4193    
 188688000   252.04457     -415.65112     -331.23811     -415.65697      0              5096.4248      30.944         21.33497       32.659916      21561.727      4492.741       3818.4659      6978.0675      190.35918     -325.51199     -369.61241    
 188690000   255.83351     -414.04923     -328.36725     -414.04769      0              5228.2976      30.944         21.33497       32.741887      21615.844      6167.1439      4170.6522      5347.0968      1095.3117     -1017.7219      2301.4934    
 188692000   262.28677     -415.72585     -327.88259     -415.72125      0              4428.4347      30.944         21.33497       32.779584      21640.731      3298.3629      5248.5131      4738.4281      1630.3269     -390.56613     -1756.4738    
 188694000   251.71838     -414.27846     -329.97469     -414.27702      0              5323.0387      30.944         21.33497       32.822157      21668.837      5954.7269      4172.3945      5841.9945     -1040.9276      1470.7546     -1339.6238    
 188696000   250.23053     -417.43432     -333.62885     -417.43348      0              5689.4121      30.944         21.33497       32.615821      21532.617      3841.6725      6355.5015      6871.0622     -1068.622       931.36057      834.80119    
 188698000   248.08879     -417.67657     -334.5884      -417.67555      0              6886.8046      30.944         21.33497       32.746186      21618.682      6376.2666      7417.7486      6866.3987     -696.12314      438.76012      1136.7238    
 188700000   252.10292     -418.45333     -334.02077     -418.44952      0              7597.9768      30.944         21.33497       32.622759      21537.197      8191.4781      8340.1245      6262.3276      221.18576     -2826.809      -1388.0911    
 188702000   253.90798     -418.21382     -333.17673     -418.21646      0              5326.1968      30.944         21.33497       32.691828      21582.795      4780.3227      6269.8485      4928.4193      27.086363     -1235.2316      650.85562    
 188704000   263.29983     -415.14496     -326.96241     -415.14243      0              4681.1724      30.944         21.33497       32.68643       21579.232      4022.4076      4398.4696      5622.64        610.26188     -185.37425      126.48473    
 188706000   250.95147     -415.92966     -331.88274     -415.92561      0              3327.3716      30.944         21.33497       32.70131       21589.055      3600.7532      3923.9362      2457.4253      801.745       -1332.8672     -405.92564    
 188708000   250.80697     -417.58081     -333.58229     -417.58243      0              7378.0097      30.944         21.33497       32.589275      21515.091      7861.8924      7796.024       6476.1126     -149.14304     -610.04092      1198.0095    
 188710000   251.68828     -416.1021      -331.80841     -416.10503      0              6355.2734      30.944         21.33497       32.572115      21503.762      5617.4321      5901.5384      7546.8497      993.54829     -1250.6454     -791.61671    
 188712000   257.56464     -414.80172     -328.53997     -414.80372      0              4771.7729      30.944         21.33497       32.618133      21534.143      3742.7153      4952.1466      5620.4569      959.44768     -279.42314      1069.4597    
 188714000   253.86046     -415.14464     -330.12346     -415.13636      0              6283.0995      30.944         21.33497       32.422664      21405.096      5976.3027      6656.1891      6216.8067      1207.2551     -139.33592     -822.69577    
 188716000   254.26397     -415.07851     -329.92219     -415.06969      0              7202.9789      30.944         21.33497       32.6583        21560.661      8522.1509      5829.2406      7257.545      -464.15197     -1320.8795      648.71697    
 188718000   248.38561     -414.69871     -331.51113     -414.69536      0              7461.0656      30.944         21.33497       32.54953       21488.851      7585.8795      8092.9068      6704.4106      93.60131      -1156.9222     -173.02057    
 188720000   259.03122     -416.49173     -329.7388      -416.49618      0              5608.7619      30.944         21.33497       32.423437      21405.606      4594.626       6147.9907      6083.6691     -68.836415      1236.542       420.30841    
 188722000   255.45049     -416.8169      -331.2632      -416.80839      0              7638.9353      30.944         21.33497       32.553061      21491.183      7069.4058      7377.9998      8469.4002     -923.38913     -63.87514      -79.336997    
 188724000   256.51351     -413.17483     -327.26511     -413.17063      0              8022.3335      30.944         21.33497       32.418528      21402.366      6898.9919      8531.3875      8636.6211     -1090.0263     -610.85291     -582.559      
 188726000   257.50953     -416.75733     -330.51404     -416.7558       0              5002.5921      30.944         21.33497       32.589988      21515.562      6333.3885      5803.9469      2870.4408     -1089.0946      158.27563     -1208.4817    
 188728000   254.19132     -417.99548     -332.86349     -418.00182      0              5236.6197      30.944         21.33497       32.549474      21488.815      4171.1945      6061.1032      5477.5615      293.26874     -182.21531      130.8427     
 188730000   250.11584     -415.05305     -331.286       -415.0497       0              6561.3377      30.944         21.33497       32.528933      21475.254      6693.0329      5864.2589      7126.7214     -883.94765     -1135.478      -987.00755    
 188732000   257.00924     -413.82649     -327.75075     -413.83064      0              7031.5276      30.944         21.33497       32.604229      21524.964      8776.2311      4812.3455      7506.0062     -1807.8166     -409.50424     -381.40886    
 188734000   254.08409     -415.69377     -330.5977      -415.69972      0              5464.7101      30.944         21.33497       32.450796      21423.668      5834.0846      7044.5262      3515.5195      625.40974     -1227.0504     -635.36811    
 188736000   256.15561     -414.16006     -328.37021     -414.15975      0              5810.5705      30.944         21.33497       32.399056      21389.511      6763.2939      6627.4111      4041.0065      41.172825     -1430.4363      320.77672    
 188738000   254.79762     -415.79854     -330.46349     -415.80902      0              5894.3245      30.944         21.33497       32.507501      21461.104      4981.2921      5751.7425      6949.9388     -252.12303     -1207.6898      1495.4615    
 188740000   254.43904     -415.17483     -329.95988     -415.17369      0              4401.8161      30.944         21.33497       32.388902      21382.807      4305.5929      4575.7015      4324.1539      397.90414     -237.29532     -537.01354    
 188742000   255.62421     -415.81751     -330.20562     -415.82658      0              6946.675       30.944         21.33497       32.410603      21397.134      7530.6722      5855.9838      7453.3689      1750.2742      350.32273     -135.0523     
 188744000   247.86929     -416.35504     -333.34039     -416.36212      0              8240.9342      30.944         21.33497       32.489104      21448.959      9080.7347      8906.9658      6735.1021      2551.1546      553.98761     -522.48466    
 188746000   263.6544      -411.58949     -323.28819     -411.58609      0              6665.4537      30.944         21.33497       32.563686      21498.197      5545.4171      7867.2855      6583.6586      1021.7392      390.86097     -1223.2465    
 188748000   253.41091     -416.53126     -331.66064     -416.52936      0              7768.5258      30.944         21.33497       32.662199      21563.235      6566.5565      7819.8811      8919.1398     -1019.5784     -181.57089      238.2805     
 188750000   252.3265      -414.5674      -330.05997     -414.55955      0              5618.1613      30.944         21.33497       32.659853      21561.686      5124.2613      8032.8935      3697.3292      1193.0127      859.69758     -1518.4336    
[...]
 196062000   259.66528     -414.42174     -327.45645     -414.40476      0              5657.1108      30.944         21.33497       32.408883      21395.998      6406.9437      3840.0111      6724.3777     -1663.1896     -327.47538     -457.82079    
 196064000   255.35773     -413.91401     -328.39137     -413.89978      0              5914.1539      30.944         21.33497       32.547559      21487.551      6823.6224      5984.2481      4934.5913      45.073058     -1345.6711     -1325.0535    
 196066000   251.99169     -411.94169     -327.54639     -411.92371      0              8111.983       30.944         21.33497       32.555821      21493.005      5798.4867      9195.3136      9342.1487     -935.24554      2725.9356      1439.4459    
 196068000   256.44541     -414.30234     -328.41542     -414.2854       0              5371.3846      30.944         21.33497       32.632869      21543.871      5273.2538      7107.9033      3732.9967     -790.19595     -1219.418       703.7217     
 196070000   257.78717     -411.47931     -325.14302     -411.46115      0              7054.0452      30.944         21.33497       32.640086      21548.636      8967.8874      5354.9521      6839.2961     -1209.7367      781.25469      135.14488    
 196072000   252.32597     -414.48511     -329.97786     -414.47256      0              3735.9642      30.944         21.33497       32.732235      21609.472      4036.2848      3175.8965      3995.7114     -695.46975      336.62358      534.88208    
 196074000   255.53159     -411.10131     -325.52045     -411.08772      0              4671.4361      30.944         21.33497       32.669257      21567.895      4516.4867      3472.5678      6025.2538      1538.5303      518.95928     -454.40621    
 196076000   256.5042      -412.00414     -326.09754     -411.99172      0              6519.6916      30.944         21.33497       32.586575      21513.309      4147.8772      7777.8216      7633.376       1031.266      -516.98625      64.01734     
 196078000   255.69956     -413.5196      -327.88249     -413.50172      0              4834.4441      30.944         21.33497       32.538485      21481.56       4855.8123      3227.7361      6419.7838     -45.419874     -1206.8068     -738.42141    
 196080000   254.91803     -414.06089     -328.68552     -414.04573      0              5932.7186      30.944         21.33497       32.601552      21523.196      7427.5606      5004.915       5365.6802      135.1442      -489.27952     -151.66074    
 196082000   254.42512     -415.44603     -330.23574     -415.4331       0              7616.2594      30.944         21.33497       32.816017      21664.783      8298.9667      7607.0856      6942.7261     -237.98308      957.47569      194.97259    
 196084000   254.693       -414.99042     -329.69041     -414.97188      0              6643.3782      30.944         21.33497       32.642015      21549.909      6872.7438      6997.2471      6060.1438     -1276.523       54.166407     -153.29347    
 196086000   259.26652     -412.01886     -325.18713     -411.99955      0              3898.3597      30.944         21.33497       32.603072      21524.2        4616.3192      4978.2263      2100.5336     -825.27603     -1572.4188     -556.4561     
 196088000   254.24701     -414.85002     -329.69938     -414.83443      0              7433.6952      30.944         21.33497       32.64027       21548.757      8185.5885      4708.076       9407.421      -1033.7388     -480.99339      180.3865     
 196090000   252.11379     -414.83824     -330.40205     -414.82558      0              5765.4475      30.944         21.33497       32.692794      21583.433      5634.639       3723.4184      7938.2851     -46.463705     -292.38549      2091.1023    
 196092000   255.82218     -414.14705     -328.46887     -414.13036      0              5162.7752      30.944         21.33497       32.652897      21557.093      5636.6993      4552.9339      5298.6925     -1904.26       -522.35933      1959.418     
 196094000   261.05728     -411.41466     -323.98318     -411.39848      0              6269.4124      30.944         21.33497       32.431687      21411.053      7844.7733      4734.0543      6229.4096     -2024.0406      1408.0718      1675.4811    
 196096000   257.36774     -413.2478      -327.05199     -413.22899      0              7414.0912      30.944         21.33497       32.481046      21443.639      8090.4521      6961.995       7189.8265     -661.96832      1057.3765      582.81869    
 196098000   253.6184      -412.75373     -327.81362     -412.73764      0              4883.0897      30.944         21.33497       32.488088      21448.288      4717.4122      3741.4232      6190.4338      835.93184      1341.8994     -144.38687    
 196100000   259.22494     -414.7397      -327.92189     -414.72658      0              8024.8415      30.944         21.33497       32.443879      21419.102      7550.8718      7572.5067      8951.1462      482.70172      434.688        705.27993    
 196102000   261.17107     -411.09357     -323.62398     -411.07458      0              7641.4194      30.944         21.33497       32.531788      21477.139      6248.17        6565.0497      10111.039     -753.687        75.099243      896.76307    
 196104000   249.41795     -413.85159     -330.31827     -413.83743      0              6602.0499      30.944         21.33497       32.491346      21450.44       6791.8362      6615.2553      6399.0581     -147.10884      1034.1853      466.42858    
 196106000   253.19379     -415.20201     -330.40411     -415.18503      0              8667.7352      30.944         21.33497       32.505641      21459.876      8262.9183      9408.0173      8332.2698     -19.406148      1065.8144     -1686.9156    
 196108000   256.73826     -414.00326     -328.01827     -413.98507      0              7052.2851      30.944         21.33497       32.453974      21425.767      4737.2867      9267.4194      7152.1491      110.73661      702.08314      735.00127    
 196110000   258.14388     -412.99131     -326.53556     -412.97817      0              7075.7715      30.944         21.33497       32.406889      21394.682      5850.1976      7836.2213      7540.8954     -267.54211      776.90926      1413.7114    
 196112000   254.9567      -417.27065     -331.88233     -417.25817      0              5268.4568      30.944         21.33497       32.499139      21455.584      2978.4894      6457.7161      6369.1649      142.60302     -1119.1636      505.8311     
 196114000   257.40502     -416.45033     -330.24203     -416.43638      0              4687.2724      30.944         21.33497       32.514632      21465.812      3239.1666      4748.1106      6074.54        1284.8907     -1243.2271     -487.37211    
 196116000   255.03323     -413.44074     -328.02679     -413.42794      0              5006.5992      30.944         21.33497       32.564519      21498.747      6348.2012      5808.056       2863.5403     -278.47389      631.7883       504.46029    
 196118000   257.13997     -416.5262      -330.40667     -416.51363      0              6074.3077      30.944         21.33497       32.612463      21530.4        5057.3001      6842.0058      6323.6171     -2715.8684      1603.5932      272.17493    
 196120000   260.43974     -414.49591     -327.27124     -414.48271      0              2825.7656      30.944         21.33497       32.807769      21659.338      1884.1521      3073.8443      3519.3005      1126.0733      948.58994     -201.92608    
 196122000   256.536       -415.05015     -329.13289     -415.0375       0              4148.0075      30.944         21.33497       32.571189      21503.151      3300.7359      4238.1287      4905.1579      24.205014     -116.76649     -318.43717    
 196124000   258.29232     -416.3033      -329.79783     -416.28731      0              6233.0819      30.944         21.33497       32.504381      21459.045      5875.5908      6571.2953      6252.3596      19.96008       1598.7905      121.55941    
 196126000   257.52198     -410.95617     -324.70871     -410.93693      0              5607.922       30.944         21.33497       32.610182      21528.894      6524.5692      4162.3856      6136.8114      1067.8683     -812.28573      94.264287    
 196128000   252.79815     -413.86125     -329.19585     -413.84755      0              5328.9687      30.944         21.33497       32.728415      21606.95       5093.4448      3098.6481      7794.8131      1244.9491      413.53872      1628.6866    
 196130000   260.33223     -414.10817     -326.91951     -414.08903      0              4398.5267      30.944         21.33497       32.734653      21611.068      6319.9244      4004.0475      2871.608      -1441.7028      541.14001      40.654262    
 196132000   253.56094     -414.6517      -329.73084     -414.63906      0              6982.6942      30.944         21.33497       32.575573      21506.045      5934.8177      6742.227       8271.0379     -1056.6954      589.18929     -449.35604    
 196134000   255.49855     -414.34567     -328.77587     -414.3294       0              7004.6494      30.944         21.33497       32.430892      21410.528      5691.9862      8266.7911      7055.1711      847.44378      311.45744      313.33708    
 196136000   253.98081     -412.83783     -327.77634     -412.82256      0              5457.4724      30.944         21.33497       32.436926      21414.512      5737.6485      5029.5571      5605.2116     -1037.864       778.90158     -1546.2672    
 196138000   247.75159     -415.6691      -332.69386     -415.65664      0              6983.2495      30.944         21.33497       32.43888       21415.802      6995.4031      6590.2214      7364.124      -310.32417     -1276.3991      515.24771    
 196140000   253.44501     -415.08994     -330.20791     -415.07501      0              5149.9203      30.944         21.33497       32.520528      21469.705      5659.6531      4219.2442      5570.8636     -1054.2271      1165.4105     -144.50812    
 196142000   259.59445     -413.4554      -326.51383     -413.44191      0              7333.4127      30.944         21.33497       32.388915      21382.816      8103.2463      6590.9184      7306.0735     -24.554942     -271.5845       7.2734675    
 196144000   253.37523     -417.51647     -332.65781     -417.50369      0              7027.2639      30.944         21.33497       32.421647      21404.425      7869.5999      5692.5131      7519.6786     -1761.2293      784.84396     -703.15593    
 196146000   254.11336     -413.59875     -328.49287     -413.58591      0              6527.874       30.944         21.33497       32.46171       21430.874      5500.6406      8811.1114      5271.87        1852.7896      157.15793     -1791.0515    
 196148000   256.16573     -411.92598     -326.13273     -411.91064      0              5576.5997      30.944         21.33497       32.54799       21487.835      6248.4214      6166.2731      4315.1045     -53.950232     -426.44153     -157.28261    
 196150000   250.26429     -416.61056     -332.79379     -416.59787      0              4591.4575      30.944         21.33497       32.549759      21489.003      3981.846       3578.5115      6214.0152      895.57402     -500.56599     -1385.2199    
 196152000   260.09708     -415.47086     -328.36096     -415.45403      0              6586.2866      30.944         21.33497       32.459039      21429.11       7033.2067      5857.9291      6867.724       1193.7354      1258.9867     -624.18316    
 196154000   254.97028     -414.11717     -328.7243      -414.10456      0              6449.8825      30.944         21.33497       32.4995        21455.823      5221.2571      5385.4958      8742.8946      226.70346     -742.58339     -634.71774    
 196156000   257.81486     -416.97941     -330.63386     -416.96445      0              6038.0963      30.944         21.33497       32.568006      21501.05       5969.9822      7573.9219      4570.3848     -239.79103      265.62713     -330.29412    
 196158000   257.27913     -412.89041     -326.72428     -412.87147      0              7016.1051      30.944         21.33497       32.549868      21489.075      5235.1346      7770.5442      8042.6367      2.4834561      299.60861     -280.72316    
 196160000   255.36476     -412.91607     -327.39108     -412.90327      0              5789.2863      30.944         21.33497       32.727281      21606.201      6757.9555      5455.1919      5154.7115     -325.98133      1317.9102     -1555.6844    
 196162000   263.70921     -413.76572     -325.44606     -413.75304      0              6819.7969      30.944         21.33497       32.570997      21503.024      4708.4619      8612.8666      7138.0622      1262.7981      291.32045     -626.93388    
 196164000   251.75127     -412.67089     -328.35611     -412.65824      0              5461.8036      30.944         21.33497       32.444935      21419.799      5303.5191      4878.6738      6203.2179     -1335.9011      265.28266     -1007.5819    
 196166000   254.97737     -415.97519     -330.57994     -415.95825      0              7333.6295      30.944         21.33497       32.443942      21419.143      7061.6241      8212.7897      6726.4747      740.89779      226.38717      762.56989    
 196168000   256.80141     -415.76159     -329.75545     -415.74886      0              7482.6924      30.944         21.33497       32.36968       21370.117      6004.2983      8094.79        8348.9888      190.51507      506.69013     -414.89842    
 196170000   254.45713     -416.07657     -330.85556     -416.06025      0              5721.6467      30.944         21.33497       32.380744      21377.421      6290.3912      6134.8567      4739.692       716.58781     -404.1937       3.5980698    
 196172000   257.96498     -412.8008      -326.40496     -412.78828      0              6964.4912      30.944         21.33497       32.382072      21378.298      7386.3438      6446.642       7060.4879      1078.7752      44.404274     -397.96523    
 196174000   255.43866     -412.94311     -327.39337     -412.92706      0              6849.8558      30.944         21.33497       32.562391      21497.342      5975.8834      7890.2723      6683.4118      1594.1362      1069.5911      395.45486    
 196176000   255.62141     -411.20978     -325.59884     -411.19705      0              5182.2633      30.944         21.33497       32.607325      21527.008      4784.1552      6743.4228      4019.2119      1672.9365     -90.512915     -763.05694    
 196178000   259.71069     -414.09386     -327.11336     -414.08146      0              5466.3002      30.944         21.33497       32.654155      21557.924      6901.7328      4435.8533      5061.3144      270.17412     -1903.393       957.76245    
 196180000   256.30641     -411.88393     -326.04357     -411.8706       0              7597.1851      30.944         21.33497       32.659499      21561.452      8650.9369      8227.8699      5912.7485      1157.5859     -1436.4153     -671.16278    
 196182000   256.70683     -409.96767     -323.9932      -409.95671      0              5044.3121      30.944         21.33497       32.640189      21548.704      5511.1174      4640.4329      4981.3862     -500.2466      -894.44584     -1428.2002    
 196184000   256.2655      -412.49266     -326.66601     -412.47403      0              5144.3266      30.944         21.33497       32.592639      21517.312      4350.8483      5064.582       6017.5494      1515.1524     -47.147014     -339.2028     
 196186000   248.96632     -414.20155     -330.81949     -414.18245      0              5518.5221      30.944         21.33497       32.598243      21521.011      5757.9504      5005.0015      5792.6143      815.43076     -138.84339     -744.71595    
 196188000   251.91675     -409.16488     -324.79467     -409.15899      0              6478.6989      30.944         21.33497       32.745551      21618.263      6629.4007      6044.9852      6761.7109     -331.55435      422.55767      167.32669    
 196190000   257.23296     -413.53885     -327.38818     -413.52159      0              3416.2453      30.944         21.33497       32.761501      21628.793      4337.0032      2866.2883      3045.4445      1281.1934     -1340.0977      706.04401    
 196192000   261.87912     -412.59471     -324.88798     -412.58012      0              6188.7797      30.944         21.33497       32.599427      21521.793      5476.9532      6495.931       6593.4549      2123.3236      625.45149      1071.8669    
 196194000   250.61227     -410.91099     -326.97768     -410.8947       0              5513.2868      30.944         21.33497       32.574588      21505.395      3232.4183      7133.9451      6173.497       1802.0691      327.25057     -20.70712     
 196196000   250.83261     -413.30362     -329.29651     -413.28646      0              2707.0294      30.944         21.33497       32.570612      21502.77       869.89462      3571.8028      3679.3908      546.6581      -1023.3028     -590.93731    
 196198000   258.56529     -413.67234     -327.07546     -413.65861      0              7695.5125      30.944         21.33497       32.543534      21484.893      6379.4704      8209.7054      8497.3619     -252.94777      1891.5824     -610.07273    
 196200000   257.77451     -412.11849     -325.78645     -412.10126      0              5728.6444      30.944         21.33497       32.547345      21487.409      7212.3174      5869.8456      4103.7701      896.91015      1116.3156      1313.0815    
 196202000   257.17806     -412.07403     -325.94175     -412.05479      0              6945.0414      30.944         21.33497       32.437131      21414.647      4246.7903      7651.0998      8937.2341      2553.3283      60.206103      949.72657    
 196204000   252.03322     -411.84324     -327.43403     -411.824        0              6397.4047      30.944         21.33497       32.404992      21393.429      7401.5719      6563.9425      5226.6997     -533.17803      25.236292      5.9656298    
WARNING: Wall time limit reached (../timer.cpp:193)
Loop time of 85805 on 4 procs for 8021000 steps with 2592 atoms

Performance: 4.038 ns/day, 5.943 hours/ns, 93.479 timesteps/s
1554.3% CPU use with 4 MPI tasks x no OpenMP threads

MPI task timing breakdown:
Section |  min time  |  avg time  |  max time  |%varavg| %total
---------------------------------------------------------------
Pair    | 22520      | 22586      | 22638      |  28.6 | 26.32
Bond    | 0.7526     | 0.79769    | 0.81971    |   3.0 |  0.00
Neigh   | 691.9      | 695.03     | 697.38     |   7.5 |  0.81
Comm    | 2528.5     | 2580.9     | 2647.5     |  85.5 |  3.01
Output  | 26.282     | 26.289     | 26.308     |   0.2 |  0.03
Modify  | 59892      | 59894      | 59896      |   0.6 | 69.80
Other   |            | 22.14      |            |       |  0.03

Nlocal:            648 ave         649 max         646 min
Histogram: 1 0 0 0 0 0 1 0 0 2
Nghost:         4241.5 ave        4256 max        4226 min
Histogram: 1 0 0 1 0 0 0 1 0 1
Neighs:              0 ave           0 max           0 min
Histogram: 4 0 0 0 0 0 0 0 0 0
FullNghs:       166894 ave      167210 max      166628 min
Histogram: 2 0 0 0 0 0 0 1 0 1

Total # of neighbors = 667576
Ave neighs/atom = 257.55247
Ave special neighs/atom = 0
Neighbor list builds = 160420
Dangerous builds not checked
unfix 3
unfix 1
unfix 2


# Finalize simulation
write_restart	restart.lmp.${pid}
write_restart	restart.lmp.0
System init for write_restart ...
Generated 0 of 1 mixed pair_coeff terms from geometric mixing rule
write_data	data.final.${pid} nocoeff
write_data	data.final.0 nocoeff
System init for write_data ...
Generated 0 of 1 mixed pair_coeff terms from geometric mixing rule
Total wall time: 23:50:08
