LAMMPS data file via MDAnalysis

        2592  atoms
           0  bonds
           0  angles
           0  dihedrals
           0  impropers

           2  atom types
           0  bond types
           0  angle types
           0  dihedral types
           0  improper types

0.000000 30.944000 xlo xhi
0.000000 21.334970 ylo yhi
0.000000 30.972715 zlo zhi
-9.144178 0.934598 -10.306873 xy xz yz


Masses

1 1.008000
2 15.999000

Atoms

1 0 1 0.000000 17.549999 11.692000 5.163000
2 0 2 0.000000 17.622000 11.015000 4.476000
3 0 2 0.000000 17.240999 12.495000 4.704000
4 0 1 0.000000 12.521000 5.794000 16.016001
5 0 2 0.000000 13.179000 6.263000 16.528999
6 0 2 0.000000 12.955000 5.627000 15.164000
7 0 1 0.000000 4.308000 15.071000 3.486000
8 0 2 0.000000 4.111000 14.736000 4.370000
9 0 2 0.000000 4.885000 14.476000 2.947000
10 0 1 0.000000 24.018999 9.579000 10.094000
11 0 2 0.000000 24.591000 8.854000 9.799000
12 0 2 0.000000 23.754999 10.153000 9.427000
13 0 1 0.000000 27.478001 3.711000 14.848000
14 0 2 0.000000 -3.275000 4.536000 14.481000
15 0 2 0.000000 -2.665000 3.178000 14.834000
16 0 1 0.000000 2.173000 2.026000 7.012000
17 0 2 0.000000 2.833000 1.256000 6.963000
18 0 2 0.000000 1.819000 2.275000 6.184000
19 0 1 0.000000 2.950000 16.291000 1.615000
20 0 2 0.000000 3.382000 15.797000 2.345000
21 0 2 0.000000 2.973000 17.202999 1.858000
22 0 1 0.000000 -1.160000 3.350000 8.680000
23 0 2 0.000000 -1.209000 3.535000 7.751000
24 0 2 0.000000 -0.602000 4.049000 9.054000
25 0 1 0.000000 19.879999 12.141000 6.466000
26 0 2 0.000000 19.179001 11.948000 5.767000
27 0 2 0.000000 20.534000 12.766000 6.094000
28 0 1 0.000000 3.553000 -0.703000 10.327000
29 0 2 0.000000 4.108000 -1.579000 10.522000
30 0 2 0.000000 2.687000 -0.571000 10.816000
31 0 1 0.000000 0.137000 11.689000 11.647000
32 0 2 0.000000 0.084000 12.571000 12.013000
33 0 2 0.000000 0.505000 11.863000 10.786000
34 0 1 0.000000 0.694000 6.510000 6.952000
35 0 2 0.000000 0.933000 7.441000 6.760000
36 0 2 0.000000 0.018000 6.545000 7.668000
37 0 1 0.000000 8.620000 1.709000 1.801000
38 0 2 0.000000 8.137000 1.595000 2.632000
39 0 2 0.000000 7.855000 1.819000 1.229000
40 0 1 0.000000 3.328000 -3.436000 13.198000
41 0 2 0.000000 3.627000 -4.104000 13.849000
42 0 2 0.000000 3.428000 -2.531000 13.537000
43 0 1 0.000000 17.044001 16.125000 14.754000
44 0 2 0.000000 17.910000 15.708000 14.799000
45 0 2 0.000000 16.452999 15.391000 14.993000
46 0 1 0.000000 -1.976000 6.438000 14.046000
47 0 2 0.000000 -2.147000 7.399000 14.232000
48 0 2 0.000000 -2.138000 6.516000 13.095000
49 0 1 0.000000 9.856000 5.513000 13.046000
50 0 2 0.000000 10.780000 5.293000 12.986000
51 0 2 0.000000 9.905000 6.251000 12.394000
52 0 1 0.000000 13.577000 -2.316000 10.990000
53 0 2 0.000000 13.970000 -1.539000 10.565000
54 0 2 0.000000 13.922000 -3.050000 10.395000
55 0 1 0.000000 9.225000 -0.669000 5.844000
56 0 2 0.000000 10.084000 -0.328000 5.501000
57 0 2 0.000000 9.085000 -0.307000 6.712000
58 0 1 0.000000 20.782000 0.733000 2.517000
59 0 2 0.000000 21.690001 0.706000 2.792000
60 0 2 0.000000 20.444000 -0.157000 2.601000
61 0 1 0.000000 20.716999 16.356001 4.767000
62 0 2 0.000000 20.212999 16.583000 5.541000
63 0 2 0.000000 21.230000 17.202000 4.672000
64 0 1 0.000000 18.879999 14.432000 7.928000
65 0 2 0.000000 19.336000 13.637000 7.616000
66 0 2 0.000000 18.465000 14.138000 8.753000
67 0 1 0.000000 6.128000 7.994000 8.916000
68 0 2 0.000000 5.656000 7.564000 8.192000
69 0 2 0.000000 6.208000 8.959000 8.671000
70 0 1 0.000000 -1.041000 15.700000 14.215000
71 0 2 0.000000 -1.789000 15.730000 14.813000
72 0 2 0.000000 -0.670000 14.807000 14.338000
73 0 1 0.000000 -5.274000 18.731001 4.592000
74 0 2 0.000000 -4.539000 19.004999 5.146000
75 0 2 0.000000 -5.293000 17.761999 4.479000
76 0 1 0.000000 13.658000 1.072000 12.278000
77 0 2 0.000000 12.696000 1.121000 12.392000
78 0 2 0.000000 14.056000 0.593000 13.060000
79 0 1 0.000000 12.744000 13.638000 2.805000
80 0 2 0.000000 12.142000 13.125000 3.402000
81 0 2 0.000000 12.187000 14.424000 2.689000
82 0 1 0.000000 14.529000 7.017000 6.364000
83 0 2 0.000000 14.947000 7.879000 6.146000
84 0 2 0.000000 14.138000 6.804000 5.505000
85 0 1 0.000000 26.798000 8.276000 2.780000
86 0 2 0.000000 27.052999 8.392000 1.834000
87 0 2 0.000000 26.437000 7.426000 2.834000
88 0 1 0.000000 19.617001 -1.476000 11.025000
89 0 2 0.000000 19.371000 -0.579000 10.723000
90 0 2 0.000000 18.841999 -1.913000 11.378000
91 0 1 0.000000 -1.319000 9.869000 6.619000
92 0 2 0.000000 -1.562000 10.786000 6.613000
93 0 2 0.000000 -1.882000 9.441000 5.910000
94 0 1 0.000000 11.563000 16.671000 10.443000
95 0 2 0.000000 11.291000 16.997000 9.577000
96 0 2 0.000000 10.948000 17.108000 11.064000
97 0 1 0.000000 -1.424000 12.539000 1.746000
98 0 2 0.000000 -1.874000 13.305000 1.372000
99 0 2 0.000000 -0.621000 12.855000 2.086000
100 0 1 0.000000 10.740000 -1.948000 10.402000
101 0 2 0.000000 11.701000 -2.003000 10.656000
102 0 2 0.000000 10.493000 -1.013000 10.594000
103 0 1 0.000000 23.559999 2.019000 13.480000
104 0 2 0.000000 23.172001 2.697000 12.964000
105 0 2 0.000000 23.681999 2.442000 14.312000
106 0 1 0.000000 14.100000 17.232000 11.299000
107 0 2 0.000000 22.830999 -3.143000 11.527000
108 0 2 0.000000 13.376000 16.875000 10.824000
109 0 1 0.000000 26.403999 4.931000 1.453000
110 0 2 0.000000 26.149000 5.715000 0.964000
111 0 2 0.000000 26.139000 5.111000 2.330000
112 0 1 0.000000 10.606000 19.615000 2.318000
113 0 2 0.000000 10.291000 19.035999 3.073000
114 0 2 0.000000 9.889000 19.914000 1.778000
115 0 1 0.000000 16.330999 9.688000 11.448000
116 0 2 0.000000 15.577000 10.020000 11.902000
117 0 2 0.000000 17.028000 10.311000 11.634000
118 0 1 0.000000 20.341000 1.682000 13.974000
119 0 2 0.000000 19.636000 2.276000 13.584000
120 0 2 0.000000 21.077000 1.754000 13.327000
121 0 1 0.000000 2.728000 15.938000 8.361000
122 0 2 0.000000 2.696000 15.501000 9.209000
123 0 2 0.000000 2.481000 16.855000 8.494000
124 0 1 0.000000 11.346000 7.877000 4.614000
125 0 2 0.000000 11.934000 7.901000 3.835000
126 0 2 0.000000 11.761000 7.202000 5.176000
127 0 1 0.000000 3.473000 11.808000 5.014000
128 0 2 0.000000 4.353000 12.131000 5.261000
129 0 2 0.000000 2.783000 12.230000 5.582000
130 0 1 0.000000 0.732000 4.927000 10.151000
131 0 2 0.000000 0.232000 5.338000 10.812000
132 0 2 0.000000 1.324000 5.611000 9.856000
133 0 1 0.000000 28.121000 2.552000 11.238000
134 0 2 0.000000 27.503000 2.605000 11.999000
135 0 2 0.000000 -1.996000 2.936000 11.544000
136 0 1 0.000000 16.957001 -2.612000 16.040001
137 0 2 0.000000 17.261000 -2.223000 16.896000
138 0 2 0.000000 16.129999 -2.173000 15.758000
139 0 1 0.000000 2.487000 16.334999 13.328000
140 0 2 0.000000 2.250000 15.382000 13.244000
141 0 2 0.000000 2.262000 16.575001 14.232000
142 0 1 0.000000 -2.163000 5.435000 11.300000
143 0 2 0.000000 -3.057000 5.114000 11.043000
144 0 2 0.000000 -2.080000 5.937000 10.439000
145 0 1 0.000000 6.066000 -2.690000 14.969000
146 0 2 0.000000 5.335000 -2.275000 14.526000
147 0 2 0.000000 6.617000 -3.092000 14.256000
148 0 1 0.000000 22.006001 4.358000 13.653000
149 0 2 0.000000 22.417999 5.236000 13.758000
150 0 2 0.000000 21.716999 4.223000 14.547000
151 0 1 0.000000 12.419000 13.724000 13.586000
152 0 2 0.000000 12.789000 13.096000 14.321000
153 0 2 0.000000 12.592000 13.199000 12.778000
154 0 1 0.000000 24.903999 2.629000 15.362000
155 0 2 0.000000 25.101000 1.729000 15.607000
156 0 2 0.000000 25.730000 3.073000 15.314000
157 0 1 0.000000 16.639000 11.396000 7.672000
158 0 2 0.000000 16.549000 10.478000 7.831000
159 0 2 0.000000 16.874001 11.611000 6.791000
160 0 1 0.000000 -0.295000 14.362000 12.581000
161 0 2 0.000000 0.430000 14.797000 12.075000
162 0 2 0.000000 -1.165000 14.466000 12.149000
163 0 1 0.000000 6.001000 6.272000 2.155000
164 0 2 0.000000 5.383000 6.959000 1.775000
165 0 2 0.000000 6.806000 6.539000 1.595000
166 0 1 0.000000 20.674999 -1.594000 13.935000
167 0 2 0.000000 20.709999 -0.668000 14.230000
168 0 2 0.000000 21.450001 -2.042000 14.252000
169 0 1 0.000000 14.919000 4.035000 1.108000
170 0 2 0.000000 14.496000 3.216000 1.548000
171 0 2 0.000000 15.047000 4.722000 1.779000
172 0 1 0.000000 28.875000 3.840000 1.092000
173 0 2 0.000000 28.224001 4.407000 1.486000
174 0 2 0.000000 28.989000 2.962000 1.540000
175 0 1 0.000000 22.752001 -0.094000 7.023000
176 0 2 0.000000 23.599001 -0.539000 6.987000
177 0 2 0.000000 22.622999 0.082000 7.971000
178 0 1 0.000000 6.134000 14.568000 9.081000
179 0 2 0.000000 6.995000 14.607000 8.678000
180 0 2 0.000000 5.938000 13.787000 9.632000
181 0 1 0.000000 7.898000 18.122000 5.756000
182 0 2 0.000000 7.237000 17.655001 5.173000
183 0 2 0.000000 7.676000 17.827000 6.662000
184 0 1 0.000000 13.093000 8.223000 11.751000
185 0 2 0.000000 13.544000 7.633000 11.121000
186 0 2 0.000000 13.028000 9.133000 11.432000
187 0 1 0.000000 15.108000 -0.415000 7.086000
188 0 2 0.000000 14.805000 -1.170000 6.520000
189 0 2 0.000000 15.070000 0.315000 6.431000
190 0 1 0.000000 1.241000 15.757000 4.016000
191 0 2 0.000000 1.380000 14.952000 3.520000
192 0 2 0.000000 1.207000 15.471000 4.996000
193 0 1 0.000000 17.517000 2.302000 6.963000
194 0 2 0.000000 17.882999 3.128000 6.551000
195 0 2 0.000000 18.215000 1.687000 6.952000
196 0 1 0.000000 23.289000 7.060000 12.644000
197 0 2 0.000000 22.788000 7.851000 12.542000
198 0 2 0.000000 23.298000 6.571000 11.810000
199 0 1 0.000000 5.313000 10.637000 14.123000
200 0 2 0.000000 6.042000 10.042000 14.331000
201 0 2 0.000000 5.624000 11.507000 13.904000
202 0 1 0.000000 10.551000 18.351999 8.425000
203 0 2 0.000000 19.580000 -2.463000 9.223000
204 0 2 0.000000 9.663000 17.941999 8.251000
205 0 1 0.000000 29.879999 -2.443000 8.288000
206 0 2 0.000000 28.931999 -2.191000 8.362000
207 0 2 0.000000 30.313999 -1.579000 8.070000
208 0 1 0.000000 20.573000 3.757000 15.447000
209 0 2 0.000000 20.464001 2.908000 14.813000
210 0 2 0.000000 20.093000 4.473000 15.027000
211 0 1 0.000000 4.141000 5.725000 16.580000
212 0 2 0.000000 3.353000 6.285000 16.532000
213 0 2 0.000000 4.570000 5.874000 15.726000
214 0 1 0.000000 18.815001 5.714000 14.742000
215 0 2 0.000000 19.540001 6.355000 14.700000
216 0 2 0.000000 18.527000 5.718000 15.646000
217 0 1 0.000000 17.971001 8.422000 7.101000
218 0 2 0.000000 17.367001 8.270000 7.883000
219 0 2 0.000000 18.643999 7.762000 7.377000
220 0 1 0.000000 13.729000 12.122000 1.209000
221 0 2 0.000000 13.057000 12.737000 1.536000
222 0 2 0.000000 14.454000 12.703000 1.176000
223 0 1 0.000000 5.999000 12.984000 2.216000
224 0 2 0.000000 5.687000 12.089000 2.580000
225 0 2 0.000000 5.495000 13.157000 1.397000
226 0 1 0.000000 25.572001 1.415000 2.119000
227 0 2 0.000000 25.396999 2.355000 2.308000
228 0 2 0.000000 26.514000 1.332000 2.209000
229 0 1 0.000000 25.414000 8.611000 13.528000
230 0 2 0.000000 24.701000 8.033000 13.136000
231 0 2 0.000000 -4.770000 8.651000 12.912000
232 0 1 0.000000 -6.030000 11.476000 11.944000
233 0 2 0.000000 -5.411000 11.134000 12.623000
234 0 2 0.000000 24.750999 10.786000 11.273000
235 0 1 0.000000 -3.048000 15.385000 11.969000
236 0 2 0.000000 -3.853000 15.054000 12.396000
237 0 2 0.000000 -3.199000 15.387000 11.008000
238 0 1 0.000000 19.916000 3.204000 3.422000
239 0 2 0.000000 20.221001 2.236000 3.436000
240 0 2 0.000000 19.268000 3.277000 2.716000
241 0 1 0.000000 1.831000 7.362000 12.628000
242 0 2 0.000000 2.446000 8.039000 12.975000
243 0 2 0.000000 2.070000 6.539000 13.057000
244 0 1 0.000000 -0.311000 16.672001 9.156000
245 0 2 0.000000 -0.080000 16.607000 10.073000
246 0 2 0.000000 0.038000 17.468000 8.783000
247 0 1 0.000000 15.335000 17.263000 1.005000
248 0 2 0.000000 14.788000 17.753000 1.648000
249 0 2 0.000000 14.780000 16.511000 0.683000
250 0 1 0.000000 20.534000 2.885000 8.254000
251 0 2 0.000000 20.898001 2.574000 7.413000
252 0 2 0.000000 19.938000 3.588000 7.974000
253 0 1 0.000000 6.867000 8.598000 14.339000
254 0 2 0.000000 7.616000 8.263000 14.866000
255 0 2 0.000000 6.082000 8.071000 14.572000
256 0 1 0.000000 16.888000 -2.841000 11.077000
257 0 2 0.000000 15.995000 -2.553000 11.382000
258 0 2 0.000000 7.708000 17.492001 11.077000
259 0 1 0.000000 6.650000 1.974000 8.523000
260 0 2 0.000000 5.809000 1.887000 8.978000
261 0 2 0.000000 6.454000 2.557000 7.760000
262 0 1 0.000000 8.532000 4.173000 4.860000
263 0 2 0.000000 9.175000 3.723000 5.531000
264 0 2 0.000000 8.808000 5.085000 4.697000
265 0 1 0.000000 10.332000 7.576000 11.579000
266 0 2 0.000000 11.205000 7.909000 11.698000
267 0 2 0.000000 9.800000 8.076000 10.954000
268 0 1 0.000000 14.308000 6.142000 10.603000
269 0 2 0.000000 14.174000 5.770000 9.720000
270 0 2 0.000000 15.244000 6.060000 10.803000
271 0 1 0.000000 15.563000 3.222000 11.887000
272 0 2 0.000000 14.583000 3.078000 12.083000
273 0 2 0.000000 15.860000 2.310000 11.837000
274 0 1 0.000000 2.167000 18.427000 5.075000
275 0 2 0.000000 2.008000 19.174000 4.480000
276 0 2 0.000000 2.129000 17.652000 4.492000
277 0 1 0.000000 0.595000 15.083000 6.677000
278 0 2 0.000000 -0.159000 15.663000 6.491000
279 0 2 0.000000 1.190000 15.587000 7.314000
280 0 1 0.000000 16.763000 12.227000 15.313000
281 0 2 0.000000 16.330999 13.066000 15.573000
282 0 2 0.000000 17.676001 12.372000 15.201000
283 0 1 0.000000 13.095000 8.008000 8.432000
284 0 2 0.000000 13.219000 7.526000 7.578000
285 0 2 0.000000 12.518000 8.735000 8.313000
286 0 1 0.000000 2.970000 9.674000 13.337000
287 0 2 0.000000 2.448000 10.375000 13.721000
288 0 2 0.000000 3.898000 9.982000 13.472000
289 0 1 0.000000 16.073000 5.576000 13.744000
290 0 2 0.000000 16.980000 5.682000 14.082000
291 0 2 0.000000 15.697000 4.730000 14.047000
292 0 1 0.000000 -3.838000 11.419000 13.493000
293 0 2 0.000000 -3.824000 10.628000 14.058000
294 0 2 0.000000 -3.347000 11.097000 12.671000
295 0 1 0.000000 8.490000 10.316000 5.091000
296 0 2 0.000000 9.079000 10.399000 5.843000
297 0 2 0.000000 8.229000 9.389000 4.963000
298 0 1 0.000000 15.589000 2.522000 8.985000
299 0 2 0.000000 16.514000 2.508000 8.680000
300 0 2 0.000000 15.598000 2.878000 9.873000
301 0 1 0.000000 25.620001 4.993000 11.207000
302 0 2 0.000000 25.301001 4.066000 11.172000
303 0 2 0.000000 25.618000 5.319000 12.168000
304 0 1 0.000000 4.241000 12.090000 8.254000
305 0 2 0.000000 3.701000 11.450000 7.741000
306 0 2 0.000000 4.269000 12.833000 7.628000
307 0 1 0.000000 7.566000 7.694000 5.095000
308 0 2 0.000000 6.659000 7.839000 5.277000
309 0 2 0.000000 7.663000 7.135000 4.285000
310 0 1 0.000000 -0.091000 9.591000 14.876000
311 0 2 0.000000 -0.356000 9.203000 13.993000
312 0 2 0.000000 0.530000 8.915000 15.196000
313 0 1 0.000000 16.114000 8.673000 8.871000
314 0 2 0.000000 16.184999 9.044000 9.752000
315 0 2 0.000000 15.227000 8.416000 8.803000
316 0 1 0.000000 2.660000 7.475000 9.988000
317 0 2 0.000000 2.598000 7.302000 10.928000
318 0 2 0.000000 3.357000 6.877000 9.671000
319 0 1 0.000000 6.552000 2.119000 12.289000
320 0 2 0.000000 6.152000 2.699000 13.012000
321 0 2 0.000000 5.853000 1.970000 11.664000
322 0 1 0.000000 13.096000 3.127000 4.588000
323 0 2 0.000000 13.295000 4.070000 4.292000
324 0 2 0.000000 13.951000 2.640000 4.671000
325 0 1 0.000000 21.840000 2.747000 1.091000
326 0 2 0.000000 21.228001 2.145000 1.468000
327 0 2 0.000000 22.285000 3.156000 1.830000
328 0 1 0.000000 0.951000 11.080000 9.024000
329 0 2 0.000000 1.001000 11.373000 8.122000
330 0 2 0.000000 0.484000 10.206000 9.110000
331 0 1 0.000000 6.158000 20.709000 1.426000
332 0 2 0.000000 15.829000 -0.575000 2.175000
333 0 2 0.000000 6.648000 20.218000 0.827000
334 0 1 0.000000 26.223000 -2.957000 13.562000
335 0 2 0.000000 25.548000 -3.513000 13.951000
336 0 2 0.000000 25.841000 -2.295000 13.019000
337 0 1 0.000000 7.358000 5.649000 14.166000
338 0 2 0.000000 6.702000 6.345000 14.115000
339 0 2 0.000000 8.222000 5.980000 13.980000
340 0 1 0.000000 8.850000 13.318000 11.537000
341 0 2 0.000000 8.625000 12.785000 12.338000
342 0 2 0.000000 8.103000 13.899000 11.292000
343 0 1 0.000000 24.103001 2.874000 10.195000
344 0 2 0.000000 24.584999 2.002000 10.068000
345 0 2 0.000000 23.193001 2.693000 10.536000
346 0 1 0.000000 -2.764000 15.876000 9.246000
347 0 2 0.000000 -2.787000 14.918000 9.187000
348 0 2 0.000000 -1.819000 16.127001 9.246000
349 0 1 0.000000 11.163000 14.887000 6.605000
350 0 2 0.000000 11.727000 14.577000 7.339000
351 0 2 0.000000 11.663000 15.634000 6.213000
352 0 1 0.000000 14.637000 16.051001 3.214000
353 0 2 0.000000 15.033000 15.459000 2.576000
354 0 2 0.000000 15.402000 16.480000 3.600000
355 0 1 0.000000 -2.449000 5.850000 2.845000
356 0 2 0.000000 -1.612000 5.904000 3.292000
357 0 2 0.000000 28.214001 4.965000 3.104000
358 0 1 0.000000 -0.470000 17.455000 1.697000
359 0 2 0.000000 -0.036000 16.575001 1.757000
360 0 2 0.000000 -0.359000 17.771999 2.608000
361 0 1 0.000000 3.196000 9.444000 7.720000
362 0 2 0.000000 3.195000 9.086000 8.619000
363 0 2 0.000000 2.312000 9.445000 7.248000
364 0 1 0.000000 -3.229000 6.426000 16.688000
365 0 2 0.000000 -4.170000 6.220000 16.688999
366 0 2 0.000000 -2.865000 5.700000 17.191999
367 0 1 0.000000 16.538000 8.241000 2.678000
368 0 2 0.000000 15.642000 7.943000 2.754000
369 0 2 0.000000 17.150000 7.473000 2.448000
370 0 1 0.000000 7.167000 -2.174000 8.031000
371 0 2 0.000000 7.790000 -1.569000 8.408000
372 0 2 0.000000 6.473000 -2.330000 8.701000
373 0 1 0.000000 14.447000 15.411000 13.347000
374 0 2 0.000000 14.324000 16.124001 12.714000
375 0 2 0.000000 13.561000 14.950000 13.473000
376 0 1 0.000000 23.486000 15.365000 7.083000
377 0 2 0.000000 22.794001 15.317000 7.737000
378 0 2 0.000000 -6.881000 14.555000 7.114000
379 0 1 0.000000 -4.668000 15.797000 3.704000
380 0 2 0.000000 -4.346000 15.923000 2.822000
381 0 2 0.000000 -5.504000 15.307000 3.642000
382 0 1 0.000000 13.564000 -0.056000 3.380000
383 0 2 0.000000 13.695000 -0.957000 3.126000
384 0 2 0.000000 13.160000 -0.165000 4.264000
385 0 1 0.000000 11.467000 10.329000 5.996000
386 0 2 0.000000 12.392000 10.509000 5.855000
387 0 2 0.000000 11.314000 9.482000 5.466000
388 0 1 0.000000 6.406000 16.811001 3.873000
389 0 2 0.000000 5.702000 16.190001 3.642000
390 0 2 0.000000 6.620000 17.457001 3.172000
391 0 1 0.000000 16.989000 5.595000 11.071000
392 0 2 0.000000 16.723000 4.843000 11.657000
393 0 2 0.000000 17.502001 6.204000 11.620000
394 0 1 0.000000 7.888000 16.153000 14.295000
395 0 2 0.000000 8.673000 15.628000 14.406000
396 0 2 0.000000 17.191999 -4.370000 13.822000
397 0 1 0.000000 18.820000 7.747000 1.644000
398 0 2 0.000000 19.764000 7.400000 1.768000
399 0 2 0.000000 18.534000 7.446000 0.770000
400 0 1 0.000000 26.215000 1.044000 9.953000
401 0 2 0.000000 26.552999 0.448000 9.231000
402 0 2 0.000000 26.938000 1.457000 10.345000
403 0 1 0.000000 6.942000 10.219000 11.349000
404 0 2 0.000000 6.326000 9.487000 11.485000
405 0 2 0.000000 7.463000 10.462000 12.105000
406 0 1 0.000000 16.622000 14.142000 12.723000
407 0 2 0.000000 17.323000 14.467000 13.255000
408 0 2 0.000000 15.788000 14.693000 12.846000
409 0 1 0.000000 -1.639000 4.526000 5.596000
410 0 2 0.000000 28.496000 4.202000 5.214000
411 0 2 0.000000 -0.884000 4.190000 5.176000
412 0 1 0.000000 28.431999 1.222000 3.100000
413 0 2 0.000000 28.806999 0.664000 2.414000
414 0 2 0.000000 28.811001 0.989000 3.965000
415 0 1 0.000000 21.566000 9.188000 11.555000
416 0 2 0.000000 22.358000 9.317000 10.945000
417 0 2 0.000000 20.840000 8.972000 10.924000
418 0 1 0.000000 -0.108000 8.491000 2.241000
419 0 2 0.000000 -0.076000 9.395000 2.607000
420 0 2 0.000000 0.028000 7.955000 3.029000
421 0 1 0.000000 5.001000 6.507000 6.960000
422 0 2 0.000000 5.632000 5.767000 6.910000
423 0 2 0.000000 4.217000 5.882000 6.975000
424 0 1 0.000000 0.516000 17.399000 11.723000
425 0 2 0.000000 9.991000 -3.114000 11.355000
426 0 2 0.000000 1.160000 17.164000 12.390000
427 0 1 0.000000 3.551000 -0.941000 14.320000
428 0 2 0.000000 4.217000 -0.223000 14.181000
429 0 2 0.000000 2.670000 -0.573000 14.503000
430 0 1 0.000000 4.774000 1.757000 10.492000
431 0 2 0.000000 4.267000 2.553000 10.448000
432 0 2 0.000000 4.198000 1.035000 10.625000
433 0 1 0.000000 -0.129000 2.898000 12.236000
434 0 2 0.000000 0.566000 2.444000 11.711000
435 0 2 0.000000 0.284000 3.719000 12.647000
436 0 1 0.000000 14.241000 7.525000 14.099000
437 0 2 0.000000 13.912000 7.671000 13.183000
438 0 2 0.000000 15.068000 6.995000 14.091000
439 0 1 0.000000 4.297000 4.553000 9.855000
440 0 2 0.000000 5.019000 5.178000 10.107000
441 0 2 0.000000 4.150000 4.659000 8.906000
442 0 1 0.000000 9.832000 3.223000 7.141000
443 0 2 0.000000 9.569000 3.552000 8.005000
444 0 2 0.000000 10.545000 2.566000 7.242000
445 0 1 0.000000 -3.742000 10.838000 4.980000
446 0 2 0.000000 -3.151000 11.655000 4.773000
447 0 2 0.000000 -3.470000 10.249000 4.286000
448 0 1 0.000000 19.247000 -4.068000 12.801000
449 0 2 0.000000 18.882000 -3.237000 13.170000
450 0 2 0.000000 19.986000 -4.253000 13.401000
451 0 1 0.000000 -6.948000 18.941999 1.204000
452 0 2 0.000000 -7.552000 19.629000 1.436000
453 0 2 0.000000 -7.349000 18.056999 1.402000
454 0 1 0.000000 25.219999 -0.731000 11.877000
455 0 2 0.000000 24.624001 -0.474000 12.643000
456 0 2 0.000000 25.469000 0.017000 11.223000
457 0 1 0.000000 24.249001 13.707000 4.250000
458 0 2 0.000000 24.396999 13.623000 3.313000
459 0 2 0.000000 23.306000 13.740000 4.432000
460 0 1 0.000000 21.541000 15.222000 1.357000
461 0 2 0.000000 22.128000 14.628000 0.836000
462 0 2 0.000000 21.155001 15.890000 0.729000
463 0 1 0.000000 2.575000 13.412000 12.802000
464 0 2 0.000000 2.312000 13.196000 11.889000
465 0 2 0.000000 3.563000 13.525000 12.865000
466 0 1 0.000000 21.794001 12.390000 3.105000
467 0 2 0.000000 21.670000 12.443000 4.050000
468 0 2 0.000000 20.988001 12.760000 2.736000
469 0 1 0.000000 25.930000 7.409000 9.874000
470 0 2 0.000000 25.754999 6.663000 10.434000
471 0 2 0.000000 26.219000 7.134000 9.003000
472 0 1 0.000000 11.366000 7.868000 14.326000
473 0 2 0.000000 11.505000 7.124000 14.930000
474 0 2 0.000000 10.445000 8.112000 14.381000
475 0 1 0.000000 4.966000 8.308000 11.474000
476 0 2 0.000000 5.133000 7.927000 10.596000
477 0 2 0.000000 4.164000 8.793000 11.353000
478 0 1 0.000000 25.903999 5.686000 14.309000
479 0 2 0.000000 26.540001 6.377000 14.285000
480 0 2 0.000000 25.166000 6.180000 13.972000
481 0 1 0.000000 -4.810000 20.320999 2.335000
482 0 2 0.000000 -5.505000 20.051001 1.716000
483 0 2 0.000000 -4.972000 19.848000 3.119000
484 0 1 0.000000 21.712999 18.450001 3.112000
485 0 2 0.000000 21.354000 18.934999 2.390000
486 0 2 0.000000 -8.503000 18.959999 3.518000
487 0 1 0.000000 18.180000 17.136000 9.059000
488 0 2 0.000000 17.774000 16.351999 9.443000
489 0 2 0.000000 17.471001 17.792000 9.313000
490 0 1 0.000000 8.752000 8.890000 9.719000
491 0 2 0.000000 8.424000 8.281000 9.064000
492 0 2 0.000000 8.007000 9.358000 10.112000
493 0 1 0.000000 1.554000 18.735001 1.453000
494 0 2 0.000000 1.259000 19.650000 1.268000
495 0 2 0.000000 0.746000 18.219000 1.412000
496 0 1 0.000000 17.243999 0.092000 3.500000
497 0 2 0.000000 18.011000 0.149000 4.096000
498 0 2 0.000000 17.424000 0.519000 2.700000
499 0 1 0.000000 11.104000 2.809000 2.628000
500 0 2 0.000000 11.744000 2.878000 3.360000
501 0 2 0.000000 10.873000 1.836000 2.773000
502 0 1 0.000000 4.249000 3.230000 5.181000
503 0 2 0.000000 3.809000 4.000000 4.769000
504 0 2 0.000000 4.333000 2.562000 4.467000
505 0 1 0.000000 -3.558000 14.887000 5.851000
506 0 2 0.000000 -3.925000 15.650000 6.310000
507 0 2 0.000000 -3.853000 15.040000 4.937000
508 0 1 0.000000 2.481000 4.994000 3.532000
509 0 2 0.000000 2.707000 4.907000 2.561000
510 0 2 0.000000 2.966000 5.778000 3.845000
511 0 1 0.000000 4.733000 18.073999 6.400000
512 0 2 0.000000 5.372000 17.830999 5.727000
513 0 2 0.000000 3.900000 18.079000 5.880000
514 0 1 0.000000 7.750000 15.681000 1.479000
515 0 2 0.000000 8.349000 15.221000 2.101000
516 0 2 0.000000 7.375000 15.008000 0.934000
517 0 1 0.000000 16.448999 15.069000 6.840000
518 0 2 0.000000 17.240999 14.975000 7.381000
519 0 2 0.000000 16.032000 15.899000 7.002000
520 0 1 0.000000 20.618000 7.660000 14.422000
521 0 2 0.000000 21.530001 7.360000 14.588000
522 0 2 0.000000 20.492001 7.893000 13.538000
523 0 1 0.000000 7.630000 18.731001 2.610000
524 0 2 0.000000 8.027000 19.504999 3.080000
525 0 2 0.000000 8.339000 18.124001 2.339000
526 0 1 0.000000 21.452000 -4.417000 14.483000
527 0 2 0.000000 11.665000 16.207001 14.608000
528 0 2 0.000000 13.007000 16.503000 13.936000
529 0 1 0.000000 -1.202000 4.562000 15.952000
530 0 2 0.000000 -1.589000 5.420000 15.780000
531 0 2 0.000000 -0.881000 4.262000 15.120000
532 0 1 0.000000 3.940000 12.935000 15.402000
533 0 2 0.000000 3.860000 13.812000 15.028000
534 0 2 0.000000 3.412000 12.415000 14.795000
535 0 1 0.000000 19.058001 15.224000 2.727000
536 0 2 0.000000 18.684999 15.966000 2.230000
537 0 2 0.000000 19.652000 15.622000 3.432000
538 0 1 0.000000 -5.826000 13.215000 6.687000
539 0 2 0.000000 -6.094000 13.287000 5.745000
540 0 2 0.000000 -4.950000 13.620000 6.681000
541 0 1 0.000000 -2.799000 7.541000 5.262000
542 0 2 0.000000 -2.098000 6.846000 5.266000
543 0 2 0.000000 -3.003000 7.817000 4.341000
544 0 1 0.000000 -4.218000 10.589000 0.675000
545 0 2 0.000000 -3.729000 9.756000 0.500000
546 0 2 0.000000 -4.085000 10.712000 1.630000
547 0 1 0.000000 -0.621000 20.440001 1.415000
548 0 2 0.000000 8.516000 0.052000 1.640000
549 0 2 0.000000 -1.544000 20.177999 1.620000
550 0 1 0.000000 30.025000 1.566000 1.097000
551 0 2 0.000000 30.125999 1.819000 0.145000
552 0 2 0.000000 -0.124000 1.971000 1.473000
553 0 1 0.000000 28.124001 -1.735000 11.099000
554 0 2 0.000000 27.218000 -1.577000 11.193000
555 0 2 0.000000 28.465000 -2.087000 11.930000
556 0 1 0.000000 27.271999 3.619000 3.876000
557 0 2 0.000000 27.687000 2.764000 3.848000
558 0 2 0.000000 26.600000 3.758000 4.582000
559 0 1 0.000000 17.989000 -1.557000 13.427000
560 0 2 0.000000 17.216999 -1.948000 13.894000
561 0 2 0.000000 18.695999 -1.337000 14.094000
562 0 1 0.000000 2.999000 4.529000 7.307000
563 0 2 0.000000 2.278000 5.176000 7.196000
564 0 2 0.000000 2.662000 3.660000 7.192000
565 0 1 0.000000 6.360000 4.103000 6.566000
566 0 2 0.000000 5.608000 3.815000 5.959000
567 0 2 0.000000 7.127000 4.161000 5.985000
568 0 1 0.000000 21.783001 0.072000 9.663000
569 0 2 0.000000 20.863001 -0.009000 9.321000
570 0 2 0.000000 21.934999 -0.598000 10.333000
571 0 1 0.000000 5.774000 10.036000 2.722000
572 0 2 0.000000 6.613000 9.739000 2.273000
573 0 2 0.000000 5.600000 9.408000 3.404000
574 0 1 0.000000 3.674000 8.167000 1.869000
575 0 2 0.000000 4.182000 9.019000 1.987000
576 0 2 0.000000 2.801000 8.561000 1.776000
577 0 1 0.000000 6.662000 -1.790000 30.426001
578 0 2 0.000000 5.856000 -1.618000 30.875999
579 0 2 0.000000 6.991000 -2.531000 30.912001
580 0 1 0.000000 16.549999 0.624000 11.876000
581 0 2 0.000000 16.372000 0.109000 11.094000
582 0 2 0.000000 17.045000 0.051000 12.511000
583 0 1 0.000000 23.638000 2.979000 3.861000
584 0 2 0.000000 23.311001 3.933000 3.717000
585 0 2 0.000000 24.115999 2.834000 3.006000
586 0 1 0.000000 17.306999 14.389000 10.053000
587 0 2 0.000000 17.066999 14.399000 10.974000
588 0 2 0.000000 16.499001 14.012000 9.683000
589 0 1 0.000000 23.367001 -0.183000 2.895000
590 0 2 0.000000 24.183001 0.342000 2.881000
591 0 2 0.000000 14.399000 20.245001 3.149000
592 0 1 0.000000 -6.184000 10.874000 14.748000
593 0 2 0.000000 24.819000 10.031000 14.265000
594 0 2 0.000000 -5.351000 11.311000 14.594000
595 0 1 0.000000 18.854000 16.622000 12.074000
596 0 2 0.000000 19.184999 17.253000 11.405000
597 0 2 0.000000 18.235001 17.136999 12.571000
598 0 1 0.000000 26.201000 6.990000 7.248000
599 0 2 0.000000 25.372999 7.396000 7.003000
600 0 2 0.000000 26.870001 7.071000 6.569000
601 0 1 0.000000 5.477000 13.867000 13.042000
602 0 2 0.000000 6.037000 13.632000 13.818000
603 0 2 0.000000 5.763000 13.304000 12.220000
604 0 1 0.000000 6.258000 1.593000 0.920000
605 0 2 0.000000 5.651000 1.648000 1.712000
606 0 2 0.000000 6.293000 0.685000 0.521000
607 0 1 0.000000 25.075001 -2.521000 9.601000
608 0 2 0.000000 25.007999 -2.088000 10.466000
609 0 2 0.000000 24.434999 -3.210000 9.771000
610 0 1 0.000000 20.941000 9.856000 2.105000
611 0 2 0.000000 21.347000 10.713000 2.323000
612 0 2 0.000000 19.987000 10.041000 2.305000
613 0 1 0.000000 21.296000 15.528000 8.592000
614 0 2 0.000000 20.396999 15.543000 8.345000
615 0 2 0.000000 21.434999 16.240999 9.308000
616 0 1 0.000000 13.809000 0.153000 9.790000
617 0 2 0.000000 14.347000 0.493000 9.110000
618 0 2 0.000000 13.973000 0.684000 10.601000
619 0 1 0.000000 18.466000 4.787000 1.898000
620 0 2 0.000000 17.941000 4.963000 1.103000
621 0 2 0.000000 18.860001 5.653000 2.045000
622 0 1 0.000000 24.653999 0.896000 5.598000
623 0 2 0.000000 24.361000 1.604000 5.028000
624 0 2 0.000000 25.031000 0.291000 4.976000
625 0 1 0.000000 6.223000 4.027000 3.463000
626 0 2 0.000000 5.612000 3.860000 4.183000
627 0 2 0.000000 7.101000 4.188000 3.828000
628 0 1 0.000000 27.049000 1.789000 6.511000
629 0 2 0.000000 26.917999 2.489000 7.221000
630 0 2 0.000000 26.152000 1.592000 6.218000
631 0 1 0.000000 10.421000 3.520000 14.356000
632 0 2 0.000000 9.684000 4.169000 14.441000
633 0 2 0.000000 10.481000 3.238000 15.300000
634 0 1 0.000000 5.560000 -2.614000 10.529000
635 0 2 0.000000 -4.011000 17.837000 10.494000
636 0 2 0.000000 6.139000 -2.617000 11.279000
637 0 1 0.000000 0.947000 -1.248000 14.854000
638 0 2 0.000000 0.308000 -1.134000 15.612000
639 0 2 0.000000 0.772000 -2.206000 14.633000
640 0 1 0.000000 1.199000 12.365000 6.486000
641 0 2 0.000000 1.068000 13.314000 6.419000
642 0 2 0.000000 0.655000 12.011000 5.768000
643 0 1 0.000000 26.226000 2.322000 13.065000
644 0 2 0.000000 25.252001 2.277000 13.127000
645 0 2 0.000000 26.483999 3.045000 13.695000
646 0 1 0.000000 24.586000 -9.117000 30.441999
647 0 2 0.000000 23.076000 1.675000 0.110000
648 0 2 0.000000 25.422001 -9.109000 30.909000
649 0 1 0.000000 1.176000 -0.061000 12.098000
650 0 2 0.000000 0.961000 -0.614000 12.824000