LAMMPS data file via write_data, version 23 Jun 2022, timestep = 3784000

2268 atoms
2 atom types

0.8509689988225588 46.59973000116642 xlo xhi
0 20.047001 ylo yhi
0 20.857 zlo zhi

Masses

1 1.008
2 15.999

Atoms # full

1822 0 1 -1.1794 2.273393787704432 2.5873545791192263 1.3045304066125352 0 0 0
1823 0 2 0.5897 2.05030591863085 1.708496441740895 1.7858755908224977 0 0 0
762 0 2 0.5897 4.811960607208971 1.3033804364817934 1.4221283419987003 0 1 -1
760 0 1 -1.1794 5.381174166251078 2.048292440011086 1.15566054992622 0 1 -1
761 0 2 0.5897 5.8392662559256046 2.2110028252386282 2.0075605232549725 0 1 -1
1981 0 1 -1.1794 5.735339277769169 0.5041505937277243 3.357370267204132 1 0 0
1994 0 2 0.5897 4.37839557327421 3.4577765962019664 3.6506768959056357 1 1 1
2063 0 2 0.5897 3.4641338902907455 3.8686476584086202 1.8826919450044568 0 0 1
285 0 2 0.5897 2.02060414354022 0.10281249749403808 3.575162992386506 0 0 0
283 0 1 -1.1794 1.8808343159252507 0.18419339129871862 2.5801983751037416 0 0 0
1115 0 2 0.5897 5.270908553705223 3.154716365628002 0.031394971627514597 0 1 0
1824 0 2 0.5897 1.3706859530348277 2.838258169061153 0.936235891170255 0 0 0
1982 0 2 0.5897 5.116922602755106 1.2111149445660316 3.625376027129635 1 0 0
1993 0 1 -1.1794 4.1104923217787555 2.676775792199554 4.151865152142422 1 1 1
1847 0 2 0.5897 7.166044593954979 1.2060206158164937 0.41937839964974094 0 0 1
1848 0 2 0.5897 8.49159311896722 1.7683838152796465 1.100790348326249 0 0 1
1846 0 1 -1.1794 8.137250121843422 1.2096491113214167 0.41421447974766107 0 0 1
1309 0 1 -1.1794 7.724481576441846 3.0488418545263762 2.5281695478057147 0 0 1
1310 0 2 0.5897 8.571432662394653 3.1220289222329 2.969832595649932 0 0 1
771 0 2 0.5897 10.812565933485763 1.9712140474456097 0.4285070319683925 0 0 1
1282 0 1 -1.1794 10.326174465850944 2.1649477594823705 2.1844173019170374 0 1 0
1283 0 2 0.5897 10.489299589898087 3.1200557025854367 2.3765953246063374 0 1 0
1284 0 2 0.5897 10.39972559212709 1.573262956928864 2.9390430323007037 0 1 0
1311 0 2 0.5897 7.620585917134812 3.871063550945853 1.9788895394576416 0 0 1
2064 0 2 0.5897 3.618358891380908 5.23661870551319 2.5285639759735856 0 0 1
2062 0 1 -1.1794 4.12751745942704 4.4420150525145345 2.2782514281595985 0 0 1
2250 0 2 0.5897 5.750826767359884 5.114825631805496 1.4988681415057807 1 1 1
576 0 2 0.5897 6.441637839805903 7.321170123153105 2.086536745275509 0 -1 0
1147 0 1 -1.1794 3.1172182092197906 7.3021300392244 2.5363207210202066 0 0 0
1148 0 2 0.5897 2.199781135062686 7.576024382178212 2.5409139905082045 0 0 0
2148 0 2 0.5897 4.029626973846332 7.4864324533778515 1.0423915896295282 0 0 0
1149 0 2 0.5897 3.4280788520515455 7.431661952895355 3.4543791099116983 0 0 0
2146 0 1 -1.1794 4.582758321173163 7.410773048566452 0.2748731299994017 0 0 0
2249 0 2 0.5897 6.665230867639147 5.5734428920602 0.39942822160671626 1 1 1
2248 0 1 -1.1794 6.682227856717272 5.414710932871899 1.3629692478411555 1 1 1
778 0 1 -1.1794 11.561785530618998 4.815978083834599 2.343213925710336 0 -1 1
1050 0 2 0.5897 10.017942422516683 5.878013452927986 1.9969513480360557 0 0 0
1049 0 2 0.5897 8.656611059746151 6.465312864179463 1.6455525612485729 0 0 0
1048 0 1 -1.1794 9.588814981362177 6.7151815570418005 1.7410916007809063 0 0 0
1032 0 2 0.5897 9.55030875361772 7.713482253250375 3.5835670534844954 0 1 1
574 0 1 -1.1794 6.759058692658132 7.935264848108687 2.743631971827924 0 -1 0
780 0 2 0.5897 11.83139595223806 4.353034863102859 3.173920156867343 0 -1 1
230 0 2 0.5897 6.803374413297758 6.24384110752315 3.814032626679358 1 -1 0
337 0 1 -1.1794 9.492147675979416 4.591673344394603 4.081523466013923 0 0 1
2124 0 2 0.5897 0.9431104954102141 8.413893544475062 1.0704286374309304 0 0 0
575 0 2 0.5897 5.9994418584525135 8.539221506793096 2.9454776093106587 0 -1 0
361 0 1 -1.1794 5.10458364647961 9.790849724041905 3.1491888757611797 0 -1 1
363 0 2 0.5897 4.271519830963445 9.818944678957047 3.616567257662296 0 -1 1
362 0 2 0.5897 5.570084491128884 10.630238938482934 3.482655482681335 0 -1 1
273 0 2 0.5897 4.148116969961153 11.281538912181388 2.2412929412292772 0 0 0
1484 0 2 0.5897 4.602296261905391 10.651311700059502 0.2694269758169985 1 1 0
2266 0 1 -1.1794 1.6267161829042065 11.904289317261757 0.48560830152869394 1 0 -1
1485 0 2 0.5897 4.66889578450896 9.112678512663132 0.013256280463269189 1 1 0
2268 0 2 0.5897 2.50607314726272 11.973974389547676 0.8810570795719495 1 0 -1
271 0 1 -1.1794 4.007976149633806 11.900032397511582 1.547469625835601 0 0 0
565 0 1 -1.1794 2.6390945876481426 10.717640826448918 4.041151124249259 0 0 1
244 0 1 -1.1794 10.917215116140301 9.65012827617951 2.159715186949986 1 -1 0
245 0 2 0.5897 11.359548012923664 9.140928541258313 1.472987924111132 1 -1 0
2043 0 2 0.5897 9.229771938841138 9.79872782308874 2.223701288275526 0 0 1
2041 0 1 -1.1794 8.281412294259805 9.994778714784973 2.309766393164221 0 0 1
2042 0 2 0.5897 7.819671027244873 9.128376686330574 2.324715544256146 0 0 1
246 0 2 0.5897 11.477947330955079 10.45386673527441 2.1912318792241123 1 0 0
495 0 2 0.5897 7.476468159621124 10.990666309895031 1.1394892929978384 1 0 0
493 0 1 -1.1794 7.324679396924411 11.354697668581704 0.2725384423491765 1 0 0
2246 0 2 0.5897 12.115293685236454 8.925016072438865 3.457079955502825 1 -1 -1
1529 0 2 0.5897 8.78964153200437 11.314322056334243 3.4025373476781056 0 -1 1
1106 0 2 0.5897 8.50226828994559 9.367120151944796 0.00898695452080103 0 0 1
563 0 2 0.5897 1.4649052961706874 15.643641564816711 2.2271722107798606 0 0 0
272 0 2 0.5897 4.680745586822292 12.600530723212811 1.5389873644971708 0 0 0
104 0 2 0.5897 4.376868292557916 14.247311624654294 3.491889846680213 0 -2 1
325 0 1 -1.1794 4.767528587541621 14.317753657529357 1.750735981263115 0 0 0
1756 0 1 -1.1794 1.4614628904581304 13.396792718380144 4.150001334726028 1 -1 1
326 0 2 0.5897 5.532093263845413 14.881909951874249 1.9449161898706129 0 0 0
327 0 2 0.5897 4.068958672683832 14.878092604452577 1.3589746770936404 0 0 0
1758 0 2 0.5897 1.8537186864678588 12.585518711184895 3.8226838672466608 1 -1 1
1510 0 1 -1.1794 2.864906317910386 16.026101318250326 0.943197110941107 1 -1 0
2267 0 2 0.5897 0.9838047469628233 12.123163649326592 1.1883745206239562 1 0 -1
633 0 2 0.5897 6.749765887449892 12.543244918042294 4.051743623420971 0 0 1
1039 0 1 -1.1794 7.739622755810845 13.585547302417623 2.96997989070252 0 0 1
1576 0 1 -1.1794 10.327143901972006 13.78303330898535 1.9574869734229887 0 0 0
785 0 2 0.5897 11.601790417066686 12.486815336324273 2.1809038094222086 0 0 -1
1041 0 2 0.5897 8.555291792756789 13.403432211556249 2.4707725377457024 1 0 1
1040 0 2 0.5897 7.505022013243724 14.495594770023354 2.7818236548927304 0 0 1
1578 0 2 0.5897 10.820859085509808 14.641637395433678 1.8414416035933923 0 0 0
1577 0 2 0.5897 10.046441730863338 13.489416423468066 1.058070103787476 0 0 0
812 0 2 0.5897 6.902611018483201 13.33679040666952 0.027313460262188727 1 0 1
284 0 2 0.5897 1.0433506226836047 19.848736789159634 2.3830208336323926 0 -1 0
1983 0 2 0.5897 5.234314321329262 19.68561841473923 3.304406695979565 1 -1 0
2073 0 2 0.5897 4.426095734789337 18.079674755665913 2.356815744850786 0 -1 1
2071 0 1 -1.1794 4.830908964707936 17.917156049582598 3.2281872282290576 0 -1 1
757 0 1 -1.1794 3.3995391082399395 18.71623821595218 0.9121231528245272 0 -1 0
1521 0 2 0.5897 6.225166005235623 16.807982376982647 2.811183486750621 0 -1 1
758 0 2 0.5897 2.972009992837269 19.439038148369058 1.3794223619384944 0 -1 0
1547 0 2 0.5897 5.574581550998039 18.763509120778263 0.7100611058690612 0 -1 0
1511 0 2 0.5897 2.9450632825121983 16.98071984516832 1.0494568973951799 1 -1 0
2072 0 2 0.5897 4.1685260664060895 17.81154271670831 3.879789106623052 0 0 1
1546 0 1 -1.1794 6.298610430476205 19.100493094206442 0.13733987548933058 0 -1 0
1519 0 1 -1.1794 6.757885693943287 16.133224272411987 2.390602632469908 0 0 1
2037 0 2 0.5897 8.681310398731377 19.64354142718445 1.5349777643543259 0 -2 1
2035 0 1 -1.1794 9.183691262899208 18.912476511649487 1.8915155851431371 0 -2 1
1520 0 2 0.5897 7.281131509091385 16.538675235684963 1.6495477210117488 0 0 1
977 0 2 0.5897 11.272324596402322 18.970504688055215 2.435239024266872 1 -1 1
2036 0 2 0.5897 8.856824746097098 18.820163244872823 2.786551924135179 0 -2 1
101 0 2 0.5897 8.82585361762583 17.481092962396453 0.8661801329849295 0 -1 0
1843 0 1 -1.1794 9.855592105493542 16.55980147601084 3.8846758125088616 0 -1 0
262 0 1 -1.1794 11.600629002075294 16.11184630630539 1.0351221035779459 0 -1 1
264 0 2 0.5897 11.67517463312816 16.832673122205946 1.7019981271145184 1 -1 1
976 0 1 -1.1794 12.118065618583216 18.549168746038625 2.152984914838104 1 -1 1
27 0 2 0.5897 7.139340192795542 19.692439643678124 4.015791311798574 0 0 1
1548 0 2 0.5897 7.014609312960837 18.439088925503395 0.20041154689482166 0 -1 0
100 0 1 -1.1794 8.259214309845131 16.999005866895395 0.26260633046042414 0 -1 0
1380 0 2 0.5897 2.2414340593146314 3.6042860811679924 4.349379510138159 0 0 0
1995 0 2 0.5897 4.437658550859803 2.880859082304579 5.056630500690699 1 1 1
608 0 2 0.5897 5.19286220045298 0.7394364524340312 7.260874280157681 0 1 1
1826 0 2 0.5897 3.327625177109973 0.33458681525072004 5.596842520556633 0 0 0
607 0 1 -1.1794 6.104167531622865 0.36382164270932427 7.329862935689503 0 1 1
1613 0 2 0.5897 2.383212711470246 1.725257156326954 6.590212247765649 0 0 -1
1612 0 1 -1.1794 3.324268552001115 1.5404391016984382 6.888607518977712 0 0 -1
755 0 2 0.5897 5.7922693994457655 4.005100003970505 6.938002287356295 1 1 0
1614 0 2 0.5897 3.417966628984446 2.19602627256714 7.65883296205043 0 0 -1
1314 0 2 0.5897 11.428532402453065 0.28336232970274305 6.941140908641959 0 0 0
3 0 2 0.5897 7.086782669592071 1.3212605611263817 5.985600727431574 0 0 0
1 0 1 -1.1794 7.55686519409199 2.0523854111794124 5.5446403842911085 0 0 0
2 0 2 0.5897 7.114419808154835 1.9828287039965793 4.673650666875192 0 0 0
1007 0 2 0.5897 10.426765028620345 1.2798249303220115 5.099368976135446 1 0 0
55 0 1 -1.1794 10.595091228083891 2.845056216702404 5.938506641453883 0 0 0
1736 0 2 0.5897 7.841888927725705 3.4166863368336076 6.699918576863297 1 0 1
1006 0 1 -1.1794 10.339712076809978 0.5419422218943749 4.498631980665369 1 0 0
1008 0 2 0.5897 9.362502746680233 0.364137343401745 4.669161507393854 1 0 0
1301 0 2 0.5897 10.711178034060492 2.6677110691613612 7.988798309790641 0 2 0
57 0 2 0.5897 11.515473264673348 3.13780974102499 5.706396179009369 0 0 0
56 0 2 0.5897 9.92078202769348 3.30094416771823 5.460353259797629 0 0 0
1313 0 2 0.5897 9.948678284308345 0.20930730569262482 7.615361702407485 0 0 0
1737 0 2 0.5897 8.835200730693977 3.590618428951718 7.905945992410912 1 0 1
896 0 2 0.5897 7.67517689759133 0.3526419028167217 8.011799799620178 0 1 0
1378 0 1 -1.1794 1.5137969011870764 4.182469766243959 4.688473878124708 0 0 0
754 0 1 -1.1794 5.217164413435223 4.3462664606430765 6.238496744378269 1 1 -1
2055 0 2 0.5897 2.3956177842309385 4.830056843658667 6.216078748493313 0 0 0
756 0 2 0.5897 4.4698157341322915 4.744927132063428 6.676994834390769 1 1 0
2053 0 1 -1.1794 2.8780571863608095 5.487057547527803 6.708252919401317 0 0 1
2103 0 2 0.5897 3.9000317779486147 6.597151159276693 5.664395291162851 0 1 1
2054 0 2 0.5897 2.4194046306780392 5.636923859101754 7.538463283438904 0 0 1
2101 0 1 -1.1794 4.179496403320565 7.350500830208351 5.118428993901803 0 1 1
2102 0 2 0.5897 5.070020232927873 7.563491413464502 5.499354128842212 0 1 1
231 0 2 0.5897 6.598687293197227 5.600757574269558 5.142579842824319 1 -1 0
2077 0 1 -1.1794 11.312146338145112 6.018036501700996 5.6572390144313855 0 0 0
2078 0 2 0.5897 10.839310077549941 6.788856864782953 5.417801810452381 0 0 0
1735 0 1 -1.1794 8.226438554879218 4.071816488112556 7.310569313868598 1 0 1
229 0 1 -1.1794 7.2816096078470105 5.795835704105514 4.4930879878491 1 -1 0
339 0 2 0.5897 10.080862595415685 4.978922762837746 4.7038366308177055 0 0 1
338 0 2 0.5897 8.608937089282042 4.997783666962533 4.2386373943381255 0 0 1
561 0 2 0.5897 8.29034364933526 5.852571815326091 7.137789943927945 0 0 0
559 0 1 -1.1794 8.185160198323175 6.817118858661759 7.190098508564324 0 0 0
2051 0 2 0.5897 9.720695328483512 7.430406320913005 8.07237971665015 0 0 0
1031 0 2 0.5897 8.660916777070124 7.107110833749196 4.7166723147869805 0 0 1
560 0 2 0.5897 7.508852530864409 6.916785940545066 7.889313293904631 0 0 0
1030 0 1 -1.1794 9.351740498387606 7.769328258966475 4.530936005400248 0 0 1
2079 0 2 0.5897 12.263591719881642 6.19559081504988 5.321086231135724 0 0 0
1281 0 2 0.5897 12.203830275047498 5.545552700992682 7.414041334793113 0 -1 0
1076 0 2 0.5897 1.3033971471116677 8.353035150275236 7.360046299591352 0 0 0
1077 0 2 0.5897 2.4156164084125793 8.582286285327763 6.289401243580717 0 0 0
1075 0 1 -1.1794 2.0292859947021338 8.965124064801714 7.1174205065837866 0 0 0
567 0 2 0.5897 2.8268967789296076 11.184302725342176 4.854492641144416 0 0 0
1619 0 2 0.5897 4.297064500598861 11.95530834387109 6.794914812065428 0 -1 0
11 0 2 0.5897 6.098536302457287 9.99517304301004 6.613261682674641 0 -2 1
10 0 1 -1.1794 5.889572596725656 10.925091132122523 6.840187512610536 0 -2 2
566 0 2 0.5897 1.7950675429453455 10.2961277536982 4.211789412128117 0 0 1
5 0 2 0.5897 3.5982335193466333 8.913703431470834 7.85578831149944 0 0 -1
632 0 2 0.5897 6.201503478519457 11.934963597469194 5.311283893225144 0 0 1
6 0 2 0.5897 4.799829646850256 9.773566003239619 8.237692951355523 0 0 -1
798 0 2 0.5897 7.4548461276991365 8.15795848378773 6.345582928701152 0 1 2
796 0 1 -1.1794 6.65704334717065 8.465608989822782 5.807127909424075 0 1 2
797 0 2 0.5897 6.919787703059253 8.995643728496102 5.024905454251868 0 1 2
12 0 2 0.5897 6.605278528354202 11.321508078690574 7.306564742367503 0 -2 2
859 0 1 -1.1794 9.421134293754694 9.970674379314545 6.238245815683334 0 1 1
860 0 2 0.5897 9.373551350902591 9.121777317086078 5.753461155945822 0 1 1
861 0 2 0.5897 10.356936900809258 10.127708217371096 6.322890670852186 0 1 1
833 0 2 0.5897 8.918869298091613 10.725611488506619 7.831362182333222 0 -1 1
1530 0 2 0.5897 9.267269683180293 11.052332823151785 4.8428409127452765 0 -1 1
1528 0 1 -1.1794 9.003066208329601 11.752290477567314 4.2460025364957295 0 -1 1
1757 0 2 0.5897 2.3304384210187568 13.811637840991725 4.346358171046937 1 -1 1
103 0 1 -1.1794 3.907772550601545 14.25070682981164 4.365914012288991 0 -2 1
1618 0 1 -1.1794 3.376676981419788 12.073894728896471 6.510428989709555 0 -1 0
105 0 2 0.5897 4.362668540570281 13.643354339547487 4.954230099616075 0 -2 1
631 0 1 -1.1794 5.968414210814038 12.15288578623012 4.366177760437324 0 0 1
1620 0 2 0.5897 3.118927633677835 12.899415025716557 6.975506990627932 0 -1 0
1794 0 2 0.5897 5.812086443859336 14.395552660049733 6.854641918479552 0 -2 1
1792 0 1 -1.1794 4.889066918667617 14.589537881924997 7.102386748655233 0 -2 1
1793 0 2 0.5897 4.818327337376422 14.77119292201363 8.041240540525301 0 -2 1
1037 0 2 0.5897 2.152036661740036 14.40811316221497 7.849678510731062 0 0 0
1036 0 1 -1.1794 1.760323693154656 15.175095653661655 7.366828128755864 0 0 0
1872 0 2 0.5897 10.283101155390808 14.601588747103671 4.224899554604055 0 0 1
1871 0 2 0.5897 9.85474354071322 13.229488873418402 4.520891062675027 0 0 1
1602 0 2 0.5897 7.681720530569445 13.939241676924054 4.77154396645293 0 1 1
1600 0 1 -1.1794 7.411339660124932 14.270436338243405 5.617976858984029 0 1 1
1870 0 1 -1.1794 10.635554565158253 13.833183820251849 4.675018467180772 0 0 1
1601 0 2 0.5897 7.842138205081765 13.747243150848304 6.282655221546138 0 1 1
579 0 2 0.5897 10.244893268442949 13.765283825618624 6.3655641545784585 0 -1 0
577 0 1 -1.1794 9.984623305678758 13.568955381428022 7.294139779988327 0 -1 0
1820 0 2 0.5897 11.69606963148634 12.524568901449769 6.773585858482141 0 1 0
1034 0 2 0.5897 7.712789047971306 15.894563621008329 5.799362318509139 0 -1 1
578 0 2 0.5897 10.538170624729917 14.144812463343689 7.805942652012483 0 -1 0
729 0 2 0.5897 0.8922912650030579 18.082633337811732 8.125499189219227 1 0 0
1825 0 1 -1.1794 2.8825747339110994 19.761194453092745 5.008502855628994 0 -1 0
1827 0 2 0.5897 3.1450714846216195 18.94037580026077 5.435418891885366 0 -1 0
609 0 2 0.5897 5.954703984073669 19.46256720697917 7.348011433751184 0 0 1
2235 0 2 0.5897 3.582483932332436 16.063062400804483 5.372646904321693 1 0 0
2233 0 1 -1.1794 3.4818935777379454 17.027679510573 5.545775962916793 1 0 0
2234 0 2 0.5897 4.013838477064017 17.10905243330302 6.339077259243546 1 0 0
2068 0 1 -1.1794 5.659934545750085 17.701872724599504 7.495367317175066 0 -2 0
2069 0 2 0.5897 6.48453402385931 17.54842487767218 6.973876656999318 0 -2 0
818 0 2 0.5897 1.6655310969008803 17.07329239253034 5.350847798476417 0 0 0
2070 0 2 0.5897 5.7510238251327115 17.01906469771583 8.218460422957286 0 -2 0
728 0 2 0.5897 1.7039398940780148 16.748998578781194 8.057221586403289 1 0 0
1844 0 2 0.5897 10.28394987071514 17.336460116487277 4.219251042419604 0 -1 0
1845 0 2 0.5897 8.956895549627248 16.53242647497758 4.281126631558061 0 -1 0
1312 0 1 -1.1794 10.781711878240696 19.782751923710407 7.380461125245932 0 -1 0
25 0 1 -1.1794 7.956641304161737 19.15333370309573 4.209409671003578 0 0 1
26 0 2 0.5897 7.668557762611648 18.500313382000705 4.8616680414312885 0 0 1
1622 0 2 0.5897 11.150689240593247 16.56468266963674 6.711324458075 0 0 0
1621 0 1 -1.1794 10.418742917183993 16.974695038691117 7.21053211489234 0 0 0
1623 0 2 0.5897 10.524209218209716 17.93347306476736 7.10942630454883 0 0 0
554 0 2 0.5897 11.414222077083885 19.27148034797751 5.011108387650773 0 0 0
1033 0 1 -1.1794 7.8561549091271266 16.85307635497422 5.898320090177991 0 -1 1
1035 0 2 0.5897 8.755055936035873 16.944916007421725 6.321668690927108 0 -1 1
553 0 1 -1.1794 11.969812191342077 18.491372001196364 4.861592998925415 0 0 0
1087 0 1 -1.1794 1.339999337298587 3.696441522003085 10.479578704049231 0 0 0
1653 0 2 0.5897 4.484226233088453 2.0244446593184238 10.94446644863666 0 2 1
1651 0 1 -1.1794 4.968359593637666 1.5916400816515774 11.657582711373996 0 2 1
76 0 1 -1.1794 3.776718300149196 2.925138998122705 9.3777837837106 0 -1 -1
77 0 2 0.5897 3.044121038306277 3.2005759789499457 9.920592290820586 0 -1 -1
78 0 2 0.5897 4.411505801118583 3.6415092748735414 9.48935170500234 0 -1 -1
1652 0 2 0.5897 4.216347285741394 1.2315505309094175 12.20897673129928 0 2 1
540 0 2 0.5897 12.133366065178288 2.7453791256955333 11.413953563380023 0 0 0
895 0 1 -1.1794 8.54394311685482 0.2729906672525484 8.429462991952635 0 1 0
1300 0 1 -1.1794 10.345836513757122 3.074960165863359 8.85532043898362 0 2 0
1302 0 2 0.5897 11.123326633312274 3.4846116798014157 9.2298527517347 0 2 0
2076 0 2 0.5897 7.04406440200245 2.208057774306262 10.658860521698731 0 1 -1
2075 0 2 0.5897 8.178080084643891 2.0405402636699597 9.653112172460386 0 1 -1
2074 0 1 -1.1794 7.441176927412829 2.6083774462710325 9.89338516925009 0 1 -1
314 0 2 0.5897 10.302818752398494 1.2818851227525023 11.577032053881597 0 0 0
313 0 1 -1.1794 11.241420648545052 1.0862549428662018 11.673341860608026 0 0 0
1368 0 2 0.5897 11.728972121872744 0.021468846591267035 10.517260727432985 0 0 1
315 0 2 0.5897 11.176554678937187 0.5437133499250264 12.449005716363265 0 0 0
482 0 2 0.5897 0.8693925092458412 6.569658432049209 8.699516181588873 1 0 0
1088 0 2 0.5897 1.2445819525752526 4.176283267007108 11.313021684528282 0 0 0
601 0 1 -1.1794 5.675226337396625 4.723785179297447 9.616480239613809 0 1 0
603 0 2 0.5897 5.8710706990486505 5.653533389702054 9.401943729319179 0 1 0
2084 0 2 0.5897 5.998333122393889 5.024988627758623 11.434647451360311 0 1 0
317 0 2 0.5897 3.732992652656245 7.517287115547653 12.265903494682084 0 -1 0
481 0 1 -1.1794 1.6666430889367747 6.034030578585189 8.873187061097088 1 0 0
1489 0 1 -1.1794 6.205727003541921 7.357843304300028 9.092739009855144 1 0 0
1052 0 2 0.5897 2.567032282092669 7.256528590750106 10.163666496866162 0 0 1
2083 0 1 -1.1794 6.192097361040925 5.188263222568155 12.389789175293135 0 1 0
1051 0 1 -1.1794 2.66336218789479 8.01331213220695 10.759542548905069 0 0 1
602 0 2 0.5897 6.545240103054176 4.246524981012577 9.667042197010085 0 1 0
1490 0 2 0.5897 6.540254712816499 7.667871952643778 9.989391902799326 1 0 0
483 0 2 0.5897 1.3840243483149484 5.218690048293605 9.377848472494424 1 0 0
2050 0 1 -1.1794 10.516838143633663 7.949736824670159 8.371301983455664 0 0 0
2052 0 2 0.5897 11.060921848440898 7.337238601486711 8.913798453391074 0 0 0
1524 0 2 0.5897 8.905375491972858 4.553582097178243 10.494736192204082 0 0 0
1522 0 1 -1.1794 9.237220694753319 5.340479824509275 10.888802037104714 0 0 0
1272 0 2 0.5897 10.857336714925804 6.15753032576298 10.598070690097725 0 0 0
1523 0 2 0.5897 9.121828482269777 5.116199752763835 11.83767766433973 0 0 0
1270 0 1 -1.1794 11.67652285935707 6.579958219076406 10.346057991732875 0 0 0
1271 0 2 0.5897 12.13497486511065 5.9692065458902315 9.760864297394157 0 0 0
1059 0 2 0.5897 11.92019740140349 4.580551311903981 12.41548878814116 0 0 -1
393 0 2 0.5897 2.191403402227721 10.537662883635736 8.517201708131772 0 0 0
391 0 1 -1.1794 1.4697036416694491 10.967171256713064 8.98611817106416 0 0 0
1491 0 2 0.5897 5.5260971253294455 8.056709924788807 8.97235561038948 1 0 0
1053 0 2 0.5897 3.0322557001321604 8.683491180780003 10.168233952997038 0 0 1
4 0 1 -1.1794 4.226358683694415 9.083162621579945 8.578174253065743 0 0 -1
302 0 2 0.5897 5.9616805243090205 8.868396007622767 11.915852453956296 0 0 -1
1250 0 2 0.5897 5.0915641360784925 11.206783273793533 10.569980427036441 1 0 0
392 0 2 0.5897 1.957118176647518 11.407831191209162 9.734986978919332 0 0 0
979 0 1 -1.1794 1.949324134027952 11.661448934060589 11.442632933500983 1 -1 1
1249 0 1 -1.1794 5.1978050097920985 11.692712940611088 9.740924979674702 1 0 0
981 0 2 0.5897 2.0024920365548553 10.841645290290034 11.9555356083152 1 -1 1
598 0 1 -1.1794 4.760602467302002 10.161440017340539 12.131383441058523 0 -1 0
599 0 2 0.5897 3.888424863928465 9.835772277783681 12.444513340503262 0 -1 0
832 0 1 -1.1794 8.36900797099986 11.247790191554529 8.441970767794414 0 -1 1
255 0 2 0.5897 8.302275880026713 8.830103287230733 10.835589499470196 0 -1 0
254 0 2 0.5897 9.54445941493443 8.72813301299436 9.963232470027167 0 -1 0
834 0 2 0.5897 8.474677630218306 10.67180748063334 9.198743551086492 0 -1 1
253 0 1 -1.1794 9.038587531547806 9.335814962326669 10.534027663278382 0 -1 0
1332 0 2 0.5897 10.068852847849772 9.893167231095928 11.844235523233298 0 0 1
301 0 1 -1.1794 6.73700078184022 8.302116934205191 11.738916094838086 0 0 -1
1266 0 2 0.5897 7.867085870145525 10.79802054085278 11.842436351627587 0 0 0
1264 0 1 -1.1794 7.789950614422349 11.710593043240715 12.168153761676537 0 0 0
1251 0 2 0.5897 5.950275384459179 12.26637950757575 9.91536226919639 1 0 0
980 0 2 0.5897 2.6018145110601423 12.204794563203183 11.89133524217849 1 -1 1
2097 0 2 0.5897 3.9996848177839435 13.174371167110403 9.622176155968353 0 0 0
2095 0 1 -1.1794 3.4940970926704233 13.91185461823923 9.275968200703897 0 0 0
2096 0 2 0.5897 3.1565146445750143 14.392478028595669 10.054293987182747 0 0 0
28 0 1 -1.1794 5.88516577333947 15.428505462931412 11.858631272077645 0 0 2
1563 0 2 0.5897 6.145899107312887 15.742919766715945 10.163318924839256 0 0 -1
224 0 2 0.5897 4.542254900260428 14.103941839877754 12.227413600482475 1 0 0
2010 0 2 0.5897 1.4691045890198984 15.534710228389853 11.253960314690396 0 -1 1
2008 0 1 -1.1794 2.4220460376069446 15.607326943931783 11.246855914524224 1 -1 1
2009 0 2 0.5897 2.731991081934328 15.2055843943524 12.057685750977136 1 -1 1
223 0 1 -1.1794 3.919852835375969 13.462145249170547 12.502238669868031 1 0 0
1265 0 2 0.5897 7.84017188783489 12.34080467330666 11.456342525644885 0 0 0
1561 0 1 -1.1794 6.694694257608039 15.793634951647313 9.325777237576705 0 0 -1
1290 0 2 0.5897 8.100515866036208 12.861642416314705 9.173775981985425 0 1 -1
1288 0 1 -1.1794 7.901736538581367 13.435707536549327 9.913638856209422 0 1 -1
497 0 2 0.5897 10.615559708058532 14.071821304542782 11.558615551208792 1 0 0
1289 0 2 0.5897 7.690778679780586 14.277456417414003 9.517493499199967 0 1 -1
496 0 1 -1.1794 10.67991594142802 13.97683090567221 10.606623817679832 1 0 0
498 0 2 0.5897 9.744784767650053 13.828615766570516 10.31147818763412 1 0 0
1095 0 2 0.5897 11.299685636952637 15.425916246976564 9.930597084170586 0 -1 0
2058 0 2 0.5897 11.986189930851 12.709174106286117 10.32055563679644 0 -1 0
29 0 2 0.5897 6.724053585905143 14.993023411713903 12.015231552382353 0 0 2
380 0 2 0.5897 0.8673380605025747 18.206852246365553 11.537702353404335 0 0 0
291 0 2 0.5897 5.754415429913972 19.683790024005226 11.669727349125235 0 -2 0
379 0 1 -1.1794 1.261029257708849 18.80073146911439 10.88839211199875 0 0 0
2046 0 2 0.5897 2.4475883484933965 19.540779161508418 12.030194262419318 0 0 0
24 0 2 0.5897 3.2968130536070737 17.242077587654855 10.433186427204351 0 1 0
22 0 1 -1.1794 4.080300247068379 17.583225824448785 9.9643581334553 0 1 0
23 0 2 0.5897 3.6665513904392717 17.859946704311643 9.122306625572655 0 1 0
290 0 2 0.5897 5.210401886697742 18.43736925750905 11.14734656918393 0 -2 0
289 0 1 -1.1794 5.972588335441824 18.733327108193773 11.635060700603209 0 -2 0
30 0 2 0.5897 5.805330998586633 16.16581599898087 12.501350948319663 0 0 2
381 0 2 0.5897 1.3228945676859716 18.30475344798692 9.963999908411765 0 0 0
727 0 1 -1.1794 1.6446406013392485 17.62749938273227 8.490196354912378 1 0 0
1093 0 1 -1.1794 11.821057889873522 16.198319903335733 9.66592205998807 0 -1 0
897 0 2 0.5897 8.54452785035266 19.45609546631645 8.908353783720703 0 0 0
505 0 1 -1.1794 9.203233342281091 17.188068169422156 12.233970617478581 0 -1 0
1094 0 2 0.5897 11.213829421271319 16.7591240545958 9.132255075937731 0 -1 0
507 0 2 0.5897 10.233620489536074 17.147331905957923 12.145637540805799 0 -1 0
1562 0 2 0.5897 7.3555252145076135 16.49823393242329 9.423469074466007 0 0 -1
2106 0 2 0.5897 7.2775620523506515 18.37551890287632 10.483949268309143 0 0 0
2104 0 1 -1.1794 8.075522427618406 18.06948546528354 9.956938563593528 0 -1 0
2105 0 2 0.5897 8.628216414690659 17.614473670480315 10.605188709553861 0 -1 0
1367 0 2 0.5897 11.564072355908666 19.56822918857168 9.076631983776311 0 -1 1
1366 0 1 -1.1794 12.11336448675451 19.46228773219521 9.874183349317017 0 -1 1
519 0 2 0.5897 12.054404198299718 17.69874997334503 11.295456556198559 0 0 1
517 0 1 -1.1794 12.112607772473087 17.584167775167387 12.282001581315159 0 0 1
2044 0 1 -1.1794 2.7753207413060488 0.17949762330742075 12.678956535020951 0 1 0
1765 0 1 -1.1794 2.5889826717303555 2.2176295800784374 16.05941295716145 0 0 -1
807 0 2 0.5897 1.2181174078891053 1.0872739989582934 13.695967750853903 0 1 -1
333 0 2 0.5897 5.963659009489767 0.8003993095571431 14.817482489967956 0 1 -1
331 0 1 -1.1794 5.117329308370711 1.2461885252162312 14.66070037633804 0 1 -1
1833 0 2 0.5897 4.490873457121546 2.9373743190693893 13.666462796263433 0 0 -1
332 0 2 0.5897 4.612649331212623 0.9993306935866488 15.436815459501274 0 1 -1
1767 0 2 0.5897 1.9323452920115987 2.1029067164967583 15.38573725549916 0 0 -1
1766 0 2 0.5897 2.8297689934297976 1.3460481632802355 16.38431556116256 0 0 -1
1831 0 1 -1.1794 4.16977543336214 3.803674564267216 13.489640224894597 0 0 -1
1895 0 2 0.5897 4.216263522878206 3.5063820067338938 16.086353748054705 0 1 -1
1840 0 1 -1.1794 12.075242829295135 3.183602343245873 15.222040657798138 0 -1 -1
1305 0 2 0.5897 6.657745214802041 1.5863857490293836 12.746026852151322 0 0 0
1303 0 1 -1.1794 7.6517244792476875 1.6200036690585795 12.684111195081096 0 0 0
2015 0 2 0.5897 8.696376430502795 0.3229001014974085 13.08186359673142 1 0 0
1304 0 2 0.5897 7.910508568937083 2.534717412423051 13.02094531715138 0 0 0
54 0 2 0.5897 7.607102355937858 0.5491462286854624 16.3229045580557 0 0 1
1842 0 2 0.5897 11.56628315087341 2.3544407989592284 15.168569740277855 0 -1 -1
783 0 2 0.5897 9.946995516754402 0.46738986668427485 14.697342962357524 0 0 0
781 0 1 -1.1794 10.22785906190824 1.1671873456699593 15.362710306312836 0 0 0
782 0 2 0.5897 9.414040159251837 1.7243866160739247 15.458836546956201 0 0 0
792 0 2 0.5897 7.929121649033217 3.062531343823843 16.627231948915213 0 -1 0
1841 0 2 0.5897 11.82399030871008 3.6356379113644883 16.010452996684506 0 -1 -1
1832 0 2 0.5897 4.8008392564103435 4.088107279864781 12.796345589884409 0 0 -1
17 0 2 0.5897 1.4750595058694933 5.645639596510361 13.74141229313453 0 0 0
18 0 2 0.5897 2.2652747054272666 4.296405593642379 13.346536445717621 0 0 0
1896 0 2 0.5897 4.396634097865427 4.4958841421697455 15.030190302421476 0 1 -1
318 0 2 0.5897 4.714665975114686 6.451775051113997 12.845493379476224 0 -1 0
316 0 1 -1.1794 4.08732902948163 7.126216010314562 13.128759374297506 0 -1 0
534 0 2 0.5897 2.488193405538547 7.2375270806896586 14.270482028084253 0 0 0
532 0 1 -1.1794 1.5835110060120687 7.083074836753352 14.520727023885648 0 0 0
533 0 2 0.5897 1.5073935690363596 7.241745877164123 15.498947814493553 0 0 0
1482 0 2 0.5897 6.274253423528754 4.404978795527923 15.995324807659449 1 0 0
16 0 1 -1.1794 1.39231997989637 4.74577828584488 13.335427308158364 0 0 0
1894 0 1 -1.1794 4.634727929269998 4.360052184866235 15.963880606549647 0 1 -1
1769 0 2 0.5897 5.399488790778506 7.4704363913973175 16.52647729222695 0 0 0
1025 0 2 0.5897 5.217353047833275 8.012921470610106 14.427326669669661 0 0 -1
2085 0 2 0.5897 7.087463588007328 4.859450340138092 12.621055851137113 0 1 0
1058 0 2 0.5897 11.786306374819421 4.234242529377217 13.914796871238334 0 0 -1
1259 0 2 0.5897 9.717595773601545 4.597990026006958 13.647056333659945 1 -1 0
1258 0 1 -1.1794 8.916692671210061 4.077253242594873 13.590058957147988 1 -1 0
1260 0 2 0.5897 8.361985621725402 4.375024371639969 14.287883269509337 1 -1 0
1057 0 1 -1.1794 11.462280452613111 4.8441576857763335 13.230526138458401 0 0 -1
1480 0 1 -1.1794 7.250893856823047 4.385331874845145 15.755142021552702 1 0 0
1566 0 2 0.5897 8.73889848529154 7.475094601631234 14.004743688726364 0 1 -1
1238 0 2 0.5897 11.084773072617589 6.847974547150433 13.32183291916546 1 1 0
1237 0 1 -1.1794 10.549993042913384 7.608785909355877 13.697667626014056 1 1 0