LAMMPS data file via write_data, version 23 Jun 2022, timestep = 18841000

2268 atoms
2 atom types

0.9471399938512839 46.503559006097 xlo xhi
0 20.047001 ylo yhi
0 20.857 zlo zhi

Masses

1 1.008
2 15.999

Atoms # full

2056 0 1 -1.1794 2.3648098578074883 2.023672984261181 0.6824111166289095 0 1 1
600 0 2 0.5897 6.393335802574658 2.2791735057069173 2.350658824159245 0 -1 0
2057 0 2 0.5897 2.061468604152185 2.8299500015549306 1.0861900034119796 0 1 1
2058 0 2 0.5897 1.8716296880198766 1.3245442331619637 1.0832522514270742 0 1 1
507 0 2 0.5897 4.004748108410352 1.7798353849950657 1.884796315473676 0 0 1
505 0 1 -1.1794 4.708278144833289 1.263358356377519 2.346949647677482 0 0 1
506 0 2 0.5897 4.644774427955155 0.3459063685892156 1.936458907548681 0 0 1
1088 0 2 0.5897 4.613860071056321 1.3723880728808193 3.915097061198259 0 0 0
362 0 2 0.5897 1.5907382514941786 2.940527843871321 3.849110459773144 0 0 0
598 0 1 -1.1794 7.112946821249157 2.973017521507026 2.2937592940130034 0 -1 0
599 0 2 0.5897 7.278457188189441 3.099080404306335 1.3615469085561331 0 -1 0
52 0 1 -1.1794 9.119659820810519 1.696501523915492 3.600141717686308 0 1 2
54 0 2 0.5897 8.44034269435196 1.8877201336807987 2.9977788663275473 0 1 2
2096 0 2 0.5897 11.75395884096551 3.2189516557161824 2.2776685270503667 0 -1 1
2097 0 2 0.5897 10.94447145425808 3.627254018064642 0.9636656669046951 0 -1 1
2095 0 1 -1.1794 11.372110609566422 3.993196112473485 1.8021494406077385 0 -1 1
1026 0 2 0.5897 9.343604259548151 3.4024178559171747 3.819379814215465 0 1 -2
1547 0 2 0.5897 8.430648891943424 0.9487374061587962 0.49084824377502945 0 -1 -1
835 0 1 -1.1794 11.747523641337407 1.4232702481406723 3.167779786721333 0 1 2
836 0 2 0.5897 12.157966605608667 0.8020388118958004 3.752707181322014 0 1 2
837 0 2 0.5897 10.786074505946896 1.2844487490208616 3.4253708043727866 0 1 2
1291 0 1 -1.1794 11.892895147849586 1.4154356319673267 0.10292968493982191 0 1 1
740 0 2 0.5897 5.451817578294424 4.195204945224466 0.7327424344890464 1 0 0
739 0 1 -1.1794 4.4870194650192 4.214445902784322 0.7880192158422434 1 1 0
896 0 2 0.5897 4.1226992536425655 5.2759806963727085 2.3038397768059835 0 2 1
895 0 1 -1.1794 4.0541253245711495 5.768089133680378 3.0906576907819616 0 2 1
579 0 2 0.5897 1.7962607364593368 6.5234334463335735 0.946103904300438 0 -1 -1
897 0 2 0.5897 4.2974452155429965 6.635665293967163 2.7752709586399797 0 2 1
578 0 2 0.5897 1.8438332462468492 7.03595938147821 2.4057151210921837 0 -1 -1
1524 0 2 0.5897 5.398749850572185 4.911079328072893 3.6763950693844794 0 0 1
1065 0 2 0.5897 1.610665286894259 5.077509791311482 2.279530268992223 0 1 1
1823 0 2 0.5897 3.7141619061374676 7.692691969946997 0.46438634396663814 0 -1 -1
1893 0 2 0.5897 5.911766054517433 7.806760209460024 1.3755528263313261 0 1 0
1522 0 1 -1.1794 6.258024564392544 4.641894109189644 4.117123561767367 0 0 1
577 0 1 -1.1794 1.2889845608759245 6.5281741384874215 1.7761790448355441 0 -1 -1
1063 0 1 -1.1794 1.4792946379520457 4.137174667881697 2.429249212534749 0 1 1
1523 0 2 0.5897 6.689902319071754 4.086231930480046 3.438182239976563 0 0 1
1024 0 1 -1.1794 9.429214229049062 4.376928133088453 3.99515506032054 0 1 -2
2100 0 2 0.5897 9.14317223843682 5.43834329580903 2.5897813716108478 0 0 1
2098 0 1 -1.1794 8.699044974980952 5.805184661313077 1.8257384259199656 0 0 1
2099 0 2 0.5897 8.042489570716711 6.368749207267071 2.2189391509730676 0 0 1
221 0 2 0.5897 7.541886956252319 5.170768782193601 0.4105443710964324 1 -1 1
782 0 2 0.5897 10.304042014869264 6.983914961984418 1.5943987052037607 0 0 1
781 0 1 -1.1794 10.52909141359428 7.568745308460787 0.8934841602029389 0 0 1
482 0 2 0.5897 11.368924317008458 5.282140515047775 4.047074607443178 1 1 0
783 0 2 0.5897 11.498515910382345 7.5664035135759224 0.8833729978267822 0 0 1
1891 0 1 -1.1794 6.84230783374124 7.855462050923321 1.433106515378786 0 1 0
1545 0 2 0.5897 9.340459227160943 7.614914341117648 4.078908116875332 0 0 1
1822 0 1 -1.1794 4.091433537041376 8.065607013070425 1.2763129266861168 0 -1 -1
1894 0 1 -1.1794 1.7323157789344983 10.67537058422386 2.7734588619622955 0 0 0
1896 0 2 0.5897 2.381673069634419 10.729883000568543 2.037595575485545 0 0 0
1012 0 1 -1.1794 3.65917800661337 10.682472748967383 0.9063138040767147 0 -1 1
1824 0 2 0.5897 3.936177669443402 8.996829456594606 1.3237210512165327 0 -1 -1
1013 0 2 0.5897 4.443129126889955 11.297895394236377 1.006410526329258 1 -1 1
1014 0 2 0.5897 3.267730295509073 10.986892867414307 0.030582823047666213 0 -1 1
102 0 2 0.5897 2.2324021772894005 9.023093890052907 3.5989700297415155 0 -2 0
100 0 1 -1.1794 2.4112755752073385 8.154314261360827 4.0008247388509695 0 -2 0
2102 0 2 0.5897 6.4921698982589495 11.495659977433398 1.9726494355170916 0 1 1
2101 0 1 -1.1794 6.01614799734953 11.935621449519669 1.2116543083536733 0 1 1
2028 0 2 0.5897 4.273959475384382 8.229980952714438 4.064562070722101 0 0 2
1895 0 2 0.5897 1.410112591272436 11.616539781424603 2.933181690195909 0 0 0
1892 0 2 0.5897 7.067653285583836 8.403624458915244 0.6168089929089057 0 1 0
1830 0 2 0.5897 7.608699354687744 9.394559695767583 2.4732348432283735 0 -1 1
1828 0 1 -1.1794 7.784356544142802 10.209742402908354 2.9847077435290137 0 -1 1
94 0 1 -1.1794 10.339192026706778 11.299724343290755 3.196356619259893 0 -1 1
95 0 2 0.5897 10.705936827497807 10.939445115164084 2.389606382298911 0 -1 1
1829 0 2 0.5897 8.751746889046274 10.327517737024372 3.0858761912943273 0 -1 1
96 0 2 0.5897 10.62134886181455 10.63264043507216 3.8517422236393513 0 -1 1
1567 0 1 -1.1794 11.596213648011355 10.438966844977646 0.9602902534113876 0 -1 0
791 0 2 0.5897 9.252120848605996 10.402601043016393 0.12477523228789905 0 -1 2
792 0 2 0.5897 9.410147000633385 8.825905703054334 0.2982873847900661 0 -1 2
1543 0 1 -1.1794 10.193868373858889 8.119163351613167 4.0657993276545135 0 0 1
1569 0 2 0.5897 12.307152481081495 9.912171546685462 1.3879820275148 0 -1 0
1568 0 2 0.5897 12.089787695813367 11.245489876534245 0.6850273246604484 0 -1 0
790 0 1 -1.1794 8.74453432594047 9.54558953842846 0.0733871457760138 0 -1 2
2 0 2 0.5897 4.30899164660681 13.742056048577082 3.199854625845904 0 -2 -1
1801 0 1 -1.1794 3.6948556610862324 13.924274878101128 1.2919988366552946 0 1 -1
1802 0 2 0.5897 3.8989142948849542 14.636590638689631 0.6724033104303112 0 1 -1
1803 0 2 0.5897 2.8298271638965087 14.080807674998814 1.752146937836223 0 1 -1
2103 0 2 0.5897 5.804209248207136 12.861370008349066 1.4566531413806463 0 1 1
1 0 1 -1.1794 4.6759821520704765 13.61092964624795 4.102729238960124 0 -2 -1
132 0 2 0.5897 1.4144475098030251 14.112064357137239 3.609075501351987 0 1 0
130 0 1 -1.1794 1.2640000152351685 13.61055630868741 2.822965245137364 0 1 0
314 0 2 0.5897 6.28257638830729 15.520129595250385 2.277862743437935 0 0 1
313 0 1 -1.1794 6.842399375554411 14.838774413266867 1.8324581885678137 0 0 1
1357 0 1 -1.1794 9.640260304711221 13.778551920315195 2.3109216079313915 0 -1 -2
1358 0 2 0.5897 9.393493693847425 13.250660489209146 1.5323370840542458 0 -1 -2
315 0 2 0.5897 7.7749999784243515 14.831307845678124 2.1536987862433397 0 0 1
1359 0 2 0.5897 9.690845045859339 13.065342542084954 2.9674331352473216 0 -1 -2
2048 0 2 0.5897 11.286977297820169 14.374585564916384 2.270676788511012 0 2 -2
2047 0 1 -1.1794 12.28302538493252 14.444066636347886 2.1376503705458214 0 2 -2
1287 0 2 0.5897 6.674783458317224 14.427938417465878 0.06941850875617334 0 0 0
862 0 1 -1.1794 1.2980388772151616 19.865183239875787 1.8594922690360498 0 0 1
864 0 2 0.5897 1.3480239820207123 19.06197954962115 1.3316035692355446 0 0 1
1998 0 2 0.5897 2.0549519403902927 17.01383548172923 2.341942509441391 1 1 0
1997 0 2 0.5897 2.3862558854599945 16.998667012872264 0.8139099028824167 1 1 0
1996 0 1 -1.1794 1.7071456539392504 17.200094873879088 1.4329786496126513 1 1 0
385 0 1 -1.1794 5.58439693108617 16.959792864287277 3.1646704402994055 0 2 1
386 0 2 0.5897 5.0966427658175135 17.227283182759024 2.3915844213124307 0 2 1
387 0 2 0.5897 4.858875782239743 16.86963672776824 3.813538525846126 0 2 1
82 0 1 -1.1794 4.252797413069969 18.827592778940865 1.0349145822419727 0 0 1
280 0 1 -1.1794 2.912037376792976 16.755794899539303 3.938136781427189 0 0 0
83 0 2 0.5897 3.650372400541641 19.112173424080737 0.29024924425374476 0 0 1
773 0 2 0.5897 1.8958759199885142 19.569583877961666 3.3700382213948914 0 1 0
84 0 2 0.5897 5.029374121610428 18.479237475186654 0.580558710521969 0 0 1
1035 0 2 0.5897 11.510748382745264 19.87378716392629 1.819567314766599 0 -1 0
999 0 2 0.5897 6.789865575081688 19.825041251440283 2.14977638293941 1 -1 1
1034 0 2 0.5897 10.698120300013091 18.533816225910403 1.588325579921867 0 -1 0
997 0 1 -1.1794 7.682348283688472 19.75856807915422 1.8157737071052615 1 -1 1
998 0 2 0.5897 7.893706332430038 18.806077537581974 1.6378821368497183 1 -1 1
1773 0 2 0.5897 8.872421234918988 16.973323755310126 2.180297339241516 0 1 1
1771 0 1 -1.1794 9.04251345388647 17.536450907787582 1.4683552299504066 0 1 1
1772 0 2 0.5897 9.160237165155268 17.04061850386985 0.6406263875018271 0 1 1
1033 0 1 -1.1794 11.533987980659221 19.013613069776692 1.3644156037436008 0 -1 0
1516 0 1 -1.1794 8.441999375246812 16.208259570277093 3.962813992869205 0 0 -1
1526 0 2 0.5897 9.072223381838292 19.31019241726505 3.361877179688477 0 2 -2
1527 0 2 0.5897 8.930298803705732 17.938465387441298 4.15389000268554 0 2 -2
361 0 1 -1.1794 1.6704672682301311 2.27973964864757 4.568522661385678 0 0 0
1087 0 1 -1.1794 4.732219666377441 1.2197891677361203 4.928518749589387 0 0 0
1089 0 2 0.5897 4.211277253903171 1.9342809373590089 5.376817136611289 0 0 0
1751 0 2 0.5897 4.144365125501776 0.1619223617053268 6.638098821155227 1 0 0
1095 0 2 0.5897 6.526477752997582 1.3887494138413123 5.2620909197880295 0 0 -1
363 0 2 0.5897 2.290832299370491 2.618769559810392 5.206676575369256 0 0 0
774 0 2 0.5897 2.8372977428096964 0.010181143131751495 4.508473869112046 0 2 0
339 0 2 0.5897 3.4778453090236803 2.898345246574198 7.5372896710559845 0 1 0
854 0 2 0.5897 6.571271501735025 2.1759565134765415 7.610492745803428 0 -1 1
337 0 1 -1.1794 3.8058694061751677 3.168824438107125 6.677462523604199 0 1 0
338 0 2 0.5897 4.631965508163619 3.726333192597296 6.812138638223963 0 1 0
560 0 2 0.5897 2.0736997445702525 0.4994174025655494 8.084031191649972 0 0 0
1093 0 1 -1.1794 7.388191777412884 1.458567717434838 5.694207129189138 0 0 -1
53 0 2 0.5897 8.672766786143306 1.5633048628958377 4.437896216385529 0 1 2
1094 0 2 0.5897 7.5515095315327265 0.5793720094751491 6.021140802571187 0 0 -1
1280 0 2 0.5897 10.251477915122894 2.800149129615297 6.314477177717189 1 -2 0
1279 0 1 -1.1794 10.262238542044928 1.9629187820449125 6.744941628076544 0 -1 0
1281 0 2 0.5897 11.186763160737804 1.8388240624340415 7.001426118831054 0 -1 0
1562 0 2 0.5897 9.275900813842524 1.8671590240960079 8.297345664359923 0 2 0
75 0 2 0.5897 2.8998548578992183 4.970574960116029 6.111873605071599 0 -1 1
73 0 1 -1.1794 2.4247371889459033 5.656588233469486 5.653318796429957 0 -1 1
74 0 2 0.5897 2.8773616655506755 5.716456007576718 4.812142251604423 0 -1 1
2044 0 1 -1.1794 4.718416754101204 7.390638661584321 7.114048160024089 0 0 -1
2069 0 2 0.5897 6.118959396443342 4.83232027235711 5.830843765953347 0 -1 1
2070 0 2 0.5897 5.644938972812193 5.695610765974518 7.068067242135776 0 -1 1
2068 0 1 -1.1794 6.061345843813523 4.844811445941949 6.828248615962271 0 -1 1
564 0 2 0.5897 1.7082965772745533 7.33192810272265 7.7557969364462505 0 0 0
2046 0 2 0.5897 4.877575023645816 7.578504516029091 6.20238223606995 0 0 -1
2045 0 2 0.5897 3.763120820666441 7.265919489401851 7.292812351298912 0 0 -1
481 0 1 -1.1794 11.856635474501578 5.904212239693408 4.559489257348849 1 1 0
483 0 2 0.5897 11.292134888540657 6.666043343288741 4.3153103465370295 1 1 0
1338 0 2 0.5897 10.875102062538362 4.405531857245709 8.262487065859833 0 0 1
495 0 2 0.5897 7.303695893826139 6.207899701959061 4.463302502551405 1 1 -1
493 0 1 -1.1794 7.584695645880359 7.1150074551093025 4.484462235767118 1 1 -1
1025 0 2 0.5897 9.194814979239785 4.410236247747861 4.930588357045639 0 1 -2
1228 0 1 -1.1794 9.076731329932493 4.567530267907648 6.588162807499486 1 1 1
1905 0 2 0.5897 11.170576533193183 7.5010810309261196 7.08959074023149 0 0 -1
1903 0 1 -1.1794 10.478398048842804 6.890705888065407 7.427475490958849 0 0 -1
1229 0 2 0.5897 9.39176839121181 5.431686159084228 6.810231882277824 1 1 1
1230 0 2 0.5897 8.119246414755573 4.573019682424409 6.824903950371564 1 1 1
609 0 2 0.5897 8.85075867827035 7.78874074667596 7.469226609743721 0 1 1
849 0 2 0.5897 11.998225505192714 5.022147546685989 6.058237903146459 0 1 1
494 0 2 0.5897 6.758012841971208 7.568335012481577 4.29946212409038 1 1 -1
608 0 2 0.5897 7.902156963730139 7.744100310870664 6.342071934350994 0 1 1
847 0 1 -1.1794 12.315034665584575 4.34014618151196 6.6545680367151405 0 1 1
799 0 1 -1.1794 5.97184679129482 11.175727840845637 4.753705115159146 0 1 0
2027 0 2 0.5897 5.195004650233776 9.343494457358693 4.5902638160542235 0 0 2
2026 0 1 -1.1794 5.089725560391066 8.370723706987464 4.537023458891954 0 0 2
2156 0 2 0.5897 4.369779174208878 10.871931497904406 7.675993528979285 0 1 -1
2155 0 1 -1.1794 3.4615651903552918 11.273716516343997 7.6465785373976205 0 1 -1
2238 0 2 0.5897 2.984781630534129 11.695811520887249 6.082596309467796 1 0 0
2237 0 2 0.5897 2.6147484191815016 11.268675427162242 4.714726690640828 1 0 0
330 0 2 0.5897 6.149358680028734 10.864062620318517 6.579411152049928 0 -3 0
328 0 1 -1.1794 6.2445077724425575 10.51200185983238 7.481145466969078 0 -3 0
800 0 2 0.5897 5.5809940241909555 12.000901887965112 4.447830981179865 0 1 0
2157 0 2 0.5897 2.7930024876851247 10.662793070297077 8.057968571097739 0 1 -1
101 0 2 0.5897 1.9291141366037534 8.224416534699525 4.848955232783994 0 -2 0
329 0 2 0.5897 6.665721483807813 9.648374550922732 7.4294654150859865 0 -3 0
801 0 2 0.5897 6.740213079352467 10.95008427468726 4.192756738131539 0 2 0
1544 0 2 0.5897 10.065915040424192 8.791521348311418 4.733402584386269 0 0 1
607 0 1 -1.1794 8.072000763518158 8.320414679920418 7.083431447259908 0 1 1
333 0 2 0.5897 10.439276105935047 10.164828392030724 6.501652312633762 0 -1 -1
331 0 1 -1.1794 9.684657067246047 10.231028616670924 5.9014773837313355 0 -1 -1
332 0 2 0.5897 8.900963691751075 9.897875797801728 6.373607846879404 0 -1 -1
1612 0 1 -1.1794 11.78415400244429 10.121728575536114 8.308066857259435 0 -1 -2
1614 0 2 0.5897 12.127092912182118 9.46579299373143 7.696133599410388 0 -1 -2
2236 0 1 -1.1794 2.699356642550419 12.05663450622825 5.228785596583927 1 0 0
3 0 2 0.5897 3.9294532133655333 13.421066797938987 4.666399346113737 0 -2 -1
737 0 2 0.5897 3.577610635290837 13.05539783371159 8.00437276122611 1 0 -2
1140 0 2 0.5897 6.136875499309457 14.389015838237837 4.903173541015041 0 1 -1
9 0 2 0.5897 2.369120139798585 14.448089360489691 6.102362666271873 0 -1 1
7 0 1 -1.1794 1.73938502608519 14.849813735823268 5.460197103339752 0 -2 1
736 0 1 -1.1794 3.3505073796981804 13.976739919863078 7.941348182805895 1 0 -2
738 0 2 0.5897 4.033679222898963 14.578396080009018 7.700372652807504 1 0 -2
271 0 1 -1.1794 5.693925445089827 15.829589380421993 7.914041159816676 0 -1 -1
8 0 2 0.5897 1.0500155363417942 15.275160613599569 6.004615511616612 0 -2 1
1518 0 2 0.5897 7.859312274782254 15.778600661653183 4.567621172457766 0 0 0
1138 0 1 -1.1794 6.92088580212128 14.654396921064746 5.442216057278129 0 1 -1
60 0 2 0.5897 9.188539603691366 12.101754588673725 5.645848875693098 0 1 1
1370 0 2 0.5897 10.974813370845874 14.485264156953447 5.2137701519566875 0 0 0
1369 0 1 -1.1794 10.853567627850188 15.431552355135922 5.1036245774932985 0 0 0
1139 0 2 0.5897 7.457411933317679 13.832904434430201 5.560407503043539 0 1 -1
58 0 1 -1.1794 8.968801965625934 13.004926971004075 5.702650025464005 0 1 1
59 0 2 0.5897 9.334724491260557 13.24790781124265 6.625653198162889 0 1 1
139 0 1 -1.1794 9.943548515897245 14.077396163010107 8.334666884787932 0 2 0
141 0 2 0.5897 10.897156745636464 14.301140009337226 8.156584332077852 0 2 0
1517 0 2 0.5897 9.330155265519483 15.891844913086056 4.206104293429795 0 0 -1
2037 0 2 0.5897 11.71020826495655 15.671826745532346 6.6844155664961455 0 -2 1
1371 0 2 0.5897 11.637890812266823 15.732272071070218 4.642719110012372 0 0 0
2035 0 1 -1.1794 12.181576945034202 15.335771935900427 7.443197886645606 0 -2 1
281 0 2 0.5897 2.342378406219873 16.146027300203784 4.4584973957179965 0 0 0
282 0 2 0.5897 2.5880951865972186 17.635223357843707 4.276589661406494 0 0 1
772 0 1 -1.1794 2.216898477994669 19.35149285289787 4.283619791725126 0 1 0
1750 0 1 -1.1794 3.785915086203276 19.879057538014127 7.423014457171008 1 -1 0
810 0 2 0.5897 3.1135423502918154 16.55488912471961 6.682382860964351 0 0 1
1565 0 2 0.5897 5.960429246471686 18.38648968599635 5.090475838401045 0 -1 -1
1752 0 2 0.5897 3.59317354833986 18.915110001523093 7.291197331004453 1 -1 0
1564 0 1 -1.1794 5.776831464770017 17.884359050394394 5.90612932353573 0 -1 -1
1566 0 2 0.5897 6.485186328804908 18.049947310952728 6.539779183015243 0 -1 -1
808 0 1 -1.1794 2.6899095501447494 17.250801625056585 7.215328371441173 0 0 1
272 0 2 0.5897 5.745997735687607 16.372912764008287 7.141248513440014 0 -1 -1
809 0 2 0.5897 2.209729980408648 16.826106068679945 7.917734078237671 0 0 1
1077 0 2 0.5897 1.1554443454023557 19.08396749083103 5.820638241606742 0 -1 -1
785 0 2 0.5897 7.935742317375561 16.163359473773095 7.8141379885925915 0 0 -1
1540 0 1 -1.1794 11.68313833798137 19.184021493655617 5.035334042483079 0 -2 0
1542 0 2 0.5897 10.783378716083137 18.90919655465601 4.729074882993073 0 -2 0
1783 0 1 -1.1794 7.578554170120604 18.979217955733986 7.751693536013839 0 0 -1
786 0 2 0.5897 9.043119497358706 17.248191457381605 7.925047878465765 0 0 -1
1525 0 1 -1.1794 9.201047878861916 18.87076072911009 4.221926255544108 0 2 -2
572 0 2 0.5897 10.941177579330652 18.916286062351894 6.778745704370226 0 -1 -1
1784 0 2 0.5897 8.518570068147827 19.175950034532544 7.962029655425804 1 0 -1
571 0 1 -1.1794 10.475061521832801 18.707792451207702 7.626002025037244 0 -1 -1
1541 0 2 0.5897 12.267225253903806 18.461277793423676 4.878000851329026 0 -2 0
784 0 1 -1.1794 8.772275563002179 16.38191913192865 8.269015841786977 0 0 -1
573 0 2 0.5897 11.194951899600639 18.58340406904229 8.220417781895762 0 -1 -1
1318 0 1 -1.1794 2.9936529302050783 2.7296592605784915 9.234684643600135 0 -1 1
1319 0 2 0.5897 2.524273912138037 1.8895651996688907 9.415945770833677 0 -1 1
2234 0 2 0.5897 4.39352375048785 2.0229742463507705 10.567818110479488 1 2 0
2233 0 1 -1.1794 4.847633986747424 1.8533088061451357 11.39604150771498 1 2 0
2235 0 2 0.5897 5.569787253071898 2.478616024513853 11.458181376341907 1 2 0
1320 0 2 0.5897 2.3490646112553035 3.4398114785001206 9.462699753372824 0 0 1
559 0 1 -1.1794 1.7910584705485557 0.5353142886131079 9.01067952109093 0 0 0
853 0 1 -1.1794 6.28669751890508 2.381609650220166 8.501933618506413 0 -1 1
807 0 2 0.5897 5.683655473577052 0.21024354043565616 9.953822890423638 0 2 -1
855 0 2 0.5897 6.012703159825019 3.3041213202409967 8.405408861513624 0 -1 1
1009 0 1 -1.1794 6.812083860654939 3.535291584503275 11.701425622896316 0 0 -1
1097 0 2 0.5897 11.93571153982397 3.3464037440337044 9.902025497953641 0 0 0
1098 0 2 0.5897 12.154890414289987 1.767129806770729 10.119234800303259 0 0 0
1011 0 2 0.5897 7.6156238651494705 3.0721035808536663 11.566966177704124 0 0 -1
1563 0 2 0.5897 8.08275567287145 1.6923807621070812 9.189091900079882 0 2 0
1561 0 1 -1.1794 9.028364029574536 1.540378500474055 9.216564775847363 0 2 0
1826 0 2 0.5897 10.171664624114749 2.2880505152155473 11.19454551862681 0 0 -1
1825 0 1 -1.1794 9.764612066531413 2.8332943833137376 11.881352705534724 0 0 -1
1827 0 2 0.5897 10.416345722165476 3.433285494177094 12.293199612274444 0 0 -1
476 0 2 0.5897 10.385737496253078 0.4020842525168768 10.135749067128259 1 2 -2
475 0 1 -1.1794 11.180959232007629 0.47985627542028997 10.669406197843307 1 2 -2
563 0 2 0.5897 2.0155118282235307 6.237932417704198 8.845819186842123 0 0 0
562 0 1 -1.1794 2.2396322657794037 7.1727928204664275 8.5361964065738 0 0 0
1010 0 2 0.5897 6.611509873717929 4.193660230680176 10.981270186299895 0 0 -1
321 0 2 0.5897 4.631073250592991 5.396533358036956 10.465738621471106 0 0 -1
319 0 1 -1.1794 4.92848499021235 4.946614220606435 9.636168519989768 0 0 -1
320 0 2 0.5897 4.367058679721026 4.217778208265837 9.379303548110096 0 0 -1
820 0 1 -1.1794 2.1842539148176985 4.771935606973574 12.176790800721534 0 0 0
822 0 2 0.5897 2.8252081295338574 5.439804990170599 12.239600700980498 0 0 0
294 0 2 0.5897 5.463494361823393 7.511190957556919 10.098967984692603 0 2 0
2054 0 2 0.5897 1.205188313755734 4.860739736068881 10.500756557265907 0 1 1
1378 0 1 -1.1794 4.415574194775058 6.817409440302062 11.861199018356578 0 0 0
2053 0 1 -1.1794 1.1224338936470974 4.667735872183507 9.59493432716873 0 1 1
1379 0 2 0.5897 3.8600301827128294 7.631225608870311 11.855650564477719 0 0 0
1336 0 1 -1.1794 10.732181943880668 4.309284837159919 9.21694100918704 0 0 1
1337 0 2 0.5897 9.819913150397717 4.4728681496463505 9.417492241415644 0 0 1
1904 0 2 0.5897 10.779166887727532 6.947314397842787 8.376550202798562 0 0 -1
1834 0 1 -1.1794 8.3854162189351 6.048750113192118 9.754635796651622 0 0 0
1836 0 2 0.5897 7.482053365218299 6.360590779797455 9.62370804653328 0 0 0
1835 0 2 0.5897 8.471369542561796 5.9999129215232205 10.711449378775754 0 0 0
1049 0 2 0.5897 11.522824965651163 6.032184007363425 10.134982250963773 0 0 -2
1048 0 1 -1.1794 11.856600083206535 6.916330260066581 9.85842516359844 0 0 -2
1050 0 2 0.5897 12.0334287459359 7.420590033677104 10.632960929563943 0 0 -2
293 0 2 0.5897 5.506530310715086 8.061147251639712 8.596829995866122 0 2 1
1069 0 1 -1.1794 2.4700152766964205 8.729397486681783 11.736080292812144 0 -1 -1
2076 0 2 0.5897 1.9375969305225258 8.945320385325433 9.28887471928023 0 1 -1
2075 0 2 0.5897 1.8344111427521352 10.376018063801627 10.060885750611357 0 1 -1
1071 0 2 0.5897 3.05816369780454 9.494291698782062 11.745470013380153 0 -1 -1
2084 0 2 0.5897 4.564666795845815 11.118374292897327 11.253926835218726 0 0 0
2083 0 1 -1.1794 4.852935753721546 10.20371897702027 11.375659634427334 0 0 0
2085 0 2 0.5897 5.496419539768853 10.016579386066596 10.665225592417414 0 0 0
1070 0 2 0.5897 1.5873044168901425 9.009450205418629 12.030407621206352 0 -1 -1
2074 0 1 -1.1794 1.7454107945411566 9.908045930488864 9.183307740032573 0 1 -1
292 0 1 -1.1794 5.816600476492629 8.248549930189794 9.50995386195858 0 2 1
1231 0 1 -1.1794 2.016278155030367 11.976246240856772 10.92369661742094 1 -1 0
1233 0 2 0.5897 1.5155741800277216 12.011490150340748 11.753337695144218 1 -1 0
1113 0 2 0.5897 9.31296731389632 11.141860211486376 9.604103452153998 0 0 1
1863 0 2 0.5897 9.124135312136211 8.78690142038414 10.465770954718339 0 1 -1
1862 0 2 0.5897 8.106865671912589 8.770404862901282 9.276945669990804 0 1 -1
1613 0 2 0.5897 11.033103497011925 9.774285146945475 8.765045460213116 0 -1 -2
45 0 2 0.5897 7.966158498300351 9.834759645172962 12.433060700634794 0 0 1
43 0 1 -1.1794 7.572506262289523 10.588406264662273 12.01523967765843 0 0 1
1861 0 1 -1.1794 8.7543665603584 9.36368814958281 9.763169810292277 0 1 -1
44 0 2 0.5897 7.452153627927384 10.335466841957022 11.099819715333815 0 0 1
888 0 2 0.5897 10.455842685871765 9.586313597320043 12.010798420572455 0 1 -1
886 0 1 -1.1794 10.034812933488547 8.729446596272671 12.058530252368058 0 1 -1
643 0 1 -1.1794 11.61764730225903 11.178995446460252 11.775447681680328 0 1 0
645 0 2 0.5897 11.634489733704912 11.923955535803907 12.44523588324545 0 1 0
1111 0 1 -1.1794 9.994189993951146 11.79475198902475 9.89072755092775 0 0 1
644 0 2 0.5897 11.137050591442046 11.641473862806922 11.047636829042553 0 1 0
1059 0 2 0.5897 12.12991587630542 8.708614341979864 12.15582925052827 0 -2 -1
34 0 1 -1.1794 6.36590643872155 13.33281999389411 9.137776736888894 0 0 0
36 0 2 0.5897 6.288481090714689 14.085243305383337 8.502506953534239 0 0 0
1232 0 2 0.5897 2.84312568681172 12.47164623933494 11.059600178664695 1 -1 0
25 0 1 -1.1794 0.9868934611036926 13.870869817575015 9.25509948568852 0 0 0
27 0 2 0.5897 1.769227373297886 13.789646864614442 8.618732195594408 0 0 0
26 0 2 0.5897 1.2282867921388505 13.149864263968302 9.886447120661387 0 0 0
978 0 2 0.5897 4.9898738722474745 13.379039829639204 10.332968213553354 1 -1 0
976 0 1 -1.1794 4.315908642911104 13.202775541809649 11.086130488268847 1 -1 0
977 0 2 0.5897 4.444070994285322 13.82204144516964 11.823244549432232 1 -1 0
1842 0 2 0.5897 1.8495524623553674 15.891863974618989 11.721617568648387 0 -1 -1
636 0 2 0.5897 1.553041218389449 15.38016737709067 9.755684605845216 0 0 -1
35 0 2 0.5897 6.7418113176832355 12.627747981093597 8.515528951594156 0 0 0
140 0 2 0.5897 9.618322237323014 15.038701976342026 8.384961100879083 0 2 0
1112 0 2 0.5897 9.881123899469184 12.586341367926199 9.343444657338154 0 0 1
1988 0 2 0.5897 7.863037368124655 14.03238481499864 10.374238597399463 1 -1 2
1989 0 2 0.5897 8.771819235907536 12.992135886573179 10.984434369228921 1 -1 2
1987 0 1 -1.1794 8.485333928899497 13.908191361152594 11.080593288554992 1 -1 2
2147 0 2 0.5897 9.988923167807442 14.864079985911449 11.221798202239986 0 0 -1
2148 0 2 0.5897 11.538304520758574 14.873575444737718 10.954249851245102 0 0 -1
2146 0 1 -1.1794 10.81298755345363 15.326998360129732 11.459981673857897 0 0 -1
273 0 2 0.5897 5.264663957791746 16.326404484106675 8.638213966483319 0 -1 -1
747 0 2 0.5897 4.825641621719914 16.45674478562193 11.090891512056492 1 -1 -1
806 0 2 0.5897 4.8403783929629896 19.868044226595188 8.808603044678769 0 1 -1
805 0 1 -1.1794 5.355061892298328 19.453854887033597 9.547261431394627 0 1 -1
1047 0 2 0.5897 2.181224870571516 19.835320036280194 10.500359919785517 0 0 0
634 0 1 -1.1794 1.7329720795139 16.32990686671847 9.82969346542733 0 0 -1
635 0 2 0.5897 2.688558227441429 16.332616317689425 9.985360726073514 0 0 0
745 0 1 -1.1794 4.5546051081778 16.877600936862713 10.242775470496388 1 -1 -1
746 0 2 0.5897 4.756613154450214 17.832263226415 10.35161548798738 1 -1 -1
1045 0 1 -1.1794 2.1366921098300593 19.095080556229682 11.12026601366629 0 0 0
1046 0 2 0.5897 1.768517324336233 18.360533626432712 10.621470874963725 0 0 0
1128 0 2 0.5897 5.594387720139292 19.259345515490338 12.488712299762003 0 0 0
1126 0 1 -1.1794 6.535527620282877 19.36218817351611 12.287982947897428 0 0 0
1785 0 2 0.5897 6.9579036432462065 19.229479203453888 8.453832440661325 0 0 -1
1086 0 2 0.5897 8.471015910566177 17.019692200244513 10.108005847381659 0 -3 2
477 0 2 0.5897 11.214430411038268 19.6670089005845 11.139842113343585 1 1 -2
1085 0 2 0.5897 7.873860584344775 18.14518134075508 10.93291402642438 0 -3 2
1084 0 1 -1.1794 8.700174625514538 17.67460029691091 10.808148376832271 0 -3 2
2051 0 2 0.5897 11.001279268707037 17.20144273498388 11.585074432664749 0 0 0
2050 0 1 -1.1794 11.332277726198372 18.046300998402387 11.937570371557392 0 0 0
278 0 2 0.5897 8.39878950639983 16.282773745283812 12.195392520885 0 1 1
1790 0 2 0.5897 12.235644574280228 17.393604973515608 10.002516346039164 0 -1 1
1791 0 2 0.5897 12.284730530142731 16.815262082489976 8.60668806173715 0 -1 1
2246 0 2 0.5897 3.446274548505976 1.9932038651145 12.582205205238692 1 -1 -2
821 0 2 0.5897 2.58649110499395 4.0089663837246885 12.57092758013288 0 0 0
1261 0 1 -1.1794 5.958705478848188 2.7447389006494265 14.699085865841962 0 0 -1
2245 0 1 -1.1794 2.653559896091733 2.3934954808621147 13.023070676474466 1 0 -2
2247 0 2 0.5897 2.88389657579709 2.410616572752052 13.943751811507802 1 0 -2
2024 0 2 0.5897 4.556276461647849 1.461454370408869 14.953260152059011 0 0 1
2023 0 1 -1.1794 3.8733039849457525 0.8213628771612478 15.21697930594149 0 0 1
1262 0 2 0.5897 5.819768571031259 3.6576004040179866 14.534395399865257 0 1 -1
1061 0 2 0.5897 6.416563380367439 2.0975283425948885 16.24312707754768 0 0 -1
1028 0 2 0.5897 2.119365147674754 0.6985189161312234 15.815513438956451 0 -1 0
729 0 2 0.5897 3.735740587042509 3.5714921739201633 16.430874528869868 1 0 -1
2025 0 2 0.5897 4.001246692645173 0.1032477303223373 14.557325569766284 0 0 1
1263 0 2 0.5897 6.538963430395433 2.4249461687158247 13.970936081665235 0 0 0
727 0 1 -1.1794 3.2182897203980083 3.8796220266323296 15.72022126203709 1 0 -1
1027 0 1 -1.1794 1.5101207572220905 0.45300418560943057 16.56086408133612 0 -1 0
723 0 2 0.5897 8.638206409658949 1.773998173982995 12.881426694348278 1 0 0
525 0 2 0.5897 11.468147388277629 0.6805000357120458 12.546824381747445 0 1 2
523 0 1 -1.1794 11.901804444808148 0.49138474502212065 13.387344352869604 0 1 2
721 0 1 -1.1794 7.904832816884592 1.4564570648455288 13.437680858475982 1 0 -1
722 0 2 0.5897 8.401313833659767 1.1324929566211293 14.250987886598727 1 0 -1
1792 0 1 -1.1794 9.137760583800706 1.3895768815326854 15.94497036897248 0 -1 1
1325 0 2 0.5897 9.903348244664551 3.4497713434786306 15.831302785781556 0 1 -2
1127 0 2 0.5897 6.865109836015832 0.19714026347345587 12.654803512506195 0 1 0
524 0 2 0.5897 11.147831768793141 0.010304144916400304 13.857345681773822 0 1 2
1794 0 2 0.5897 8.490525465371555 1.3097065793950207 16.625385763065104 0 -1 1
1793 0 2 0.5897 9.847091428044699 0.8094563129639554 16.214335605249097 0 -1 1
1345 0 1 -1.1794 1.21303112904352 6.435330627373818 16.474233439377006 0 0 0
728 0 2 0.5897 2.540968006957942 4.448895730156105 16.1197809941742 1 0 -1
1380 0 2 0.5897 4.895524893953507 6.816942752615755 12.686262938716748 0 0 0
1581 0 2 0.5897 4.510321826872451 5.497904622897449 14.801390344565679 0 1 0
1579 0 1 -1.1794 5.390854752888961 5.560884243843403 14.405984776735007 0 1 0
767 0 2 0.5897 1.958847934781542 6.770021375610472 14.937753855663683 0 -1 0
766 0 1 -1.1794 2.712895261367815 7.158807995208147 14.46214719630792 0 -1 0
768 0 2 0.5897 2.5403486577500085 7.334547167619736 13.516364893856515 0 -1 0
1148 0 2 0.5897 3.856968024294873 7.875983558965238 15.84184427670621 0 0 -1
1147 0 1 -1.1794 4.399264839279009 7.876347482177802 16.628835858770312 0 0 -1
1580 0 2 0.5897 6.0273191045590515 5.979820636088961 15.050601970622463 0 1 0