LAMMPS data file via write_data, version 23 Jun 2022, timestep = 32311000

2268 atoms
2 atom types

0.8104992903604611 46.640199709579036 xlo xhi
0 20.047001 ylo yhi
0 20.857 zlo zhi

Masses

1 1.008
2 15.999

Atoms # full

592 0 1 -1.1794 3.1988028063946996 3.111226249496256 0.975162450936106 0 1 1
594 0 2 0.5897 3.2940423709300393 2.20887010586051 0.6514229498457409 0 1 1
1548 0 2 0.5897 1.839915307030822 3.4249787848661253 2.3400999794598487 0 -2 -2
1613 0 2 0.5897 5.648829558968015 0.8060125507697558 1.94954537716956 0 0 -3
2093 0 2 0.5897 4.277796216971647 3.3164876362695304 2.248334307110841 0 0 3
2092 0 1 -1.1794 4.827852716429173 3.0943041712548838 3.01717933979841 0 0 3
593 0 2 0.5897 3.1801177891843357 3.7204659090130665 0.25804231738840244 0 0 1
1547 0 2 0.5897 1.2965879290841025 2.705834253659376 3.6235270104192634 0 -2 -2
1614 0 2 0.5897 4.3596768458824755 0.14378655996406464 1.6195880495035337 0 0 -3
1546 0 1 -1.1794 1.2603103006705523 3.46720427175404 3.0547437917625695 0 -2 -2
1502 0 2 0.5897 6.472079638733912 3.25338007013955 2.7523539377841653 1 0 0
2094 0 2 0.5897 4.761079130070194 3.8143278829956833 3.666011825456189 0 0 3
1087 0 1 -1.1794 2.674490190888647 0.09021141223224104 0.9388797577538202 0 -1 0
78 0 2 0.5897 1.317467274151746 0.08147931282844603 3.913928151159223 0 -1 -1
1503 0 2 0.5897 7.714904831929958 2.5738642944887102 2.124720374130758 1 0 0
2240 0 2 0.5897 9.253154291188013 0.8667372318076217 1.178464746493443 1 0 1
2239 0 1 -1.1794 8.591360445224955 1.5269187207945065 0.9399901252215803 1 0 1
766 0 1 -1.1794 10.995420725773974 1.6255927732538342 3.375762502648255 0 0 1
768 0 2 0.5897 11.31561046593696 1.9732511534710253 2.512344821184502 0 0 1
2242 0 1 -1.1794 11.378016553627361 3.339328451187009 1.1052118339556547 1 2 2
1501 0 1 -1.1794 7.459808207567937 3.3206368661743872 2.723359599754764 1 0 0
767 0 2 0.5897 10.147062526610618 1.2281079704808207 3.213708872909845 0 0 1
2243 0 2 0.5897 10.627435655302328 3.985989274267616 1.2456225585226974 1 2 2
2241 0 2 0.5897 8.864045660933964 2.134222978628385 0.2642182059522055 1 0 1
1854 0 2 0.5897 7.759167450265763 0.2419362517038365 0.046175923583243274 0 3 2
2244 0 2 0.5897 11.166936451729564 2.9961847680386184 0.24932267621972154 1 2 2
849 0 2 0.5897 2.3864952512295456 6.427812112359228 2.0707777520394455 0 0 2
847 0 1 -1.1794 2.9237689564286473 6.679081591962841 1.3738216119261017 0 0 2
373 0 1 -1.1794 5.649367200150291 5.561295691084109 1.2908885400069552 0 0 1
375 0 2 0.5897 4.750901184412526 5.87204605319616 1.5187706926772222 0 0 1
1262 0 2 0.5897 1.2521802288270578 5.067064197115844 3.731747709128734 0 1 -1
848 0 2 0.5897 2.9632876424806174 7.635466579790897 1.3460744265936857 0 0 2
1261 0 1 -1.1794 1.2403204471771239 5.9807113297214105 3.427828849999656 0 0 -1
374 0 2 0.5897 6.129286724369496 6.3626761547114 1.0780113283796173 0 0 1
1263 0 2 0.5897 1.2622741597109133 6.568852188374113 4.152597751558247 0 0 0
1649 0 2 0.5897 6.587401403550483 4.162329094284563 0.016320285505841126 0 1 1
2147 0 2 0.5897 11.556632800403085 6.856852324134674 2.9897977312739585 0 1 0
2123 0 2 0.5897 8.279111236238386 4.746676602922148 1.9757093303357285 0 1 0
2122 0 1 -1.1794 8.977008763515046 5.325012205856594 1.6494376562710489 0 1 0
2124 0 2 0.5897 8.872300828803867 6.165408892340956 2.174422375699059 0 1 0
337 0 1 -1.1794 9.831601662731298 7.576425456969433 3.5119693111410184 0 1 0
339 0 2 0.5897 8.976127377237507 7.534985982184037 3.930196289786914 0 1 0
74 0 2 0.5897 6.639885515179549 5.800392952970997 3.234510478877773 0 -1 1
73 0 1 -1.1794 7.261754740642066 6.259455878961059 3.8403981961872327 0 -1 1
2146 0 1 -1.1794 12.170568403763989 6.134935196534639 2.8924680939653156 0 1 0
985 0 1 -1.1794 7.37526475840745 7.945971835358605 0.9819275366378344 1 -2 1
317 0 2 0.5897 12.128657745880869 5.664808391774503 0.9509668236212209 0 -1 0
1370 0 2 0.5897 3.1553398830496024 10.262801013772476 1.0307511303963115 0 1 1
1369 0 1 -1.1794 3.3560389100982335 9.50200378086367 1.5625905221076575 0 1 1
1371 0 2 0.5897 2.5505476008192005 9.41040962135575 2.0973508799331757 0 1 1
1813 0 1 -1.1794 5.577898916857143 8.853125703633317 2.9103077432322326 0 0 -1
1814 0 2 0.5897 4.8400187962690415 9.23890634380781 2.43306331275646 0 0 -1
864 0 2 0.5897 5.865821761182302 11.565345254225733 0.5788925428190104 0 1 0
1815 0 2 0.5897 6.137595951020315 8.459703849510548 2.1934991227350116 0 0 -1
758 0 2 0.5897 1.6139094082441443 11.511180571473737 3.4747036861625684 0 1 1
523 0 1 -1.1794 1.0553253966898697 9.826698342148148 3.138499472036603 0 0 3
525 0 2 0.5897 1.2575742619833994 9.187918648444091 3.83300707697515 0 0 3
225 0 2 0.5897 5.002081522167669 11.539218989133571 3.6211916459072637 1 0 0
2056 0 1 -1.1794 5.748510163164621 12.013119453623192 2.1290245709309366 0 -1 0
338 0 2 0.5897 9.84632068949012 8.482457599430878 3.2167908417050914 0 1 0
987 0 2 0.5897 7.125793578060587 8.122010865754001 0.07245328286953945 1 -2 1
986 0 2 0.5897 8.244815219165105 8.410505875167555 1.0724787956948627 1 -2 1
1142 0 2 0.5897 10.549990556655573 9.250546765222873 0.8869778039679382 0 0 0
608 0 2 0.5897 10.324501765114006 10.944777131632804 2.6078425629748714 0 2 2
607 0 1 -1.1794 10.871657895474815 11.401519338621961 3.265001384216596 0 2 2
1143 0 2 0.5897 9.358072841465711 10.163221523126166 0.7820391334671462 0 0 0
1141 0 1 -1.1794 9.738373683637237 9.51235381483125 1.346299156966024 0 0 0
56 0 2 0.5897 3.3677162429312575 14.342785679285978 1.3750336462592727 0 -1 0
55 0 1 -1.1794 3.440846293045495 13.362022620837484 1.441049616496516 0 -1 0
759 0 2 0.5897 2.375962833206781 12.67310363576865 2.853557917740944 0 1 1
2057 0 2 0.5897 4.987987014148139 12.532029132520837 1.7445545758800125 0 -1 0
57 0 2 0.5897 3.0998690926568533 12.936400248741807 0.6584467359481904 0 -1 0
2058 0 2 0.5897 6.318348856002542 12.767049453896954 2.349973599217121 0 -1 0
522 0 2 0.5897 6.122596228598858 15.160987302172394 2.058839085142994 0 -1 0
757 0 1 -1.1794 1.7343440826811607 12.464851934867406 3.4907334128026117 0 1 1
609 0 2 0.5897 10.855185888290878 12.351271353635621 2.9972331918846895 0 2 2
520 0 1 -1.1794 6.79481502399181 14.476151917200859 2.133600110113224 0 -1 0
2097 0 2 0.5897 7.795718867922921 14.129541278746396 0.5212050211132563 0 -1 1
1020 0 2 0.5897 10.812226070334527 13.105582500205427 0.36761225229778133 0 0 -1
1816 0 1 -1.1794 10.699426151927875 14.183205229171389 2.1171146346692735 0 0 0
1817 0 2 0.5897 10.238204234783945 14.506182166819922 2.9219438466201066 0 0 0
521 0 2 0.5897 7.370270076400838 14.750405765546878 2.846528866053458 0 -1 0
1015 0 1 -1.1794 8.580876691803043 14.689967989214244 4.061101636205592 0 0 0
1818 0 2 0.5897 11.605396481495363 14.518713056339791 2.1527673469866424 0 0 0
1612 0 1 -1.1794 5.260588614317538 19.99041391703777 2.0525292885230235 0 -1 -3
68 0 2 0.5897 0.9947448806581197 16.107207844147727 4.0989148551717 0 -1 1
727 0 1 -1.1794 2.567897292252308 16.20413637637675 1.4977222441757976 1 0 -1
728 0 2 0.5897 1.8007139799868028 16.4070177519871 2.1285892136763924 1 0 -1
1024 0 1 -1.1794 4.935405641344848 16.498985747188414 2.9997193613445394 0 1 -1
1026 0 2 0.5897 4.103594873852107 16.498752998785342 2.4419938336302462 0 1 -1
1088 0 2 0.5897 2.097734258448375 19.84222427027322 1.6506478461356846 0 -2 0
1025 0 2 0.5897 5.571895494707295 17.056161360024507 2.464275585592588 0 1 -1
729 0 2 0.5897 2.5402501339084074 16.92595490893127 0.8369986775820158 1 0 -1
77 0 2 0.5897 1.062926226134722 18.55756435146463 3.7169209227714646 0 -2 -1
1089 0 2 0.5897 2.6990664960645625 19.47390603916804 0.18387592989303783 0 -2 0
76 0 1 -1.1794 1.1760590316389035 19.416860499700647 3.2989850911305534 0 -2 -1
1094 0 2 0.5897 4.135027695302361 19.36658404564495 3.7600253949892632 0 -1 -2
1095 0 2 0.5897 4.175977333375792 17.8272582479745 3.918316743117745 0 -1 -2
1617 0 2 0.5897 7.131216808913131 19.62626498469304 3.1146797689234837 0 0 0
1615 0 1 -1.1794 7.882779994779337 19.986337333917692 3.5594672917165617 0 0 0
1764 0 2 0.5897 9.953044411289632 16.727637574805915 0.9868178595191455 1 -1 1
1535 0 2 0.5897 7.028861469864188 18.27507252237921 0.8865874802823271 0 0 -1
1796 0 2 0.5897 11.254480453201257 19.772623390118312 1.6717185109302894 0 -1 1
1534 0 1 -1.1794 6.956023619818644 17.45737275493565 1.4202855370298808 0 0 -1
1763 0 2 0.5897 10.04395675768297 16.830942273844965 2.4245663663491253 1 -1 1
1616 0 2 0.5897 8.184212236483178 19.260494065803947 4.137246004289253 0 0 0
1536 0 2 0.5897 7.8221561932650605 17.183240001260675 1.6048975084662007 0 0 -1
1762 0 1 -1.1794 9.531434170838436 17.1629923695246 1.6908041530058984 1 -1 1
1797 0 2 0.5897 10.035607247086357 18.82487329129639 1.657800008921684 0 -1 1
1795 0 1 -1.1794 10.2997289401263 19.696279735714874 1.359846014699834 0 -1 1
1303 0 1 -1.1794 11.473870479247367 16.97846182627027 3.420944105346018 0 -1 -1
1304 0 2 0.5897 11.256296294627626 17.73234045473526 4.026526374452137 0 -1 -1
1526 0 2 0.5897 4.295668190906598 1.9503101236547529 4.3991647153171485 0 2 -2
1296 0 2 0.5897 0.8341089853756162 1.514170861733051 5.534160866272755 0 1 0
1525 0 1 -1.1794 4.047340429765875 1.8517920277006126 5.338247253927529 0 2 -2
1294 0 1 -1.1794 1.5272043747089072 1.4892213560433287 4.875108474423621 0 1 0
1295 0 2 0.5897 2.405289386370316 1.5588031299437948 5.312792086043498 0 1 0
1113 0 2 0.5897 2.797838579534167 2.858956391422635 7.570453979398149 0 1 1
1527 0 2 0.5897 4.716896007102251 1.2083374508825013 5.700960084850595 0 2 -2
1580 0 2 0.5897 5.870653305695916 3.4110853447509752 6.734157498450332 0 1 0
599 0 2 0.5897 5.6320493282474775 1.060063050674222 7.463239253848525 0 0 -1
598 0 1 -1.1794 5.509008889947484 1.545966298621254 8.293399382554698 0 0 -1
600 0 2 0.5897 4.612819844873961 1.8766206151387435 8.202471256329662 0 0 -1
1607 0 2 0.5897 10.752818825302132 3.365314362036654 4.32642190573681 0 1 0
2150 0 2 0.5897 7.460811258807748 1.2621151792874181 4.793892275646568 0 1 1
2151 0 2 0.5897 7.607110866417743 2.6929853234416488 4.4358322759702515 0 1 1
2149 0 1 -1.1794 7.330399704959393 2.123016927551827 5.180552150962877 0 1 1
1995 0 2 0.5897 8.393253469867478 2.062945669184963 6.526612049592304 1 1 2
1286 0 2 0.5897 10.848438106478884 1.6518498429691606 6.994927927820511 0 1 -1
1993 0 1 -1.1794 9.051213528064203 1.7091787663125981 7.186979819268849 1 1 2
1994 0 2 0.5897 8.71366859297679 0.9323972967162045 7.63189450525826 1 1 2
1285 0 1 -1.1794 11.835216579795013 1.6452906402274667 6.816148321103307 0 1 -1
1292 0 2 0.5897 11.086366641646805 0.1311055031022914 4.841384979586807 0 0 1
1287 0 2 0.5897 12.219949279120028 0.7719662710035337 6.663653904646031 0 1 -1
1579 0 1 -1.1794 6.106093022742052 4.358695113185478 6.72818665073298 0 1 0
1513 0 1 -1.1794 2.1769501349501725 4.297274567517054 6.426175008095106 0 1 1
1514 0 2 0.5897 2.880369715298367 4.566424655781667 5.739318757296685 0 1 1
1515 0 2 0.5897 1.3039338538479326 4.344773623058329 6.068009135073372 0 1 1
564 0 2 0.5897 4.294413259339529 6.075989347407489 4.721271000813083 0 -1 0
563 0 2 0.5897 5.027352928690609 4.9106823466560625 5.526082267922031 0 -1 0
562 0 1 -1.1794 4.321827370626448 5.10581536141236 4.831203657638274 0 -1 0
1363 0 1 -1.1794 6.08217978671968 7.3180799038963364 7.479259728590012 0 0 1
102 0 2 0.5897 2.707944506393333 5.750657497389304 7.582084274126664 0 -2 0
1364 0 2 0.5897 5.489066242661168 6.738883401046694 7.952265873451953 0 0 1
1276 0 1 -1.1794 4.621808149178415 7.794910066767641 5.077441919738032 0 -1 -2
1516 0 1 -1.1794 1.947910736575438 7.932100498527977 5.183349807036933 0 0 -1
1518 0 2 0.5897 2.8778713759271946 7.865077561110207 5.35975650856527 0 0 0
1277 0 2 0.5897 5.193221289489672 7.9850316917325195 5.875484864657427 0 -1 -2
309 0 2 0.5897 3.079982839943414 7.989662887544828 7.8778894243132225 0 0 0
100 0 1 -1.1794 3.1965632687441667 6.279361683381812 8.260176308868367 0 -2 0
1608 0 2 0.5897 11.448777151131095 4.80903978645603 4.284349679800087 0 1 0
1606 0 1 -1.1794 11.043374926164292 4.154084984071237 4.8589547556717445 0 1 0
1389 0 2 0.5897 11.70455427925255 4.2110784192012485 6.791075535953627 0 3 -1
1388 0 2 0.5897 10.837694797752658 4.6800256021794135 7.947374479546855 0 3 -1
1820 0 2 0.5897 9.592146682580156 4.806975306909264 5.75380409471129 0 1 0
1365 0 2 0.5897 7.0176971811184305 7.117999999073325 7.705236944865522 0 0 1
1387 0 1 -1.1794 11.757721132499565 4.726188917184251 7.640582010215452 0 3 -1
75 0 2 0.5897 6.7851512908671 6.847448217001246 4.441594597986431 0 -1 1
1581 0 2 0.5897 7.034694154677789 4.410930923510134 6.491970430533986 0 1 0
1821 0 2 0.5897 8.442406212985961 5.731183431276501 5.339806429753179 0 1 0
1819 0 1 -1.1794 8.84904446502157 5.278583168663856 6.097064397543237 0 1 0
1532 0 2 0.5897 9.104746212572069 6.5094870106422755 7.45621616833249 0 1 0
1533 0 2 0.5897 8.88664397175513 7.913890043818915 7.964153235942398 1 1 0
1531 0 1 -1.1794 8.568026937975016 7.012514377356232 8.08298515349108 0 1 0
1827 0 2 0.5897 11.800914429169934 7.696291060009026 7.827060518385893 0 1 0
1517 0 2 0.5897 1.4672981025002618 8.063567103688122 6.000692561614332 0 0 -1
1278 0 2 0.5897 5.043230197001808 8.24433715549259 4.304258250405474 0 -1 -2
308 0 2 0.5897 2.7949994124346906 9.509089768194274 7.303610219299746 0 0 0
1571 0 2 0.5897 5.743149950193248 11.080366524609538 6.511457668758712 0 1 -1
772 0 1 -1.1794 2.610008662870726 11.025401796266797 6.398925243414449 0 2 1
1572 0 2 0.5897 5.592556466711555 10.395833172980991 7.937174116539941 0 1 -1
773 0 2 0.5897 2.873190891853198 11.747487668843286 6.983016418006622 0 2 1
774 0 2 0.5897 2.9503388112612985 11.22415417050577 5.548768074380591 0 2 1
1570 0 1 -1.1794 6.217277853062286 10.569912146659734 7.181595863627619 0 1 -1
223 0 1 -1.1794 4.7943412462298465 11.557803669599664 4.611949801958052 1 0 0
307 0 1 -1.1794 2.9701985578676986 8.96788500615874 8.0711145195773 0 0 0
878 0 2 0.5897 7.036780771647952 9.684218341663371 4.458703915691577 0 0 0
877 0 1 -1.1794 7.899446167646607 9.454641707370588 4.930481874982944 0 0 0
1103 0 2 0.5897 11.132542619657913 8.021991377746973 5.095395933609464 0 1 -1
879 0 2 0.5897 7.561477844550447 9.51738526008854 5.840822522586531 0 0 0
582 0 2 0.5897 10.364561705088953 11.516046297041237 5.2643161536826515 0 -1 2
580 0 1 -1.1794 9.938049767920923 11.484948003846869 6.104466625197361 0 -1 2
1806 0 2 0.5897 10.343253742793062 9.726267557251768 7.079437947975815 0 2 1
1804 0 1 -1.1794 10.128253473275372 9.385242820314085 7.991011578159363 0 2 1
1102 0 1 -1.1794 11.792264494150569 8.071623773261276 5.840963843852698 0 1 -1
504 0 2 0.5897 5.074032944167915 15.148235070518558 4.395498944286879 1 -1 -2
224 0 2 0.5897 4.692702169765697 12.555610365016737 4.67277539153364 1 0 0
1641 0 2 0.5897 1.600378051922759 14.013837809134971 4.640161468990241 0 1 0
1639 0 1 -1.1794 1.9452605780238765 14.871568543648568 4.994454453728778 0 1 0
503 0 2 0.5897 3.92431670026471 14.528695534579292 5.157048377108755 1 -1 -2
502 0 1 -1.1794 4.893851084831671 14.450113034007192 5.045440655339377 1 -1 -2
1640 0 2 0.5897 1.5223834334752877 14.97539497429779 5.890851963170239 0 1 0
1346 0 2 0.5897 5.685919238184798 14.720688584721657 6.663906826428182 0 0 1
1605 0 2 0.5897 3.0563702743061625 13.912600133339929 7.955912570415611 0 0 -1
1345 0 1 -1.1794 6.247854209061827 14.723559274996918 7.51723117520938 0 0 1
1603 0 1 -1.1794 3.318969301666912 13.009782061141314 8.047453260210773 0 0 -1
94 0 1 -1.1794 3.097473562496321 15.971494798199338 8.06543893720854 0 0 1
1016 0 2 0.5897 8.526017613992092 15.499644226587856 4.549557069762428 0 0 0
1027 0 1 -1.1794 12.172400488764191 15.128876570632768 5.2955746793311365 0 -2 0
581 0 2 0.5897 10.302842183287389 12.164765447448723 6.650544077452035 0 -1 2
1076 0 2 0.5897 6.8970832660765575 12.294763958565708 4.915243780773984 0 -1 -1
1077 0 2 0.5897 8.15985941996081 12.13518378362872 5.8156579752614 0 -1 -1
1029 0 2 0.5897 11.94822812673093 15.751524041038063 4.517361046337012 1 -2 0
1347 0 2 0.5897 7.151705032510542 14.489396758047404 7.177272877247926 0 0 1
1017 0 2 0.5897 8.197290478173375 14.058517381746478 4.690101896288037 0 0 0
1075 0 1 -1.1794 7.449811809060871 12.758495581443091 5.564663887111314 0 -1 -1
98 0 2 0.5897 10.327858530833717 14.769381129213778 6.195466337427433 0 -1 1
97 0 1 -1.1794 9.55436341738221 14.973170347077634 6.674856088863294 0 -1 1
800 0 2 0.5897 11.911684503949731 14.386842069220542 7.5695578076445 0 1 -1
99 0 2 0.5897 9.311329299780366 15.87615051944368 6.44688873650364 0 -1 1
799 0 1 -1.1794 11.576384437429233 13.480090555982652 7.542498574973131 0 1 -1
95 0 2 0.5897 3.0050849929806995 16.7495275687151 7.535565403661418 0 0 1
1065 0 2 0.5897 2.6978644386862767 19.354142178835676 7.938376876073885 0 0 1
1093 0 1 -1.1794 3.9346533389548357 18.627043525806677 4.434682096613389 0 -1 -2
1748 0 2 0.5897 2.848250250996282 18.125033753467363 5.672720459181351 1 -2 1
1747 0 1 -1.1794 2.4903806154504746 18.00799517566848 6.591461035796856 1 -2 1
1311 0 2 0.5897 5.230540219774884 19.216681589496936 5.527179951879751 0 -1 2
1749 0 2 0.5897 1.5387239569131004 18.002348698881903 6.4584963157652755 1 -2 1
1309 0 1 -1.1794 5.737997904258242 19.704282663964765 6.251292131019516 0 -1 2
1310 0 2 0.5897 6.021783483020889 19.060693668551327 6.9192316464895764 0 -1 2
1293 0 2 0.5897 11.306624419902102 19.08313295912257 5.883144372109091 0 -1 1
561 0 2 0.5897 8.167992175211648 17.796852053279892 6.235286572569185 0 -1 0
559 0 1 -1.1794 8.814606262073024 17.52608453200707 5.561933375999538 0 -1 0
560 0 2 0.5897 9.560149718998595 18.166260714297124 5.542703102546784 0 -1 0
1291 0 1 -1.1794 10.93200892178236 19.225888533631966 5.007869098250463 0 -1 1
315 0 2 0.5897 9.710327417238311 18.78554923351627 8.037486600648693 0 1 0
314 0 2 0.5897 8.184633173807326 18.55214867896347 8.23803607303467 0 1 0
1563 0 2 0.5897 6.575633648536712 16.567508973734444 8.041623092701895 0 2 0
313 0 1 -1.1794 8.90362704464535 19.207524857370036 8.235720060852147 0 1 0
1561 0 1 -1.1794 6.8343410097056845 17.49185832774144 8.056388658786778 0 2 0
733 0 1 -1.1794 11.85437315605448 18.845357892931553 7.4734342726153935 1 -1 0
1112 0 2 0.5897 2.6726807955012344 1.5413479243458856 8.50342259877001 0 1 1
1111 0 1 -1.1794 2.9480729179080845 2.4862573143591966 8.438578351442557 0 1 1
2053 0 1 -1.1794 1.378390853440764 1.0893878249829732 11.730054851274016 0 1 1
1812 0 2 0.5897 1.4136896882918661 3.2837556654154345 9.309021366607464 0 1 0
59 0 2 0.5897 4.215719212022819 2.063958349380395 11.986627662956796 0 2 1
553 0 1 -1.1794 4.503111348932482 3.4396470110080752 10.895412078314004 0 1 0
554 0 2 0.5897 4.274573602500647 3.422247326934314 9.971629534049473 0 1 0
1811 0 2 0.5897 1.1018710684299917 2.5657223972362293 10.633299122991339 0 1 0
60 0 2 0.5897 4.364647309587417 0.45585657306400934 11.916028153195965 0 2 1
2055 0 2 0.5897 2.287762759345494 1.1428142388614226 12.052451670757055 0 1 0
58 0 1 -1.1794 4.042204429800007 1.2093985859303444 12.398659338197056 0 2 1
1793 0 2 0.5897 6.275724134536128 1.3822605714269731 9.937861507579436 0 -1 2
555 0 2 0.5897 5.323445088049298 3.9322981019462837 10.921530234046749 0 1 0
1401 0 2 0.5897 9.139621486884705 3.1442305958962127 8.631788715012707 0 0 0
1794 0 2 0.5897 6.641412391692104 2.0808133139977674 11.258859366093894 0 -1 2
572 0 2 0.5897 9.934613166412545 1.6170809270112516 10.691421402561817 0 -2 -2
571 0 1 -1.1794 9.380650157081913 0.9121647264277 11.16127211774294 0 -2 -2
573 0 2 0.5897 8.50412496748654 1.1083753646177574 10.789854369197007 0 -2 -2
1792 0 1 -1.1794 6.750223991214526 1.2615972168998493 10.770878683018545 0 -1 2
833 0 2 0.5897 7.797677045157944 3.9175663590229757 11.821697520110403 0 -1 1
832 0 1 -1.1794 7.20174187000033 3.4450910351539625 12.432927846965603 0 -1 1
526 0 1 -1.1794 11.68134411086763 1.987586742734075 9.779469440741673 0 0 0
527 0 2 0.5897 11.64685786910883 2.0329803356855387 8.795374924201731 0 0 0
528 0 2 0.5897 11.975961952404285 1.1066069527718823 10.056783642283813 0 0 0
997 0 1 -1.1794 1.250814717907919 6.203234002979515 10.50338939678302 1 -1 0
101 0 2 0.5897 2.662741590132401 6.190442091445661 9.081946215073579 0 -2 0
765 0 2 0.5897 3.400640460601034 4.453628522911818 12.122931527964592 0 -1 1
1788 0 2 0.5897 6.136689120192297 4.72933485842743 8.614692429898911 0 0 2
1265 0 2 0.5897 4.0668178331731255 7.458562202176727 11.399787087168876 0 0 0
2075 0 2 0.5897 6.468891288089285 6.892269024842872 10.101278516441786 0 1 0
2074 0 1 -1.1794 6.329937440086366 7.704962653661545 10.548844202768418 0 1 0
998 0 2 0.5897 0.966643136702251 6.67184796482405 11.32752408139024 1 -1 0
999 0 2 0.5897 1.173289232038526 5.268870594065406 10.637922532845197 1 -1 0
2076 0 2 0.5897 6.53888863807692 7.634552594960602 11.509764347222756 0 1 0
385 0 1 -1.1794 1.0592403474899827 7.844854135355514 12.484754916373447 0 2 1
1825 0 1 -1.1794 12.238880235460647 7.28892486195432 8.62498901367524 0 1 0
1399 0 1 -1.1794 9.288842783628573 4.042849621324823 8.887249264314784 0 0 0
1400 0 2 0.5897 9.529107391010516 4.08885857018497 9.860974266204112 0 0 0
1786 0 1 -1.1794 6.5765019161856895 5.001199791212226 9.442397472260572 0 0 2
2059 0 1 -1.1794 9.810513824915432 4.451079950368077 11.618316935549023 0 3 1
1787 0 2 0.5897 7.530611757544283 4.8596838041291806 9.228958783158374 0 0 2
2061 0 2 0.5897 9.702096024421785 5.367007903550983 11.343894317285908 0 3 1
1578 0 2 0.5897 10.59169959976594 7.33069621980188 10.925877348479277 0 1 0
1576 0 1 -1.1794 9.657579986819352 7.176100535137649 10.756561243817641 0 1 0
1577 0 2 0.5897 9.52102785028071 7.282901929770879 9.828150409549577 0 1 0
1882 0 1 -1.1794 1.1403533249633382 9.65272059167249 10.039845017465915 0 2 1
1884 0 2 0.5897 1.1756051723197465 8.984541234730392 10.745877942605656 0 2 1
1264 0 1 -1.1794 3.6841893493447255 8.039922882047518 12.103868469344727 0 0 0
1883 0 2 0.5897 1.7301337848426754 9.366233052444151 9.34220823476584 0 2 1
1541 0 2 0.5897 4.106220872149433 9.577534210192704 9.132350703282096 0 -2 0
1540 0 1 -1.1794 4.948594546014678 9.860492848548562 9.588998462758425 0 -2 0
1542 0 2 0.5897 5.521924691847352 9.045181076642972 9.680036271727014 0 -2 0
875 0 2 0.5897 4.62770943365764 10.803081083635554 10.95333275778321 0 -1 1
874 0 1 -1.1794 4.200687940627466 11.218495702202617 11.737327039969655 0 -2 1
1266 0 2 0.5897 4.096500542014303 8.891477354830197 11.8107981810184 0 0 0
1833 0 2 0.5897 2.03395120335163 10.878321067139344 12.453731915952083 0 0 -1
2235 0 2 0.5897 0.874210720215189 11.311235404605373 10.431725499516588 1 1 0
606 0 2 0.5897 7.646149259523995 11.034806739284416 8.369160233000853 0 2 0
1805 0 2 0.5897 9.67037734613684 10.131412721626376 8.409151547666994 0 2 1
1252 0 1 -1.1794 11.95354444281217 9.71743691429395 10.17748917074633 1 -1 -2
604 0 1 -1.1794 8.164076401027838 11.404781036908556 9.095966950261179 0 2 0
1254 0 2 0.5897 11.392713634982286 9.720295257539135 9.38047130647585 1 -1 -2
1246 0 1 -1.1794 7.943833289070328 10.339602615567978 11.71101217878919 1 -1 1
1247 0 2 0.5897 7.26924614056236 9.700209048097811 11.555931939948822 1 -1 1
1248 0 2 0.5897 8.263705315724536 10.378818550926502 10.815031531174188 1 -1 1
830 0 2 0.5897 11.293381033658882 10.634124034143477 11.624989587529008 0 0 -1
1118 0 2 0.5897 7.470408496924054 11.959308325348482 12.286732125587974 0 1 2
829 0 1 -1.1794 11.099814069699402 11.31536212698933 12.28412471074534 0 0 -1
1253 0 2 0.5897 12.212183035530925 8.838345963610292 10.303344612925876 1 -1 -2
1335 0 2 0.5897 1.1901419293422089 13.86314782008248 11.816746330706865 0 1 0
2233 0 1 -1.1794 1.0227649451620906 12.248368655629983 10.626428081906868 1 1 0
876 0 2 0.5897 4.251955376857672 12.178038046920486 11.635373097906124 0 -2 1
49 0 1 -1.1794 5.78153476855923 12.840666761136884 9.495394407555214 0 0 1
1604 0 2 0.5897 4.138704244735321 12.943000393682427 8.55193222267126 0 0 -1
2234 0 2 0.5897 1.870591905328558 12.4428701236691 10.137158774144838 1 1 0
1333 0 1 -1.1794 1.4997064267732827 14.612817516557966 12.330402851460182 0 1 0
3 0 2 0.5897 4.64508929859118 14.918566144590034 11.713491130497541 0 -2 -2
1 0 1 -1.1794 4.222271899365498 14.212286328252958 12.245486016893093 0 -2 -2
1896 0 2 0.5897 1.5141957226985259 15.899585189151084 11.177167804700069 0 0 -1
50 0 2 0.5897 6.138681114644609 13.42487715908075 8.884357380990053 0 0 1
557 0 2 0.5897 5.840878155980176 16.03410539771778 10.253522582928301 0 3 -2
1334 0 2 0.5897 2.491084371664214 14.615944078105615 12.388451961409503 0 1 0
1862 0 2 0.5897 9.517496236108924 14.392582799889086 8.352978299339634 0 1 -1
51 0 2 0.5897 6.568577917024685 12.3560661174233 9.795435303479717 0 0 1
831 0 2 0.5897 10.68834105557088 12.133166865459806 11.97670665200116 0 0 -1
605 0 2 0.5897 8.583938877111445 12.209506543025407 8.750151176769673 0 2 0
1119 0 2 0.5897 6.97707431397462 13.422382789923192 11.897636324569953 0 1 2
1863 0 2 0.5897 9.776615416814558 14.117655739374317 9.83321662186912 0 1 -1
1861 0 1 -1.1794 9.110564412188358 13.981977711042932 9.155196830789986 0 1 -1
287 0 2 0.5897 8.088027648380514 15.498326243070114 11.487774995433067 0 2 0
286 0 1 -1.1794 7.39331734667473 15.157840458837022 10.839366811298598 0 2 0
7 0 1 -1.1794 10.299767575216716 13.884817866235602 11.495775240105809 0 -2 0
288 0 2 0.5897 7.897768756326732 14.74257907259665 10.146195219091009 0 2 0
8 0 2 0.5897 9.579076201118008 13.736684127776659 12.1468551226505 0 -2 0
9 0 2 0.5897 10.968001594005907 14.426825521107492 11.992969158709572 0 -1 0
801 0 2 0.5897 12.060045460094365 13.134423611660438 8.37700714664139 0 2 -1
2103 0 2 0.5897 0.932893489033298 19.667950829752538 11.007590340026205 0 1 -1
96 0 2 0.5897 3.8912922278986555 16.051880674228375 8.579533889909506 0 0 1
556 0 1 -1.1794 4.8771174615390915 16.173550895802197 10.155455137390597 0 3 -2
1894 0 1 -1.1794 1.428597538589703 16.472565615802193 10.350294270279857 0 0 -1
1895 0 2 0.5897 1.9258181717560585 16.06309388110408 9.632364429888561 0 0 -1
1063 0 1 -1.1794 2.560709515635352 19.986757867423506 8.683222857397862 0 0 1
1064 0 2 0.5897 1.8033181897400101 19.672814232538236 9.154164611714608 0 0 1
558 0 2 0.5897 4.693246644755201 17.123307587845396 10.449926347259941 0 3 -2
110 0 2 0.5897 3.6891306286752785 18.98229744810253 10.089783362465123 0 -1 0
109 0 1 -1.1794 3.9710536735891555 18.642487303160518 10.944939215929676 0 -1 0
111 0 2 0.5897 3.162929157266923 18.348219100351198 11.477241472108547 0 -1 -1
1013 0 2 0.5897 6.222862475322487 18.259408063444365 11.46743101166733 1 0 0
2102 0 2 0.5897 1.1391777862701318 18.132792506116623 10.500862979730238 0 1 -1
785 0 2 0.5897 11.626407527885988 18.325302245132296 10.558725015515131 0 0 -2
784 0 1 -1.1794 11.2481765521387 19.044113537429062 10.010685978323073 0 0 -2
721 0 1 -1.1794 11.06132299096269 16.19345948115956 9.186047757171997 1 -2 0
722 0 2 0.5897 11.330591361116761 16.84108223857067 8.514199312322958 1 -2 0
723 0 2 0.5897 10.326343223377 16.630596255594654 9.603866374432018 1 -2 1
1562 0 2 0.5897 6.567747675817351 17.668172645252117 9.004953420185595 0 2 0
786 0 2 0.5897 10.45523116211134 19.344014303140987 10.440813847874752 0 0 -2
1012 0 1 -1.1794 6.999430663518552 18.49577634547223 10.905828322028741 0 0 0
1014 0 2 0.5897 7.020707621238135 19.451228951243564 11.036991440396939 0 0 0
1791 0 2 0.5897 8.67019981927388 17.81774461468947 10.989219156517184 0 -2 2
1789 0 1 -1.1794 9.30440894171601 17.172905538165423 11.16971289662182 0 -2 2
1790 0 2 0.5897 9.615554833085787 17.463127442386206 12.035077543601501 0 -2 2
735 0 2 0.5897 11.691359297185304 19.158169561195685 8.405387391129079 1 -1 0
54 0 2 0.5897 2.629683825997577 1.8030356693245213 14.63053316268454 0 2 1
52 0 1 -1.1794 2.640436733348248 2.719895862448515 14.898977787173466 0 2 1
312 0 2 0.5897 5.350885289891802 0.9875291018037973 13.783626593262241 0 0 1
53 0 2 0.5897 2.9674108902863665 3.184301197241455 14.110483041644844 0 2 1
626 0 2 0.5897 4.070998712073932 3.1039063994378333 16.30133198518975 0 1 0
1644 0 2 0.5897 1.6192265136341448 3.2935212181596265 16.20977018146189 0 -1 -1
310 0 1 -1.1794 5.840350175205486 0.5360761771740359 14.382842978060971 0 0 1
625 0 1 -1.1794 4.992051036069187 3.1134690408269434 16.683513288577135 0 1 0
311 0 2 0.5897 6.675807254602423 0.9746911945234723 14.541356875331306 0 0 1
2034 0 2 0.5897 9.691363225554761 0.514128583197873 12.906952766307406 0 -1 1
1735 0 1 -1.1794 8.199637022623827 2.0448506308331464 14.5403631321851 1 0 0
1736 0 2 0.5897 8.78140839040773 1.3167023791336383 14.631160392100554 1 0 0
834 0 2 0.5897 7.787133453125608 2.930418451878638 13.017158174177034 0 -1 1
1737 0 2 0.5897 8.14265424851261 2.4252865101826573 15.401118857168461 1 0 0
1800 0 2 0.5897 11.524922675569913 0.3684933360480391 14.628637989183627 0 1 -2
2032 0 1 -1.1794 10.000144788409827 0.1582086742584311 13.734807401951844 0 -1 1
1137 0 2 0.5897 11.103705266610815 0.7052731113197469 16.66946301583568 0 0 -1
360 0 2 0.5897 11.80195401570479 3.8188069430796125 13.580013239868013 0 -1 -1
622 0 1 -1.1794 11.371703135946987 3.6291727747792004 16.47503850902191 0 2 0
18 0 2 0.5897 1.0601905885248988 4.507706348237916 13.392134781231256 0 0 -1
387 0 2 0.5897 1.954037188838176 7.998591383457749 12.756732509898582 0 2 1
763 0 1 -1.1794 2.855538697201476 4.6157393868604935 12.902039729569239 0 -1 1
990 0 2 0.5897 6.075151769516331 4.184301128794214 15.40924941657813 1 1 -1
764 0 2 0.5897 3.3633458498422124 5.25937911585908 13.461508071016215 0 -1 1
257 0 2 0.5897 4.923321718849285 6.066336721322389 14.60259335207225 0 1 -2
256 0 1 -1.1794 3.9697347109339507 6.332212970469925 14.561313362233502 0 1 -2
258 0 2 0.5897 3.8088123801245475 7.100568316559868 14.04050128342276 0 1 -2
597 0 2 0.5897 2.849314055214181 6.315616965200535 16.332030242225105 0 1 -1
988 0 1 -1.1794 6.423462413936365 4.81086114194745 14.800717571497167 1 1 -1
1846 0 1 -1.1794 6.494075354434555 7.6797088716132365 13.371426763012417 0 -1 -1
1337 0 2 0.5897 9.592846648772388 7.5153798644696606 12.629484029991378 0 1 1