LAMMPS data file via write_data, version 23 Jun 2022, timestep = 40000000

2268 atoms
2 atom types

0.9474887770628513 46.503210222863544 xlo xhi
0 20.047001 ylo yhi
0 20.857 zlo zhi

Masses

1 1.008
2 15.999

Atoms # full

1370 0 2 0.5897 2.7007282252821954 3.2258718910398403 0.902289434199139 0 1 1
526 0 1 -1.1794 5.842564223021925 1.9424395004747712 1.029691822806145 0 0 1
1548 0 2 0.5897 2.1788333075270665 0.5702796810256118 3.2480253174778277 0 -2 -2
527 0 2 0.5897 5.778278467933858 2.710967926063244 1.644498711880411 0 0 1
593 0 2 0.5897 3.486732561748963 0.5154259416352626 1.4542958232340812 0 0 1
1653 0 2 0.5897 6.136278056671821 0.6179026072738483 3.9292479546888837 0 4 0
1371 0 2 0.5897 2.4566948290499497 3.708626404564777 2.3491832624388973 0 1 1
2096 0 2 0.5897 6.582060217143206 0.296064838981568 0.8859594633950874 0 0 1
1546 0 1 -1.1794 1.4039782835107943 0.7386195999970157 3.865705114243543 0 -2 -2
1369 0 1 -1.1794 2.8961299879052627 3.995211472488522 1.4750393582797017 0 1 1
592 0 1 -1.1794 3.498288269632029 0.0288686120589855 2.3178157504074925 0 1 1
1311 0 2 0.5897 6.561747886061156 3.285724524252398 3.287843053299013 0 -1 2
528 0 2 0.5897 5.277539177412444 2.089782423624581 0.2978216271597646 0 0 1
1309 0 1 -1.1794 6.0227036171741455 3.975143257012826 2.9116798447704006 0 -1 2
1263 0 2 0.5897 1.700315246692167 2.5094482098749133 4.128525151033308 0 0 0
1261 0 1 -1.1794 1.6853724237767533 3.468619152474525 3.897671107105273 0 0 -1
911 0 2 0.5897 8.346906279527712 1.742417418304595 2.8988605777739647 0 0 0
1801 0 1 -1.1794 9.193231774348954 1.7464902831824574 0.9837823936009271 0 4 -2
1802 0 2 0.5897 8.533906561543867 1.8854476810678114 0.2863626516868803 0 4 -2
1803 0 2 0.5897 9.719070222703857 2.5825385205261826 0.9945044155188146 0 4 -2
262 0 1 -1.1794 11.71958692375417 2.031751107246716 2.895433996139867 0 0 2
1994 0 2 0.5897 10.702315234054133 3.292100978074663 3.119235343670598 1 2 3
910 0 1 -1.1794 7.689263739857597 1.7006009430446156 3.5609124721268364 0 0 0
263 0 2 0.5897 11.293179876852108 1.1912711696930687 3.1823704401651876 0 0 2
1020 0 2 0.5897 11.656017850692361 1.3366602566564603 1.086701527822054 0 0 -2
1018 0 1 -1.1794 11.85024308451145 0.8479476056296604 0.24043252197703097 0 0 -2
264 0 2 0.5897 12.214972419346692 2.2275426031960577 3.7007163918557158 1 0 2
990 0 2 0.5897 3.21513287355509 5.827694326609485 1.6523931936256786 1 1 0
988 0 1 -1.1794 3.5353934360357147 6.718583260909292 1.8521819411784346 1 1 0
989 0 2 0.5897 3.0088475192979973 7.362022405226811 1.3612330863056712 1 1 0
525 0 2 0.5897 2.2492814461216835 6.869775161589966 3.049165632375523 0 0 3
774 0 2 0.5897 4.838191774402402 7.1789423213759544 2.798015287852124 0 2 1
772 0 1 -1.1794 5.552645016988711 7.61468633978634 3.2589309171332737 0 2 1
1310 0 2 0.5897 5.660324488389422 4.409804370480523 3.6945803252828453 0 -1 2
523 0 1 -1.1794 1.6695829334765924 7.1000588917165235 3.86692425683835 0 0 3
1269 0 2 0.5897 6.747113623300082 6.842118281830577 0.3138453009921552 0 2 -1
566 0 2 0.5897 6.837113146457981 4.751474919454278 1.4206757947639224 0 1 0
565 0 1 -1.1794 7.089516578614435 5.169126608946188 0.5392423139306156 0 1 0
1267 0 1 -1.1794 6.6964891558644295 7.810515914074494 0.339980738369636 0 2 -1
1993 0 1 -1.1794 10.131150590068547 4.045069764926656 3.070654042693552 1 2 3
1995 0 2 0.5897 9.675181637612416 4.138110971020868 3.9121805477946987 1 2 3
1079 0 2 0.5897 10.001921565839966 4.527755626940585 1.5733239946228594 0 -2 -1
567 0 2 0.5897 7.919257904194274 4.777383684609008 0.20989459079510375 0 1 -1
1078 0 1 -1.1794 10.104499364175854 4.719727699453058 0.6104472486574799 0 -2 -1
2 0 2 0.5897 11.915675609067906 4.195717426622545 0.05848318765394408 0 -2 -2
539 0 2 0.5897 11.487158228525653 5.461070490977169 2.963950471291758 0 1 0
1080 0 2 0.5897 10.157686605420771 5.691801130987699 0.391963857885219 0 -2 -1
350 0 2 0.5897 9.962280083550835 7.903480461545327 0.16080726718427385 0 3 1
2243 0 2 0.5897 12.007509424234748 7.440635158009099 3.5782417006986367 1 2 1
538 0 1 -1.1794 12.303865549163332 5.9016193276908036 3.243202850496324 0 1 0
773 0 2 0.5897 5.909471730295055 8.255810446727109 2.5892362077651576 0 2 1
55 0 1 -1.1794 3.239587083149445 11.165433018640567 1.5752484629963175 0 -1 0
56 0 2 0.5897 4.183271005505533 11.007105358070326 1.7372691979984907 0 -1 0
759 0 2 0.5897 2.1412307015310033 10.231514683469266 2.99801203099311 0 1 1
562 0 1 -1.1794 5.79648656374264 10.296573932410494 1.6675191853037725 0 -1 1
509 0 2 0.5897 2.7296909360640687 9.672956472696631 0.9834822690897048 0 -1 2
564 0 2 0.5897 5.9761288620527555 10.47939212151078 0.7484465935007695 0 -1 1
563 0 2 0.5897 6.5022580531998875 10.427991197333874 2.3046634933926087 0 -1 1
758 0 2 0.5897 1.8090832919634416 9.030741744227678 3.8624577078482725 0 1 1
508 0 1 -1.1794 2.5963081112265565 8.834835851377493 0.47517087654990403 0 -1 2
510 0 2 0.5897 1.6637791307041443 8.760636340469079 0.3393297192500944 0 -1 2
757 0 1 -1.1794 1.6254381640012214 9.978972983802562 3.778893992792677 0 1 1
2242 0 1 -1.1794 11.928540960885984 8.441181764932205 3.641829844363009 1 2 1
497 0 2 0.5897 8.119648712303015 8.491675823406439 0.7554140619485202 1 -1 -1
1529 0 2 0.5897 10.120740303101341 8.187598470637973 3.6304355159168837 0 -1 -1
498 0 2 0.5897 9.09299018559211 8.644512543358138 1.9796852853001057 1 -1 -1
496 0 1 -1.1794 8.792594894184187 9.067176845184639 1.1432220332289589 1 -1 -1
1001 0 2 0.5897 9.097536588865086 10.678028083155857 0.8363187209443199 1 0 0
1528 0 1 -1.1794 9.211212115865473 8.506533510630682 3.6935956437315545 0 -1 -1
1076 0 2 0.5897 8.39109823890233 10.282342996719155 3.498881847297628 0 -1 -1
1000 0 1 -1.1794 9.189729535335626 11.655837846491039 0.7327817269160627 1 -1 0
1075 0 1 -1.1794 7.559800027622916 10.671484541877357 3.8175243202448392 0 -1 -1
1077 0 2 0.5897 7.729825607030485 11.619888548175217 3.770215102869906 0 -1 -1
1034 0 2 0.5897 10.847256356169126 11.886120073321806 0.814536049891729 0 0 -1
1033 0 1 -1.1794 11.784045002835487 11.951630085943368 0.9504430464577629 0 0 -1
1074 0 2 0.5897 10.920609119983112 11.700223682617406 4.08508929831028 0 -1 -2
2244 0 2 0.5897 12.322813703261462 8.741850450278049 2.79456507061948 1 2 1
57 0 2 0.5897 3.2073119093900173 12.163277963703676 1.4413537744586877 0 -1 0
67 0 1 -1.1794 1.6428762794993017 13.923113120683494 3.7214890779749386 0 -1 1
2094 0 2 0.5897 4.61619660002901 13.835236291116077 2.852848566169407 0 0 3
272 0 2 0.5897 2.5991136014654206 14.039759252301234 2.2640770776902794 0 -1 0
271 0 1 -1.1794 3.1310956224433304 13.894187793248369 1.454260547551805 0 -1 0
273 0 2 0.5897 2.7251448941923457 14.488272539274167 0.7827889772175981 0 -1 0
2092 0 1 -1.1794 5.265091015107783 13.737367924360017 3.6299489570180823 0 0 3
1525 0 1 -1.1794 6.214428509812108 14.961097332928123 0.3958634498998118 0 2 -2
1526 0 2 0.5897 5.953934672385056 15.554690170404204 1.0801418191556023 0 2 -2
2093 0 2 0.5897 4.989648852316674 12.928236833630455 4.097265697437655 0 0 3
77 0 2 0.5897 1.3543967622033781 15.598494474891298 4.15922646089066 0 -2 -1
1736 0 2 0.5897 6.861180988190478 13.624543233455858 2.8427445817809454 1 0 0
1527 0 2 0.5897 6.753556667972219 14.259061672963815 0.8136079208980823 0 2 -2
1002 0 2 0.5897 8.61367605406971 12.137093097599921 1.3177391890295223 1 -1 0
1737 0 2 0.5897 8.410623306484498 13.667882212378974 2.9051317832471426 1 0 0
1735 0 1 -1.1794 7.654337134467802 13.516916817517671 2.28507434006259 1 0 0
1249 0 1 -1.1794 9.887134581211503 13.213756643945736 3.8006638920570555 1 0 -1
1250 0 2 0.5897 10.340959999094055 14.109041060091451 3.8320638393130273 1 0 -1
1035 0 2 0.5897 11.97100708593283 12.608558694500628 1.6660940641570317 0 0 -1
74 0 2 0.5897 11.693074622612398 15.480776972366947 2.7057110257196615 0 -2 1
73 0 1 -1.1794 11.466057524187343 15.469406040836496 3.6383992895620674 0 -2 1
1757 0 2 0.5897 6.902057329495351 15.480424349487965 3.881297847942444 1 1 1
1084 0 1 -1.1794 11.449396549587718 16.024183603597866 0.9082887124998503 0 -3 3
1085 0 2 0.5897 10.472328516836436 15.885463533150414 1.002149103626297 0 -3 3
225 0 2 0.5897 8.379313669860238 15.711874158034583 2.2344715130398742 1 0 0
1651 0 1 -1.1794 5.740396380813236 19.78590945990495 3.905314416184791 0 3 0
1652 0 2 0.5897 5.1781393443911465 19.720507645287707 3.1385881181923496 0 3 0
1089 0 2 0.5897 2.8670389390567346 16.976032397210183 1.462005383362436 0 -2 0
2119 0 1 -1.1794 5.854628066847215 16.54287955513519 2.4053875047246014 0 1 2
2120 0 2 0.5897 6.286957857359346 17.38651729511417 2.352072993504787 0 1 2
594 0 2 0.5897 3.2833348732106282 19.150018953756103 2.230151899271276 0 0 1
1087 0 1 -1.1794 3.0663573289166584 17.364447309910094 2.329608553854096 0 -2 0
1088 0 2 0.5897 2.3045778604544402 17.18224554270617 2.871655617206505 0 -2 0
2121 0 2 0.5897 4.928361758649228 16.827052993506843 2.526702124471193 0 1 2
2095 0 1 -1.1794 6.639203641732237 19.357610733742774 0.8481815610978647 0 -1 1
1023 0 2 0.5897 9.604410717792305 19.698742497160662 0.6103825101509933 0 1 0
767 0 2 0.5897 7.170406320246838 19.016193212965153 3.6063474007495375 0 -1 2
2097 0 2 0.5897 7.56190469809976 19.063418426074822 0.729692800080195 0 -1 1
223 0 1 -1.1794 8.688367892153902 16.2691021257642 1.52478933244402 1 0 0
224 0 2 0.5897 8.549155745745225 17.12029702448067 1.9843525651071685 1 0 0
1021 0 1 -1.1794 9.364695774762318 18.803027970518347 0.40704553417602046 0 1 0
766 0 1 -1.1794 8.03442803622879 18.524209193055768 3.442441067677792 0 -1 2
768 0 2 0.5897 8.683855802969589 19.198954226601984 3.073235277985028 0 -1 2
1893 0 2 0.5897 11.337732605725957 19.207152578656967 3.7370114243440193 0 1 -1
1891 0 1 -1.1794 10.550791569097843 19.798118919718668 3.579056273878721 0 1 -1
75 0 2 0.5897 11.189895014154642 16.318726905286557 3.8730548817275454 0 -2 1
1019 0 2 0.5897 11.936489557189883 19.955644671864384 0.5158458509052176 0 -1 -2
1380 0 2 0.5897 12.138981056244921 17.50629334843134 1.2500480726623235 0 0 2
1139 0 2 0.5897 3.965802759915916 2.1229649161715063 4.185769725372414 0 2 -2
1140 0 2 0.5897 4.669845089585464 3.1210493322232815 5.094674960863616 0 2 -2
1138 0 1 -1.1794 4.405608465234122 2.159209986002124 5.059692714840796 0 2 -2
1514 0 2 0.5897 3.089804438378731 1.7821704135440042 6.35434628735223 0 1 1
1513 0 1 -1.1794 2.5038197797794615 1.9654416187012202 7.050744891198185 0 1 1
1788 0 2 0.5897 5.66112192275286 1.3946718413580854 6.7278421791917715 0 0 2
1515 0 2 0.5897 1.683116483837658 1.6237666384993692 6.700395638528076 0 1 1
1786 0 1 -1.1794 6.146481361645269 1.435810187906776 7.55937619230579 0 0 2
1262 0 2 0.5897 1.9924259057414426 3.9936515572246956 4.674196752924956 0 1 -1
1547 0 2 0.5897 1.5297721107317366 0.08129670905387414 4.538236172465958 0 -2 -2
1113 0 2 0.5897 2.894412306300765 0.5935386497223685 8.32487968338718 0 1 1
1787 0 2 0.5897 7.036757370206756 1.7200858853030443 7.224064568775893 0 0 2
912 0 2 0.5897 8.060803565685465 1.9051994863296122 4.443726401786801 0 0 0
2122 0 1 -1.1794 8.501709361853838 2.048093995887641 6.152974414498077 0 1 0
2123 0 2 0.5897 8.854892348133237 2.954455922741 6.079570673190897 0 1 0
2124 0 2 0.5897 9.238879429955524 1.469464372622783 6.294266756261014 0 1 0
1588 0 1 -1.1794 10.794202138421467 0.5118834052959343 6.3594127152318 0 2 0
1589 0 2 0.5897 11.722951040555774 0.6627753718937248 6.67336866568926 0 2 0
1892 0 2 0.5897 10.552165524746721 0.10126507068637969 4.500474264351399 0 2 -1
1013 0 2 0.5897 5.46557836360664 4.997662868165169 6.297704058498011 1 1 1
1012 0 1 -1.1794 5.010732147510573 4.923648897349399 5.4245527242249 0 1 1
1014 0 2 0.5897 4.106440463248066 5.191131145827974 5.620805711190746 0 1 1
1516 0 1 -1.1794 2.281132077890084 5.1764500240088935 5.654636711939405 0 0 -1
1517 0 2 0.5897 2.004929201252547 5.977445107466082 5.163921238962268 0 0 -1
1518 0 2 0.5897 1.9035373779345885 5.275740458809625 6.481994627258252 0 0 0
51 0 2 0.5897 6.540485169346764 7.494679520235458 7.958486703326627 0 0 1
1884 0 2 0.5897 3.0162269371734647 7.951174425842662 7.712344983505842 0 2 1
1252 0 1 -1.1794 6.4211217216118905 5.343629149602172 7.960368680074957 1 -1 -2
353 0 2 0.5897 6.694213085101095 7.112103886730099 4.6383807539044595 0 0 1
1530 0 2 0.5897 8.668067974442721 7.879460370093608 4.233148751557206 0 -1 -1
2033 0 2 0.5897 8.15129508367253 5.387327933341467 5.456293815866265 0 -2 1
2032 0 1 -1.1794 8.821982157489625 4.612125575210167 5.415532343365045 0 -2 1
2034 0 2 0.5897 9.59499790687502 5.028013106664271 5.772459449406043 0 -2 1
352 0 1 -1.1794 7.4564092003199285 6.936769403240403 5.2760904379216305 0 0 1
1814 0 2 0.5897 11.120688649013491 6.284453455112028 6.515112928592731 0 1 -2
1254 0 2 0.5897 7.293468586626413 4.939778710864016 7.997123547997974 1 -1 -2
1813 0 1 -1.1794 11.411985128335397 5.367513727540309 6.299062085420426 0 1 -2
1815 0 2 0.5897 12.106616601462612 5.4203894411886 5.635872823370213 0 1 -2
354 0 2 0.5897 7.157345292658668 7.35028130382948 6.087492761598531 0 0 1
1795 0 1 -1.1794 10.073884599561314 7.907051828608562 6.9046881014791675 0 -1 1
1119 0 2 0.5897 12.109551225244587 4.277508317688417 7.5656020844616245 0 1 1
49 0 1 -1.1794 6.520677716922868 8.462162212685362 7.810820206066917 0 0 1
50 0 2 0.5897 5.8082054738006805 8.475003646614406 7.185759421588833 0 0 1
2025 0 2 0.5897 4.821069533350496 8.115171706098002 4.694861027964392 0 0 2
1882 0 1 -1.1794 2.7636131150341976 8.778879308626479 7.261905475254123 0 2 1
2024 0 2 0.5897 3.9278182744327466 8.559601105593867 5.879269930465901 0 0 2
2023 0 1 -1.1794 4.825472322459085 8.54555401399149 5.577236588149884 0 0 2
848 0 2 0.5897 1.4361949945298527 11.022207137096004 5.10905541031698 0 0 2
1569 0 2 0.5897 4.731379937355982 10.778326924299048 4.951172889398521 0 1 1
1883 0 2 0.5897 3.1647410949136074 9.455630258270212 7.7905590054823595 0 2 1
1567 0 1 -1.1794 4.604264382279948 11.721909888951542 5.197870531567093 0 1 1
1568 0 2 0.5897 3.6265577747231914 11.698386049713426 5.426634788597999 0 1 1
847 0 1 -1.1794 1.6947532516325525 11.875093884692687 5.470429806461411 0 0 2
614 0 2 0.5897 5.359792464802829 11.84736633408178 7.010267340556432 0 2 0
47 0 2 0.5897 1.08966631573304 8.664418736280675 7.546288385526742 0 0 0
1073 0 2 0.5897 11.04853659587731 10.205591577673754 4.285471644582552 0 -1 -2
1796 0 2 0.5897 9.600725117625482 8.661093991167663 6.5620867256712065 0 -1 1
723 0 2 0.5897 7.607042420433492 9.480382364309321 6.83477673036177 1 -1 1
722 0 2 0.5897 8.0591869550431 10.227690091362954 5.627515295917565 1 -1 0
721 0 1 -1.1794 8.362743656372139 10.106229089669784 6.581245607378118 1 -1 0
1797 0 2 0.5897 10.064770185575956 8.019113826552504 7.870343570384016 0 -1 1
1072 0 1 -1.1794 11.050032560167585 11.046862229897274 4.758806386996714 0 -1 -2
1299 0 2 0.5897 9.956665920403653 11.670234105484926 6.444974203831729 0 0 1
1095 0 2 0.5897 12.172757368231233 11.255317801776272 7.077709813182189 0 -1 -2
849 0 2 0.5897 1.1564399827076242 12.043257427811467 6.269087560618138 0 0 2
1749 0 2 0.5897 1.5493716459654028 15.34742547585021 6.888446360930252 1 -2 1
485 0 2 0.5897 4.935376318612034 15.299424892650348 4.769211038518067 1 0 0
1747 0 1 -1.1794 2.4627138005682285 15.259460675232202 7.199035261986992 1 -2 1
1265 0 2 0.5897 5.709532499582099 15.19219082618179 6.963049737425642 0 0 0
484 0 1 -1.1794 4.717508534420443 15.857661405328711 5.539528540933972 1 0 0
1266 0 2 0.5897 6.061411592518645 14.085773928310193 7.9763950214439845 0 0 0
1264 0 1 -1.1794 6.371218232957991 14.938957451692573 7.641272054312987 0 0 0
613 0 1 -1.1794 5.824876594883576 12.225393749546024 7.749939036454714 0 2 0
69 0 2 0.5897 1.6049823021164422 13.133751368139224 4.345293601325077 0 -1 1
1748 0 2 0.5897 3.04566476463512 15.27175081644126 6.412001813002576 1 -2 1
1251 0 2 0.5897 9.25382294172876 13.247364278576091 4.566482856842507 1 0 -1
1756 0 1 -1.1794 7.740785974008946 15.275247471782071 4.370773832151463 1 1 1
2100 0 2 0.5897 7.289596154058297 12.552018831591294 6.347580517937102 0 -1 1
1298 0 2 0.5897 10.907452712550786 12.904920231613783 6.372372520374225 0 0 1
1297 0 1 -1.1794 10.404199859936066 12.34307740946019 6.987907522265913 0 0 1
2099 0 2 0.5897 7.469329089386865 13.77547257681673 5.398947745695568 0 -1 1
2098 0 1 -1.1794 7.663066245485171 12.83299489794902 5.457558891891892 0 -1 1
1572 0 2 0.5897 9.279721835894584 13.990410348421255 7.2479764896071375 0 1 -1
1570 0 1 -1.1794 9.169954354834102 14.973120112659457 7.197142686121133 0 1 -1
1571 0 2 0.5897 8.236184468628764 14.965807032212055 7.492556727642438 0 1 -1
1358 0 2 0.5897 12.000276878423076 15.127636916446546 6.385318537111852 0 0 -2
1357 0 1 -1.1794 12.315220165157815 14.192869460131533 6.307303894778877 0 0 -2
1563 0 2 0.5897 6.51266982305992 19.697708549825002 7.846385526260785 0 2 -1
78 0 2 0.5897 1.0622349437108893 17.055653106947947 4.7080756869465255 0 -2 -1
486 0 2 0.5897 4.812569798549065 16.76326802743725 5.2344553441618755 1 0 0
1049 0 2 0.5897 4.7708608960018815 19.428216267776982 5.242893479129806 0 -1 -2
1048 0 1 -1.1794 4.308629435426976 18.962298039029783 5.882363415863492 0 -1 -2
1295 0 2 0.5897 2.5220048292389587 18.6548541943208 5.805254966857847 0 0 0
1294 0 1 -1.1794 1.581198543563003 18.65320285077958 5.701819072717167 0 0 0
1050 0 2 0.5897 4.879195182231383 18.95842678851228 6.64876710360846 0 -1 -2
1561 0 1 -1.1794 6.28738753169521 18.786925444380607 7.735283571586586 0 2 -1
600 0 2 0.5897 2.951458407053002 16.785588888817887 8.186986074155081 0 -1 -1
1296 0 2 0.5897 1.053639713108486 19.003580473951438 6.448634430322919 0 0 0
1590 0 2 0.5897 10.46213898984254 19.854485882461475 6.935587924940424 0 1 1
1903 0 1 -1.1794 11.380205800638715 16.83310326009946 6.400585414148286 0 0 -2
1904 0 2 0.5897 10.454832193779904 16.738863175141415 6.602452301922828 0 0 -2
1905 0 2 0.5897 11.835691905489245 17.20404392174115 7.211385694890823 0 0 -2
1758 0 2 0.5897 7.9868471277505755 16.09035586342835 4.765030315328037 1 1 1
1641 0 2 0.5897 8.404792819184099 17.914412510969765 5.220276930989311 0 1 0
1640 0 2 0.5897 7.360567997252375 17.843491907102496 6.436221103306108 0 1 0
1639 0 1 -1.1794 8.246347884342171 17.514033414378037 6.078546895918481 0 1 0
1989 0 2 0.5897 8.973001873760785 18.288279860877097 7.603541566464365 1 0 1
1987 0 1 -1.1794 9.331675523141524 18.973764254770224 8.18435007933496 1 0 1
860 0 2 0.5897 2.5036941994868407 3.4723006194066115 8.429323381246766 0 1 1
221 0 2 0.5897 5.658569769764957 2.5384104316937877 8.95333355345228 1 -1 1
504 0 2 0.5897 4.828486640539653 1.9111879949180168 11.563800410682454 1 -1 -2
503 0 2 0.5897 4.517676491991045 3.443170983679965 11.986729463953749 1 -1 -2
220 0 1 -1.1794 5.415868829675995 3.389542683622334 9.389662564820096 1 -1 1
109 0 1 -1.1794 5.176040951826299 0.5953240580752065 10.538562787785315 0 0 0
1812 0 2 0.5897 1.945525509556644 0.1959659838925649 10.616362533926136 0 1 0
110 0 2 0.5897 6.060690803588889 0.7726270759149815 10.093262408643227 0 0 0
111 0 2 0.5897 4.514612407725025 0.46037164443385264 9.831817538478273 0 0 -1
1111 0 1 -1.1794 2.987795907740756 0.04667988733852245 9.09546174198272 0 1 1
861 0 2 0.5897 2.175634493366908 3.44849938073148 9.98042598260217 0 1 1
859 0 1 -1.1794 2.5923032711066227 3.9397972586748606 9.243330314968434 0 1 1
999 0 2 0.5897 1.138565595778112 2.1816641362297164 11.354225351242969 1 -1 0
1810 0 1 -1.1794 1.2380636610187954 0.44054035361962857 11.301269768117 0 1 0
998 0 2 0.5897 1.1961698107788497 3.6043730947365904 12.014964241997045 1 -1 0
502 0 1 -1.1794 4.264269614120882 2.492181405219158 12.099955879682389 1 -1 -2
222 0 2 0.5897 4.422660215229429 3.4323037341415636 9.489383102064087 1 -1 1
1811 0 2 0.5897 1.584875174945794 0.015425335509178767 12.077919335989918 0 1 0
1824 0 2 0.5897 10.564668556801426 2.7538646584284527 9.047577214796695 0 -2 -1
1822 0 1 -1.1794 10.100904492171496 2.5489237928966144 9.891211761144008 0 -2 -1
1823 0 2 0.5897 9.400578309627107 1.9698702028882813 9.585445597358383 0 -2 -1
1389 0 2 0.5897 11.959364401448669 1.010230692792777 10.204159389547698 0 3 -3
34 0 1 -1.1794 7.881679448615495 0.6109109612051072 9.974413221671174 0 0 -1
328 0 1 -1.1794 7.343608751971806 3.887330103674282 11.961815961231446 0 -4 1
36 0 2 0.5897 8.140057021497054 0.4736524434614131 10.907950126491821 0 0 -1
558 0 2 0.5897 10.164143750566074 3.8205166199735747 11.25014033184412 0 4 -1
1598 0 2 0.5897 8.102935285215793 1.9436860619542893 12.441497353654977 0 1 0
1599 0 2 0.5897 9.505671143737306 1.258974574031078 12.461612517003612 0 1 0
259 0 1 -1.1794 3.6169615440062355 6.680924100538066 8.830156738342026 0 4 0
1831 0 1 -1.1794 1.2460774902744474 7.224303148048626 10.611277786830534 0 0 -1
261 0 2 0.5897 3.3844575387898637 5.768552790493164 8.879751780048215 0 4 0
260 0 2 0.5897 4.187467475042064 6.8366031850056945 9.633752132598138 0 4 0
1832 0 2 0.5897 1.977961432300746 7.03687492095047 9.99302678900214 0 0 -1
1141 0 1 -1.1794 5.512127743025505 7.008745503171299 10.805579687519659 0 0 -1
1542 0 2 0.5897 4.872285449480233 5.739416022207745 11.738531905988927 0 -2 0
1833 0 2 0.5897 1.383852508970836 6.640442348288648 11.40421998017306 0 0 -1
1143 0 2 0.5897 6.429384172665941 7.2205104973025565 10.544842084304832 0 0 -1
1540 0 1 -1.1794 4.33825086870776 5.28780693808986 12.390447609639722 0 -2 0
1253 0 2 0.5897 5.91960334088075 4.723763127452101 8.457792830887158 1 -1 -2
1142 0 2 0.5897 5.1560455565484995 7.7269480939596304 11.403008438439532 0 0 -1
25 0 1 -1.1794 11.588275513276953 7.986426994757951 11.05251180960794 0 1 0
644 0 2 0.5897 10.8788572005153 5.824229027336059 8.681413083140479 0 1 0
643 0 1 -1.1794 11.525709804828788 6.530702364946245 8.930005402339951 0 1 0
26 0 2 0.5897 11.957007070953436 7.347481393586268 11.72788611123775 0 1 0
330 0 2 0.5897 6.830300297050372 4.0110564335708565 11.154943497361522 0 -4 1
796 0 1 -1.1794 9.148461926123279 5.14398541033752 8.64397545723352 0 2 3
797 0 2 0.5897 9.164367329727702 4.39038715548189 9.2379371241445 0 2 3
557 0 2 0.5897 11.545120802393681 4.393475787954071 11.740943873945326 0 4 -1
556 0 1 -1.1794 10.637463542994222 4.62525055136966 11.569646649189957 0 4 -1
798 0 2 0.5897 8.709791122555703 5.797471796055678 9.251221590876385 0 2 3
1293 0 2 0.5897 8.562796130228337 7.0105565927479025 11.389578491519892 0 0 1
1291 0 1 -1.1794 8.064714328836246 7.253884278743487 10.577687069006243 0 0 1
1373 0 2 0.5897 9.734555729929731 5.574313288758991 12.39803604313861 0 1 0
329 0 2 0.5897 7.475417518715117 4.74613580376768 12.37549658567919 0 -4 1
645 0 2 0.5897 11.290071331516979 6.8585384112528205 9.777688658830446 0 1 0
615 0 2 0.5897 6.004251039626911 11.540986666157538 8.413679530665737 0 2 0
2233 0 1 -1.1794 1.341851536310398 10.069201374538588 10.79773203958313 1 1 0
2234 0 2 0.5897 1.3279979205363668 9.08637867976426 10.780305115170142 1 1 0
309 0 2 0.5897 3.3695888169691037 11.704313158231333 9.06390514565035 0 0 0
1247 0 2 0.5897 6.236187624185635 9.36207590176506 9.405876757844162 1 -1 1
307 0 1 -1.1794 3.3375418583297676 10.714508012316267 9.219343897695541 0 0 0
1246 0 1 -1.1794 5.893430916271623 10.1946669648881 9.817634407371598 1 -1 1
308 0 2 0.5897 4.162574906138817 10.485090695818004 9.678122283165616 0 0 0
2235 0 2 0.5897 2.0813238450254947 10.343055613707097 10.184855947207508 1 1 0
801 0 2 0.5897 1.704439817008213 11.487173274492113 12.061716726694247 0 2 -1
1248 0 2 0.5897 6.4688191708249825 10.350237152772515 10.605381061171286 1 -1 1
1292 0 2 0.5897 8.388803784792032 8.172461016450436 10.469339687842222 0 0 1
1504 0 1 -1.1794 6.878887429922408 10.417151206335028 12.379783388271456 1 1 -2
2084 0 2 0.5897 8.510924348132404 9.737600792572698 8.439742686597146 0 -1 3
2083 0 1 -1.1794 8.833196268241837 9.364852724749326 9.222312608794862 0 -1 3
2085 0 2 0.5897 9.401027902977928 10.087090886384091 9.63453063281962 0 -1 3
124 0 1 -1.1794 9.689294644221096 9.797216180622485 12.306762396813035 0 -1 -1
27 0 2 0.5897 11.046883913323976 8.62106936858172 11.468788723713597 0 1 0
1505 0 2 0.5897 7.8222927056929565 10.148122973530034 12.446601952668573 1 1 -2
2017 0 1 -1.1794 10.232128938745868 11.646115492086551 9.6303616711017 0 1 -1
2019 0 2 0.5897 10.999557420203196 11.89237654712093 10.234275283647698 0 1 -1
96 0 2 0.5897 2.696018751720251 13.914275260713504 8.379649581787207 0 0 1
2102 0 2 0.5897 1.1912266382204706 15.922008630922784 11.277954896255652 0 1 -1
1894 0 1 -1.1794 0.9818084558346923 14.087130794448814 11.033540493111543 0 0 -1
95 0 2 0.5897 3.8433643060141067 13.906693727997995 9.473625677624995 0 0 1
94 0 1 -1.1794 3.005558799014695 13.476703939000243 9.210421818926404 0 0 1
282 0 2 0.5897 5.001181178364025 12.791539765162748 11.008641233362487 0 1 2
280 0 1 -1.1794 5.262705225131007 13.670974556055146 10.564295875126724 0 1 1
1896 0 2 0.5897 1.7408930472925765 13.83422265402598 10.483069159108778 0 0 -1
1895 0 2 0.5897 1.168032042742874 13.574434617448096 11.86324934505086 0 0 -1
134 0 2 0.5897 4.64073078473502 15.34412310161392 11.368019219697432 0 -2 -1
281 0 2 0.5897 6.197828349736685 13.6078061386538 10.294531780898868 0 1 1
133 0 1 -1.1794 4.289928225507873 16.00050156650173 11.965520450874108 0 -2 -1
2018 0 2 0.5897 10.417806116205588 12.1141353565967 8.801008628144336 1 1 -1
978 0 2 0.5897 8.676940716007397 12.873429652531083 10.12723625320787 1 0 -2
976 0 1 -1.1794 7.930150845699421 13.52638972990718 10.194429208114437 1 0 -2
977 0 2 0.5897 8.287803527341904 14.36222818018966 10.450948855493703 1 0 -2
543 0 2 0.5897 10.43954169159442 14.9659338771545 11.014757214429629 0 -2 0
2087 0 2 0.5897 10.017323681859917 15.5233198693547 8.565602125303466 0 2 1
2088 0 2 0.5897 11.514159672728159 15.39215796198664 9.195335572292418 0 2 1
2086 0 1 -1.1794 10.628872578350533 15.796689256136682 9.318084520484437 0 2 1
541 0 1 -1.1794 10.569455038865646 14.618085519980385 11.924123706045103 0 -2 0
1562 0 2 0.5897 6.209298772895582 18.249622028774894 8.531762557730254 0 2 -1
2101 0 1 -1.1794 1.188147925721912 16.863699513368612 11.268736385799738 0 1 -1
2238 0 2 0.5897 5.975751091927773 16.149388936531306 8.994451469336418 1 -1 0
599 0 2 0.5897 3.849129670315803 17.121848692812684 9.319690682242507 0 -1 -1
1112 0 2 0.5897 2.824090993151686 19.130642412759652 8.944644014938756 0 0 1
598 0 1 -1.1794 3.0084080441506282 17.356376628949437 9.005217391582926 0 -1 -1
2103 0 2 0.5897 1.7887749387757759 17.01217880547228 10.507397100690735 0 1 -1
299 0 2 0.5897 4.963539784682029 19.104778054587385 11.63102559117436 0 0 0
2236 0 1 -1.1794 5.936879120470543 16.848634561548373 9.65008738299765 1 -1 0
135 0 2 0.5897 4.599144121541717 16.885246202649043 11.693455285085676 0 -2 -1
298 0 1 -1.1794 4.82784963906942 18.462248287844293 12.33858514180573 0 0 0
1988 0 2 0.5897 10.098941340519355 18.59871832589475 8.716748545303124 1 0 1
2237 0 2 0.5897 6.823185678481623 16.858383254360476 10.131460019386301 1 -1 0
35 0 2 0.5897 8.387962202833666 20.00780466489672 9.422608369041768 0 -1 -1
92 0 2 0.5897 10.994124457537644 17.47981902514602 10.40978813000374 0 2 0
22 0 1 -1.1794 8.276927892857476 16.366381074784496 10.980358756522342 0 0 -1
23 0 2 0.5897 8.907146391266043 17.069375552674614 10.677929194490137 0 0 -1
93 0 2 0.5897 11.044797589173966 18.941984316211343 10.748039148908747 0 2 0
91 0 1 -1.1794 10.411764645999272 18.294031580074776 10.438397847984412 0 2 0
24 0 2 0.5897 8.082943406635842 16.529460178602175 11.954189557071842 0 0 -1
764 0 2 0.5897 2.902252130292289 2.2320781988267626 13.21617135054903 0 -1 1
765 0 2 0.5897 2.659233954476961 1.6484700931880267 14.662887535749059 0 -1 1
763 0 1 -1.1794 2.380815962262259 2.325488583396335 14.02587191432429 0 -1 1
878 0 2 0.5897 4.970190456560479 1.776087757237802 13.528573674539045 0 1 -1
258 0 2 0.5897 3.1042911189663736 3.688049158545498 14.94827035994654 0 1 -2
877 0 1 -1.1794 5.3131965335062485 1.1465799963223071 14.191844693828818 0 1 -1
288 0 2 0.5897 4.140735295211619 0.326223847925199 15.210133842797905 0 3 0
286 0 1 -1.1794 3.2546837310091234 0.16306400816630529 15.65560751236886 0 3 0
879 0 2 0.5897 6.244988748971491 1.1182320549756992 14.142951734308411 0 1 -1
257 0 2 0.5897 4.396732982413667 3.852125926785161 15.969650155026283 0 1 -2
634 0 1 -1.1794 11.904438316584372 2.402563717715451 15.006649675719707 0 1 -2
582 0 2 0.5897 6.691142042330788 2.9088213362662856 16.25916048623067 0 -1 2
1847 0 2 0.5897 11.742283412697404 0.37281556989860004 12.592935079206763 0 -1 -1
1597 0 1 -1.1794 8.542375460674512 1.102346263526826 12.633053867673722 0 1 0
1799 0 2 0.5897 9.12368615474745 3.444711452125769 15.39799543291588 0 0 -3
58 0 1 -1.1794 8.195096497434825 1.8085390020562846 15.29008971221199 0 2 1
1848 0 2 0.5897 11.51139807186573 1.5602045327420178 13.55700803845439 0 -1 -1
59 0 2 0.5897 8.597976524043903 1.666747260186031 14.414499479124983 0 2 1
1846 0 1 -1.1794 11.30311018568703 1.2359327009875911 12.696940962016075 0 -1 -1
635 0 2 0.5897 11.081187264024853 2.9656808422418885 15.156546686496323 0 1 -1
60 0 2 0.5897 8.602870481752834 1.1447435710579412 15.783470064547624 0 2 1
636 0 2 0.5897 11.802563999138338 1.6600946572689772 15.59115997216936 0 1 -2
1789 0 1 -1.1794 11.513541083701297 0.13089742688341816 16.528936728840957 0 -1 2
385 0 1 -1.1794 1.5746103676885816 5.418265921929193 12.713650352967173 0 2 1
256 0 1 -1.1794 3.43432803869815 4.0992426838497975 15.755471722833176 0 1 -2
386 0 2 0.5897 1.1989314706721472 5.678702751938605 13.54822996106605 0 2 1
387 0 2 0.5897 2.5373088195929125 5.353389555660792 12.748725808226945 0 2 1
1541 0 2 0.5897 4.700373302154416 5.528019998770748 13.254751521781793 0 -2 0
301 0 1 -1.1794 3.1218088587470447 6.906772314627684 15.563510453913073 0 1 -3
302 0 2 0.5897 3.330839809450578 5.981667425171003 15.659487409669188 0 1 -3
303 0 2 0.5897 2.6777388381146663 7.109249693696895 16.42760384789818 0 1 -3
1286 0 2 0.5897 6.392711714951868 5.07573406679072 15.040889028061365 0 0 -1
1287 0 2 0.5897 6.203413143318461 6.609568424317539 14.78779815739568 0 0 -1