LAMMPS data file via write_data, version 23 Jun 2022, timestep = 0

2268 atoms
2 atom types

1.0045755271402754 46.44612347285956 xlo xhi
0 20.047001 ylo yhi
0 20.857 zlo zhi

Masses

1 1.008
2 15.999

Atoms # full

2155 0 1 -1.1794 2.6488087717844033 0.5152153078121456 2.3998222564833074 0 0 0
2157 0 2 0.5897 2.2844223204475544 1.3260697952194085 2.033045420468194 0 0 0
1763 0 2 0.5897 4.136324393487367 3.354962346755273 0.6167329987007609 1 0 0
2055 0 2 0.5897 5.3134118148416976 3.9811184521806267 2.916473130238673 0 0 0
553 0 1 -1.1794 5.749230936354038 3.1132776630748467 1.4297197005950295 0 1 0
554 0 2 0.5897 5.971148906015105 2.285802518649858 1.8892870140747042 0 1 0
1290 0 2 0.5897 3.6077463157917125 0.38417406092160894 3.5953882688246637 0 1 0
555 0 2 0.5897 6.523356371165284 3.3440384685822626 0.8873498752627549 0 1 0
1289 0 2 0.5897 5.104131859414615 0.6065111328742298 3.7899434094113027 0 1 0
1764 0 2 0.5897 2.6172324193430643 3.2970148038692315 0.19635362149528407 1 0 0
1294 0 1 -1.1794 6.56813340225669 0.9578868365031137 2.963905607478279 0 1 1
1252 0 1 -1.1794 1.7962213891879408 3.5833997798181763 3.836279661128521 1 0 0
607 0 1 -1.1794 1.1274042808824916 2.56725092747593 0.944202174497943 0 1 1
1762 0 1 -1.1794 3.4809237970876765 3.7351596851814564 0.0014056363078687184 1 0 0
1524 0 2 0.5897 9.907580153123398 1.7743091134208548 2.0940629412298777 0 0 0
1522 0 1 -1.1794 10.308257581453622 1.9798617202731938 2.965616661164078 0 0 0
1523 0 2 0.5897 9.58535467402409 2.2903834146790434 3.5939481279349432 0 0 0
1296 0 2 0.5897 7.3024961736176826 1.3480256478488881 3.516062065386065 0 1 1
1815 0 2 0.5897 11.92546347175552 2.2114424805826087 2.5609033415798934 0 0 0
1345 0 1 -1.1794 10.997949762895178 3.972111852661676 0.47832793119449113 0 -1 1
1295 0 2 0.5897 6.864392425358425 0.2494060570800018 2.408505781812454 0 1 1
1619 0 2 0.5897 7.868317515252214 3.2561559844560977 4.162703513510314 0 0 0
797 0 2 0.5897 9.519356119072684 0.38491891034036824 4.157780968074619 0 2 1
802 0 1 -1.1794 9.260991237562017 1.3222164069537874 0.5503677263640673 0 0 0
803 0 2 0.5897 8.496350880251455 1.5529655461695124 0.027169681246945528 0 0 0
2053 0 1 -1.1794 5.166539934511328 4.242502565887262 3.824042536311747 0 0 1
1142 0 2 0.5897 2.2323020108300717 6.101868633373515 1.870269507374345 0 0 1
822 0 2 0.5897 4.298311343829506 7.289255857438923 3.222902977199472 0 1 1
1757 0 2 0.5897 3.7350251734775863 7.19917329051523 0.534262959078355 1 0 1
1756 0 1 -1.1794 3.2806824895027527 7.453366883042069 1.384074987544545 1 0 1
1253 0 2 0.5897 2.0986189714549104 4.239831392787518 3.2325203838323042 1 0 0
821 0 2 0.5897 4.823758848348232 6.068398270776621 4.051319554753649 0 1 1
820 0 1 -1.1794 4.6087778151134655 6.998529919144853 4.056337040158628 0 1 1
765 0 2 0.5897 6.152743796154328 6.451895950776133 1.0680283717456556 0 0 1
763 0 1 -1.1794 6.643565449397464 6.953979265707069 1.725663807038872 0 0 1
1141 0 1 -1.1794 1.400796105255093 5.604269626732658 2.1142294770354195 0 0 1
833 0 2 0.5897 9.264646850978894 4.301049365507953 0.6329735241217349 0 0 2
832 0 1 -1.1794 8.315430800645842 4.403298311876965 0.5683385722592723 0 0 2
1841 0 2 0.5897 7.836469323496306 4.515707284034947 2.2274280456378017 0 -1 0
1842 0 2 0.5897 8.75910679225414 5.149817877972114 3.363340073758319 0 -1 0
2 0 2 0.5897 11.141342823771419 4.484044375088278 2.769237974779776 0 0 0
1 0 1 -1.1794 10.989478220860162 4.758522649987591 3.6789975582281067 0 0 0
1840 0 1 -1.1794 7.894284688940371 4.7686495344214785 3.165070966409059 0 -1 0
764 0 2 0.5897 6.744868845161274 6.438096541729363 2.4989204917531254 0 0 1
1531 0 1 -1.1794 11.293003359875241 6.5934190198750695 1.173609412303602 0 0 0
1533 0 2 0.5897 10.585781217282937 6.9664791593165845 0.638336616051739 1 0 0
758 0 2 0.5897 8.021568024540876 7.715925088024188 0.965150787545107 0 0 0
1346 0 2 0.5897 11.341619854853022 4.850796253323107 0.5146434520385419 0 -1 1
546 0 2 0.5897 10.274851898384647 6.588007165060476 3.621515437023837 0 0 0
1532 0 2 0.5897 11.656909464928702 7.351303937398593 1.7092672844010675 0 0 0
545 0 2 0.5897 9.498920829590597 7.49059613786018 2.71694013298757 0 1 0
544 0 1 -1.1794 9.439261226379621 7.013217525888146 3.539181018889239 0 0 0
1758 0 2 0.5897 2.9045207329976295 8.36692309469157 1.3075805412911128 1 0 1
793 0 1 -1.1794 2.511575239849537 10.17431232998373 0.7359318311609288 0 0 1
794 0 2 0.5897 2.9566091728295323 10.811109746147169 1.3595113504027807 0 0 1
795 0 2 0.5897 1.7559351053495922 10.657348816648076 0.4225763636793077 0 0 1
2029 0 1 -1.1794 5.664898132821019 9.681422209371062 2.6579513950848543 0 0 1
770 0 2 0.5897 5.372455766246357 9.630233302334188 0.4546940805341542 0 0 1
46 0 1 -1.1794 1.3127716476092357 9.031725877649729 3.1762277492505735 0 -1 0
48 0 2 0.5897 1.092013236639987 9.947696505101248 3.420287858032899 0 -1 0
1511 0 2 0.5897 4.550964553536538 9.72069430660525 3.9834372642081104 1 0 0
1512 0 2 0.5897 3.0871524816556404 9.904338278233295 4.147722189169872 0 0 0
2031 0 2 0.5897 5.795036109550833 8.816699886405447 2.263997475934027 0 0 1
2030 0 2 0.5897 6.374553816950392 10.234503799324155 2.402715341135322 0 0 1
271 0 1 -1.1794 1.4677843123589642 11.887989121500883 3.827974486304181 0 0 0
47 0 2 0.5897 1.1812067953305392 8.421351815985956 3.97118800973973 0 -1 0
757 0 1 -1.1794 8.829108947955374 8.129405140296877 0.6602118621138625 0 0 0
759 0 2 0.5897 8.747208089066946 9.06012165867108 0.8336001603577813 0 0 0
285 0 2 0.5897 10.456089390493585 11.39257923543324 0.6155529467940982 0 0 0
1530 0 2 0.5897 11.27869303230296 9.816892378585115 2.125488975114083 0 -1 1
307 0 1 -1.1794 7.675028222701984 11.002559739735926 1.0881167716114075 0 0 0
309 0 2 0.5897 8.281515949331208 11.252160805275121 1.756083045523377 0 0 0
308 0 2 0.5897 7.247178197528374 11.830335908904958 0.9044063274042609 0 0 0
284 0 2 0.5897 10.881885142199039 11.953308243844232 2.012030426019496 0 0 0
283 0 1 -1.1794 10.263818374289457 11.330830478731704 1.588109096648577 0 0 0
1528 0 1 -1.1794 11.864868512927915 9.035616999077291 2.4064995140302408 0 -1 1
2136 0 2 0.5897 11.933159862507656 8.678213603760174 0.07563458347962265 0 0 0
1598 0 2 0.5897 7.1349192893534665 11.685088385445956 3.9753567351184294 0 0 1
1529 0 2 0.5897 12.307757662496398 9.238159914936492 3.26455085715946 0 -1 1
1599 0 2 0.5897 5.918555193980331 12.234533457624947 3.293270779977466 0 0 1
1327 0 1 -1.1794 3.787289189608441 12.155108108781047 2.320423622563657 0 0 1
1328 0 2 0.5897 3.7973584051771057 13.08914097294203 2.1494983039137234 0 0 1
1329 0 2 0.5897 3.2262262278972464 12.143360578261557 3.142200910641614 0 0 1
830 0 2 0.5897 6.3837039886481834 13.985868566814423 0.06254414191533096 0 0 1
829 0 1 -1.1794 6.084046756830556 13.298479091112673 0.6680599793011144 0 0 1
290 0 2 0.5897 1.4509404095246827 15.520280502913941 3.012121228370451 0 -2 0
291 0 2 0.5897 1.6086984933109645 15.196227923194314 1.433269398116118 0 -2 0
1741 0 1 -1.1794 4.15533648437214 14.93647879463491 2.455697635929284 1 0 1
1742 0 2 0.5897 3.3608224115080048 15.429273604106186 2.3607872117417004 1 0 1
1743 0 2 0.5897 4.851021450244046 15.557804545145402 2.4571158123209487 1 0 1
289 0 1 -1.1794 1.6952630886858158 15.885974449087612 2.127201300311086 0 -2 0
831 0 2 0.5897 5.271037120416384 12.955827053166898 0.24176138304349515 0 0 1
4 0 1 -1.1794 11.426882604662316 13.287247639155304 3.338872794312879 0 0 0
788 0 2 0.5897 9.112183842211236 14.62138442953979 0.9169565285412575 1 -1 0
787 0 1 -1.1794 9.486691357017762 14.901695336063412 0.05424218482161065 0 -1 0
2245 0 1 -1.1794 7.975749245583698 14.748662805239022 2.342961551640143 1 0 0
2246 0 2 0.5897 7.165245343137012 14.155594143519457 2.148597559682334 1 -1 0
1787 0 2 0.5897 11.121893602410202 14.170843896627133 0.24500085551523976 0 0 0
1318 0 1 -1.1794 11.231540307621911 16.03005727219493 2.8657709253839085 0 -1 1
1320 0 2 0.5897 11.223013885254788 15.070224302594468 2.9034902008704075 0 0 1
2247 0 2 0.5897 8.245933680071204 14.6179561511562 3.232002042088582 1 0 0
5 0 2 0.5897 10.995989091801096 12.668871534294743 3.95109744344503 0 0 0
1597 0 1 -1.1794 6.767077546510117 12.511682163848388 3.6575120098998597 0 0 1
1786 0 1 -1.1794 12.066085965321175 13.973309358130562 0.35126466845574456 0 0 0
6 0 2 0.5897 12.281329160294353 13.13873763306355 3.7246715847118295 0 0 0
2156 0 2 0.5897 1.944644333219657 19.86394959150504 2.169817460640799 0 -1 0
1830 0 2 0.5897 4.573959467205208 18.063058365224567 2.937496108960646 0 -1 0
1828 0 1 -1.1794 5.055728676439156 17.633607981825573 2.1665523618847855 0 -1 0
1829 0 2 0.5897 5.865059681515991 18.16158070209688 1.9918156566129506 0 -1 0
1737 0 2 0.5897 3.5036775040710935 19.984471425949852 0.8093372243320484 1 -1 1
1055 0 2 0.5897 4.05532578501902 17.072677326412947 0.596005469432253 0 0 1
1735 0 1 -1.1794 3.8732946120119367 19.503294988918018 0.027931651172458223 1 -1 1
849 0 2 0.5897 10.041458647729918 16.658814646200558 0.055233413014174074 0 0 1
1319 0 2 0.5897 11.920316979176594 16.262316541120946 2.2789672251351925 0 -1 1
2021 0 2 0.5897 7.179447049691487 16.10788202002571 0.4223011090464188 0 0 1
2042 0 2 0.5897 9.597019367179518 16.901377297646967 3.055436522682839 0 0 1
2043 0 2 0.5897 8.104747665604766 16.80491572682897 3.6003661855007287 0 0 1
2041 0 1 -1.1794 8.780417470888231 17.398022273445154 3.2088091759659427 0 0 1
1848 0 2 0.5897 10.565294391170957 19.621537336793672 2.517408463505489 0 -1 1
230 0 2 0.5897 8.194603563953281 19.70104266667614 0.9322564860601791 1 -1 0
1846 0 1 -1.1794 11.239015231258302 19.085411666940022 2.085386934183508 0 -1 1
229 0 1 -1.1794 7.7352657369647915 19.103490083808413 1.5165593815769336 1 -1 0
231 0 2 0.5897 8.146292523243186 18.325573460132713 1.7512199891043079 1 -1 0
847 0 1 -1.1794 10.033338682532543 17.60251334372431 0.3111013793790725 0 0 1
1847 0 2 0.5897 10.77824626930609 18.487617258065086 1.4938846335756575 0 -1 1
798 0 2 0.5897 8.92736355361587 18.94821534907317 4.088923335879776 0 1 1
105 0 2 0.5897 12.141116430427951 18.26873155601929 3.3409018280363645 0 -2 1
2054 0 2 0.5897 4.560784149003093 3.6076216957772633 4.254609150660912 0 0 1
1254 0 2 0.5897 2.426409252712464 3.544364598549448 4.526345929827834 1 0 0
1288 0 1 -1.1794 4.257334363966896 0.3782784914227875 4.276156526400039 0 1 0
102 0 2 0.5897 4.150352065107445 1.8184293380307457 5.161947616616093 0 0 0
2123 0 2 0.5897 6.133035970376062 1.4116892959771659 6.964389345267284 0 0 0
2122 0 1 -1.1794 5.658010868747197 2.042744691064516 7.54752451314326 0 0 0
2124 0 2 0.5897 6.321144867459661 2.695677350029447 7.760244890750139 0 0 0
100 0 1 -1.1794 4.01074586124394 2.7242132997897457 5.546603145363177 0 0 0
101 0 2 0.5897 4.710929162368746 2.7990361421550967 6.221919634803007 0 0 0
82 0 1 -1.1794 2.6910536940971985 3.758110839622644 7.853956904736828 0 0 0
83 0 2 0.5897 2.942239515350565 3.3709794609107973 6.973981579141582 0 0 0
1768 0 1 -1.1794 1.8038758254356484 1.1973827777691226 8.274813869155642 0 1 0
1292 0 2 0.5897 2.5740889351938447 0.15229328370419373 7.03961525271084 0 0 0
2076 0 2 0.5897 4.876682124468071 0.6050395353368158 8.19587928083572 0 1 0
55 0 1 -1.1794 11.857000344015384 2.1306678055817327 6.5580579389667655 0 0 0
1330 0 1 -1.1794 8.912092949207823 2.4346729148379063 7.0631665945244 0 0 1
1620 0 2 0.5897 8.373272656231205 2.4649243513397225 5.3926972510163 0 0 0
1618 0 1 -1.1794 8.136143705106061 2.399068502624718 4.499366131788667 0 0 0
1332 0 2 0.5897 9.094949386645169 1.5519391378972904 7.3549170042174445 0 0 1
57 0 2 0.5897 11.037352072164985 2.294290897133958 6.079951853880308 0 0 0
56 0 2 0.5897 11.702683894054864 2.3017889766030972 7.4512039617805605 0 0 0
1331 0 2 0.5897 8.47008396511768 2.960521578382745 7.799717520508048 0 0 1
766 0 1 -1.1794 6.478917186676368 4.4871039754888935 6.325855347038299 0 0 1
767 0 2 0.5897 6.187884082756977 4.5679904056425835 5.382473693838396 0 0 1
2103 0 2 0.5897 3.1121241027602005 7.217003329048136 5.100194166697801 0 1 1
2101 0 1 -1.1794 2.2670955105804227 7.3299986469124585 5.496028708086961 0 1 1
2102 0 2 0.5897 1.6411619258712018 6.667472184277309 5.122166474725003 0 1 1
1229 0 2 0.5897 1.6832174025084377 6.665721914526767 7.1043414034906 1 0 0
84 0 2 0.5897 2.1042206201514473 4.552311542886397 7.676654751389898 0 0 0
27 0 2 0.5897 5.300666391577213 5.702624857123708 8.119271771745948 0 1 1
1359 0 2 0.5897 6.104146074559063 7.485104423642562 4.841411462449976 0 0 0
1036 0 1 -1.1794 5.921617976166187 7.346106114400343 7.798425556387583 0 0 0
1038 0 2 0.5897 6.301164107064287 7.39116748405774 6.88609629638301 0 0 0
1228 0 1 -1.1794 1.3475393858503049 6.187372705708398 7.873835423860883 1 0 0
768 0 2 0.5897 7.461812547268397 4.586932268651555 6.318192704049635 0 0 1
3 0 2 0.5897 11.783300832231319 4.548098280257189 4.197570722857405 0 0 0
2085 0 2 0.5897 9.945109575390667 5.140345278607789 6.626239625203486 0 1 0
1358 0 2 0.5897 7.50394683969955 6.936253651040939 4.682008320985927 0 0 0
2083 0 1 -1.1794 9.312385907626341 5.261165692098716 5.926777214763572 0 1 0
2084 0 2 0.5897 9.774744192028567 5.060148196431106 5.067850375415937 0 1 0
1357 0 1 -1.1794 7.064394779584719 7.669376167560375 5.082120540905945 0 0 0
51 0 2 0.5897 9.717651764033553 7.3488222891925625 6.090803548367455 0 0 0
49 0 1 -1.1794 10.158844284972107 7.821788471958295 6.80002435005382 0 0 0
50 0 2 0.5897 11.080503773345583 7.815016798597006 6.52042505549348 0 0 0
1008 0 2 0.5897 12.021934657034594 5.131639702647274 7.925670964650346 1 0 0
519 0 2 0.5897 4.557614392091711 8.592319712267171 8.019730944248273 0 0 1
517 0 1 -1.1794 3.8856788768053203 9.23090662666692 7.75237825939473 0 0 1
518 0 2 0.5897 3.4322770459541863 8.778741064344082 7.0592671655034716 0 0 1
1510 0 1 -1.1794 3.8736485137948473 9.817945765523213 4.674951194659444 1 0 0
2241 0 2 0.5897 4.474481726608107 11.323444949362276 6.409291972222989 1 0 1
2127 0 2 0.5897 2.0353386183542836 10.830754347138427 6.543480862740206 0 0 -1
1615 0 1 -1.1794 6.27860846345785 10.572095804813321 6.757340763610331 0 0 0
1616 0 2 0.5897 5.803043991659225 9.789004141207728 6.936426293733801 0 0 0
2125 0 1 -1.1794 1.2501478637243224 10.461302169330269 6.940602970256213 0 0 -1
1356 0 2 0.5897 7.877627262072918 9.19113784174969 4.302829915006359 0 -1 0
1354 0 1 -1.1794 8.25919728141593 10.051294181409517 4.485842555479694 0 -1 0
1355 0 2 0.5897 9.20524851270692 10.100233279407695 4.571208128143625 0 -1 0
1300 0 1 -1.1794 10.792875167509555 11.270543113016751 5.157388470630909 0 1 0
1301 0 2 0.5897 11.755285074749365 11.156941150719517 5.105539721654424 0 1 0
1302 0 2 0.5897 10.560612912475916 11.07867002090178 6.06529674270637 0 1 0
1617 0 2 0.5897 6.946418132439295 10.299281242032661 6.099907802014353 0 0 0
1379 0 2 0.5897 9.306763688281004 9.43873787689936 7.203597778694091 0 0 0
1378 0 1 -1.1794 9.604872454324681 10.332327115531253 7.4396116585772525 0 0 0
1380 0 2 0.5897 8.949931545217176 10.736924924456993 7.992145549600435 0 0 0
2239 0 1 -1.1794 3.8542357446911266 12.03212682503993 6.513175273245689 1 0 1
1040 0 2 0.5897 4.522632151656991 12.727654917864701 8.048923490937723 0 0 0
792 0 2 0.5897 4.4515862804706865 14.538664273297446 4.23801216454403 0 -1 1
2240 0 2 0.5897 3.9248030789677637 12.73608306807102 5.846560660996359 1 0 1
2261 0 2 0.5897 1.4902089527450575 14.079261737628894 7.950543898534206 1 -1 1
2260 0 1 -1.1794 1.6177988955355693 13.769980003889431 7.019555678693584 1 -1 1
790 0 1 -1.1794 4.72518908696272 14.278823737379687 5.128968293309873 0 -1 1
791 0 2 0.5897 5.581301554367608 13.904705930063907 5.018539460245608 0 -1 1
2262 0 2 0.5897 2.403169795087634 13.216582769072668 7.0653147693589755 1 -1 1
2056 0 1 -1.1794 4.705377416129683 15.577563721880217 7.625004585848975 0 0 0
2058 0 2 0.5897 4.819363574954513 15.385591481528083 6.657666994787813 0 0 0
2067 0 2 0.5897 1.6613862355271143 14.749311752288232 5.424732462479091 0 0 0
2057 0 2 0.5897 4.955904306606519 14.792413966987164 8.178451902777287 0 0 0
2065 0 1 -1.1794 1.464637448844575 15.518095793427815 4.93245615365137 0 0 0
2052 0 2 0.5897 6.9519961168972815 12.201695991480078 6.947140659819714 0 0 0
2051 0 2 0.5897 7.733663364744168 13.054762969977387 5.931045054672244 0 0 0
2050 0 1 -1.1794 7.442760382947748 13.034129082936625 6.843639984474823 0 0 0
817 0 1 -1.1794 8.913627249987082 14.17318549710546 4.9127906800180545 0 0 0
819 0 2 0.5897 8.572753144338533 14.943710454970084 5.423410920421677 0 0 0
818 0 2 0.5897 9.820492627193902 14.045207739659375 5.248193859283849 0 0 0
1027 0 1 -1.1794 11.313298219842741 15.823004141442093 5.635477134123682 0 -1 0
773 0 2 0.5897 11.13767066558665 14.492309390488636 7.063121750628009 0 0 0
772 0 1 -1.1794 11.32924477589888 13.596399487611402 7.417508586784115 0 0 0
774 0 2 0.5897 11.622821630359692 13.659309786694966 8.324996262038667 0 0 0
1028 0 2 0.5897 12.248715645472569 15.81912238873692 5.827291627813355 0 -1 0
2033 0 2 0.5897 3.400272899614847 16.496236312880455 7.918232966087781 0 -1 0
2045 0 2 0.5897 5.791991097020039 16.80031238354254 4.841975311070918 0 0 0
1338 0 2 0.5897 5.684528552632917 16.97937783331882 8.064676361058648 0 0 0
78 0 2 0.5897 3.9351121629401202 18.524034460554265 5.0052619196633215 0 -1 -1
1293 0 2 0.5897 1.9450925902478415 19.351528643652244 5.753206187560772 0 -1 0
1291 0 1 -1.1794 2.648327382571159 19.40415121343138 6.463193236334354 0 -1 0
77 0 2 0.5897 3.37815077908388 17.132215047608327 4.830974335763737 0 -1 -1
76 0 1 -1.1794 4.171717521258512 17.651307606602153 4.765820444549149 0 -1 -1
2034 0 2 0.5897 2.6965369657207967 17.740534207019984 7.436511164975521 0 -1 0
2032 0 1 -1.1794 2.5784057071311275 16.98251354413062 7.92352026409567 0 -1 0
1273 0 1 -1.1794 6.5124809376311035 19.566487795398064 6.341813457253832 0 0 1
1337 0 2 0.5897 6.588647369081604 18.137960223810836 7.6544527350045035 0 0 0
1275 0 2 0.5897 5.6728305451078 19.560491397249255 5.827084505281863 0 0 1
2044 0 1 -1.1794 6.67208401668664 16.38422717470386 4.8362948006318005 0 0 0
1029 0 2 0.5897 11.284445853356353 16.145546928428836 4.711881422817183 1 -1 0
2046 0 2 0.5897 7.127002956905284 16.53915069080354 5.674337670867596 0 0 0
1559 0 2 0.5897 9.37252198832295 17.241994298983464 6.106748017869147 0 0 0
1274 0 2 0.5897 7.269573971368314 19.317262296757075 5.747584812036205 0 0 1
1560 0 2 0.5897 8.981039469210414 16.640999937833264 7.461744714801046 0 0 0
796 0 1 -1.1794 9.27928695298871 19.61019008488507 4.640723865118331 0 1 1
2146 0 1 -1.1794 9.390228262001562 19.746942490102704 7.656821931071765 0 0 0
2148 0 2 0.5897 8.718728727207997 19.11221685536051 7.316087882903165 0 0 0
1558 0 1 -1.1794 8.611485014966338 17.00017287579781 6.635274758868858 0 0 0
2147 0 2 0.5897 10.295170276951788 19.633878129163477 7.329791704572508 0 0 0
1032 0 2 0.5897 12.207517154801234 18.47589064846502 5.758416938857182 0 0 1
1030 0 1 -1.1794 12.033819423582896 18.840884603680756 6.676619049602821 0 -1 1
1031 0 2 0.5897 12.06307774899222 18.098367564427452 7.285701404794996 0 -1 1
1769 0 2 0.5897 2.052431499172224 2.134216728288512 8.444031906253418 0 1 0
2008 0 1 -1.1794 1.6822613238064705 3.5807841744090876 10.989015248404407 1 0 1
600 0 2 0.5897 3.9888886919540854 1.3571495152045403 10.255687983172223 0 -1 0
598 0 1 -1.1794 4.1072728794735855 2.3028339575325054 10.371154629921943 0 -1 0
2009 0 2 0.5897 2.5169427545955387 3.2029436400857088 10.677042018157117 1 0 1
599 0 2 0.5897 4.413316826715944 2.6707632860941772 9.493557158977854 0 -1 0
1770 0 2 0.5897 2.08944855135272 0.7007932241120338 9.02087400531797 0 1 0
2070 0 2 0.5897 5.551956121592905 2.6104811030447266 11.74391762510385 0 -1 0
504 0 2 0.5897 2.570301134225317 0.5310547332160783 11.718592729805527 1 0 -1
2010 0 2 0.5897 1.4517164906197988 2.9055194918044696 11.608369547854435 0 0 1
1058 0 2 0.5897 6.311037455770097 0.8704088264673631 10.083792536880011 0 0 -1
502 0 1 -1.1794 2.1140455133281413 0.3000388717482654 10.911169609492177 1 0 -1
503 0 2 0.5897 1.2082065442367516 0.04625753297462908 11.08564545456671 1 0 -1
2063 0 2 0.5897 10.605081540743818 2.3845441495305515 10.081331714898221 0 0 0
1059 0 2 0.5897 7.356626088735751 2.0268417490307975 10.089625550008428 0 0 -1
2062 0 1 -1.1794 11.195875192786474 2.408072223908032 9.307211778183282 0 0 0
535 0 1 -1.1794 7.596059525906756 3.795934803361442 9.072351155061721 0 1 0
1513 0 1 -1.1794 9.794615524369359 2.22859303162397 11.886046431532785 0 0 0
2064 0 2 0.5897 12.054503083774643 2.0562549293802097 9.632503347260954 0 0 0
1057 0 1 -1.1794 7.106946092630222 1.1810282750422014 10.54798377867382 0 0 -1
1514 0 2 0.5897 10.274137708303865 3.0530620579657928 12.109148512734196 0 0 0
1515 0 2 0.5897 10.259082184319798 1.4873663261200412 12.259822986653548 0 0 0
26 0 2 0.5897 4.089077766670618 4.780824845550035 8.478504567485048 0 1 1
1037 0 2 0.5897 6.667431910899911 7.509077633525018 8.378161333991626 0 0 0
25 0 1 -1.1794 4.924062923281534 5.1131242278275355 8.78749700497102 0 1 1
481 0 1 -1.1794 4.747672733701553 6.661484315885802 10.885028364361025 1 0 0
482 0 2 0.5897 4.719168438605573 6.169982458582585 10.052925100985448 1 0 0
483 0 2 0.5897 5.452455604803827 7.332049579987252 10.930919397028745 1 0 0
1351 0 1 -1.1794 1.86010721819421 7.081740838576144 10.355106089976218 0 -1 0
1352 0 2 0.5897 2.7678682666283123 7.012113878533269 10.654123699611867 0 -1 0
1353 0 2 0.5897 1.9146221633064635 6.5983589396835844 9.508202976190464 0 -1 0
498 0 2 0.5897 3.6064098831257123 5.6301972009794 12.018781248180636 1 0 0
497 0 2 0.5897 2.6462070702412035 4.444072491058014 12.063192658039743 1 0 0
537 0 2 0.5897 6.761955884867643 4.228634803225817 8.860965303445385 0 1 0
536 0 2 0.5897 8.064168055473901 4.43068448633442 9.596272016708536 0 1 0
318 0 2 0.5897 12.073008502636327 7.260334578725399 10.790533893666462 0 -1 0
1007 0 2 0.5897 11.283015436075539 4.143694366265345 8.800236663301398 1 0 0
1006 0 1 -1.1794 11.196843125541953 5.052050570730168 8.35147338158817 1 0 0
1237 0 1 -1.1794 8.319566519884654 5.7013034178659225 10.881386429111885 1 1 0
1239 0 2 0.5897 9.21357121005068 5.741518463388238 11.184942056071733 1 1 0
1238 0 2 0.5897 8.254567818774357 6.498074143197997 10.30680121100641 1 1 0
606 0 2 0.5897 11.064563896158129 5.303879330209209 11.846653651097142 0 0 0
1045 0 1 -1.1794 8.288026176486877 7.763951231915388 8.927217771362045 0 1 0
316 0 1 -1.1794 11.281587580478279 6.734883272969956 10.663336624696926 0 -1 0
317 0 2 0.5897 11.376441136580194 6.1894578381745955 9.850141655632157 0 -1 0
1047 0 2 0.5897 9.116903062070332 7.622183019562409 8.345492495934383 0 1 0
521 0 2 0.5897 6.1899993606820605 9.036261860503888 11.090675685256642 0 0 0
520 0 1 -1.1794 6.410435099352442 8.426819640344352 11.769485737981292 0 0 0
1507 0 1 -1.1794 1.246637937558151 9.791706137096993 9.747336413744813 1 0 0
1509 0 2 0.5897 1.3952457721071259 9.977579325733373 8.815488402967906 1 0 0
1322 0 2 0.5897 4.2565437082678175 10.154179909551322 9.514211763224868 0 0 0
1321 0 1 -1.1794 4.579662610824801 10.024618058554994 10.399503788267404 0 0 0
1323 0 2 0.5897 4.92161491108774 10.84941455662383 10.772318592173924 0 -1 0
2040 0 2 0.5897 3.3184213002663783 9.491493044571348 11.542351794583407 0 0 -1
485 0 2 0.5897 5.680834974866226 11.965956925429994 12.332511664046272 1 0 0
1508 0 2 0.5897 1.6186497117357632 8.912050695978335 9.899584598487753 1 0 0
2039 0 2 0.5897 1.9518168269868044 9.341586968804316 12.323745092265158 0 0 -1
2038 0 1 -1.1794 2.9320573210359857 9.42509823250382 12.388493896370095 0 0 -1
1314 0 2 0.5897 10.019235648939379 8.278689859632316 11.490227043289488 0 0 0
522 0 2 0.5897 7.4248641959725425 8.424515539488056 11.8005418310159 0 0 0
263 0 2 0.5897 11.128099585086357 10.052654235520269 8.403422586228194 0 0 0
1046 0 2 0.5897 8.276968979600099 8.715851082998052 9.11658409623402 0 1 0
859 0 1 -1.1794 7.972098895440852 10.561629067608282 9.790907364437594 0 1 1
861 0 2 0.5897 8.375402734678287 10.442433780037048 10.649610483310925 0 1 1
860 0 2 0.5897 7.747933050858319 11.503358154301537 9.83702423841988 0 1 1
262 0 1 -1.1794 11.940550141034105 9.763442598553041 8.918439604951274 0 0 0
264 0 2 0.5897 11.623505846947356 10.151586506200605 9.777005077055692 1 0 0
1266 0 2 0.5897 11.619528125295554 11.2660754203728 12.153308956784917 0 0 0
1312 0 1 -1.1794 9.297680153134278 8.812427693916684 11.902052649960009 0 0 0
1264 0 1 -1.1794 12.206902638361036 11.195311727199853 11.393168480329889 0 0 0
484 0 1 -1.1794 5.640014590043386 12.225968349004418 11.390943297139994 1 0 0
2087 0 2 0.5897 1.1146939634794373 12.567658688166924 11.494862280610489 0 1 0
1041 0 2 0.5897 5.356676842910348 12.661293793386779 9.417200753795417 1 0 0
1039 0 1 -1.1794 4.682273652260036 13.110304282018115 8.941311010160929 0 0 0
729 0 2 0.5897 3.0954821646654556 13.397488458769013 10.556779153073364 1 0 0
727 0 1 -1.1794 2.33257487141758 13.84386268242417 10.938075193210427 1 0 0
728 0 2 0.5897 2.6914236335303174 14.416871246816612 11.644080062347548 1 0 0
486 0 2 0.5897 5.884471282785488 13.169177519461288 11.37732507546791 1 0 0
813 0 2 0.5897 6.3579467029619945 15.652017870679197 11.31862114620885 0 -1 0
977 0 2 0.5897 1.3540988933462008 15.93243652796199 8.800126669719624 1 -1 0
978 0 2 0.5897 1.326119925412188 14.872853889491097 9.897540189940589 1 -1 0
386 0 2 0.5897 11.980041621659531 12.769396837855668 10.586424486627598 0 1 0
387 0 2 0.5897 12.122726905595604 14.291155197295824 10.561452243734431 0 1 0
2121 0 2 0.5897 9.319019843777072 12.990922365232153 10.965375289445543 0 0 0
811 0 1 -1.1794 6.73691495113248 14.78885742085998 11.515599473193863 0 -1 0
812 0 2 0.5897 7.164212449624153 14.807447862605342 12.384896040845778 1 -1 0
1272 0 2 0.5897 11.850273237907421 15.043938775262816 12.242500167522747 0 -1 0
2119 0 1 -1.1794 9.386653498718509 12.587209080635565 11.85252135058239 0 0 0
987 0 2 0.5897 8.186349637508194 13.550748684516618 8.492061031226553 1 -1 0
986 0 2 0.5897 7.705369492854351 14.170533367958097 9.784597195471259 1 -1 0
985 0 1 -1.1794 8.320741900849658 13.597211272446112 9.42941979652006 1 -1 0
1088 0 2 0.5897 9.715697344467245 14.91267183587835 9.080097114272675 0 -1 0
1087 0 1 -1.1794 10.061403595533593 15.857957749744854 8.97150011892896 0 -1 0
2120 0 2 0.5897 8.726685767291272 13.028922265416872 12.37196341866384 0 0 0
1270 0 1 -1.1794 12.171563440980373 15.795627140763271 11.716631879594855 0 -1 0
385 0 1 -1.1794 12.310022024441341 13.492683212052347 10.059508659374103 0 1 0
1336 0 1 -1.1794 6.171524874076257 17.696602385434996 8.402975124353432 0 0 0
2074 0 1 -1.1794 4.7320973588211155 20.013049004749075 8.932002536637718 0 0 0
2075 0 2 0.5897 5.300487525590633 19.247224136204007 8.651217895357545 0 0 0
850 0 1 -1.1794 5.672291677382912 17.240960498010367 11.025004554884525 0 -1 0
851 0 2 0.5897 5.960341143318934 17.466534504413932 10.108701468687292 0 -1 0
852 0 2 0.5897 4.706696419167704 17.469223673026434 11.033948777944083 0 0 0
1477 0 1 -1.1794 2.946244732847598 17.70268275139689 10.745402283984701 1 0 0
1479 0 2 0.5897 2.8780869755378147 18.691398495674026 10.902030296409551 1 0 0
1478 0 2 0.5897 2.8829998437297117 17.523293031145496 9.795362488377636 1 0 0
735 0 2 0.5897 6.14978805693252 18.335480309848556 12.16382388467093 1 0 -1
836 0 2 0.5897 8.552571377118724 20.02947253201084 10.454605214534412 0 0 1
988 0 1 -1.1794 11.556926852180748 19.952748933901102 11.946723585582317 1 0 0
1089 0 2 0.5897 9.869141597074863 16.293745992397728 9.767204750661193 0 -1 0
18 0 2 0.5897 12.035839143935831 16.616834792924447 9.06415646014311 0 -1 0
734 0 2 0.5897 6.925051420497987 19.719288287098525 12.36650869365654 1 0 -1
990 0 2 0.5897 10.834999739538677 19.742707578474874 11.21015604350836 1 0 0
835 0 1 -1.1794 9.359578881277413 19.564419847849226 10.290053108896084 0 0 1
837 0 2 0.5897 9.564452953738003 19.601611308274663 9.360875642502412 0 0 1
1051 0 1 -1.1794 9.543848399587883 17.073075499852585 11.561973683230448 0 0 1
1053 0 2 0.5897 9.509544597339582 17.953504854120474 11.07308656343218 0 0 1
1052 0 2 0.5897 10.51622826926813 16.887899536601527 11.708417176479498 0 0 1
989 0 2 0.5897 11.899361959337746 19.14468107318827 12.27364584454414 1 0 0
2068 0 1 -1.1794 5.567782195585603 2.7979338024013654 12.708003772589539 0 -1 0
33 0 2 0.5897 3.8076756192640198 3.4026705590543393 15.026273407587835 0 0 0
2069 0 2 0.5897 6.356370869669953 2.3668170096431322 13.015550791481747 0 -1 0
2115 0 2 0.5897 5.431115051224331 1.3186380182643023 15.809791785488303 0 0 -1
1827 0 2 0.5897 4.282769797644944 1.2945967636240348 13.028788383570793 0 0 0
1825 0 1 -1.1794 3.5538803969373842 0.7436157978186881 13.305798649350553 0 0 0
1647 0 2 0.5897 1.1910311661638529 1.7583901514311857 13.967361596274973 0 0 0
2113 0 1 -1.1794 5.22612169833985 2.1849434470878015 16.198155532578745 0 0 -1
1838 0 2 0.5897 2.790183929643256 0.9806723950798851 14.81205077583647 0 1 -1
1837 0 1 -1.1794 2.171442389340698 0.8758123186649757 15.529911291346675 0 1 -1
1077 0 2 0.5897 2.076170121690761 3.6585047420434496 16.567024630504605 0 0 0
2114 0 2 0.5897 6.06520817127471 2.635002113617675 16.26863696233189 0 0 -1
1839 0 2 0.5897 2.272537227643748 1.6221968614870577 16.094782645674567 0 1 -1
95 0 2 0.5897 11.407507113922154 1.2070166731880376 14.276302140554291 0 0 -1
94 0 1 -1.1794 10.894317342714793 1.9325214743150039 14.595940495813501 0 0 -1
1093 0 1 -1.1794 7.77098042294434 1.6389899305691467 13.63168408212456 0 0 0
1094 0 2 0.5897 7.977359283552999 2.1730594600956463 14.408975449477024 0 0 0
1095 0 2 0.5897 8.416425964122006 2.020459545405021 12.981423098345827 0 0 0
96 0 2 0.5897 11.531113920058113 2.6850723090290542 14.511053841369145 0 0 -1
1584 0 2 0.5897 10.491178357966916 1.3213341737451505 16.283007859606375 0 1 -1
2079 0 2 0.5897 8.831121573357452 3.759857050642474 15.557424131070663 0 1 0
293 0 2 0.5897 8.488806070939852 0.19868311235028954 14.377077658782293 0 1 0
2077 0 1 -1.1794 8.124971618834309 3.1356210531139834 15.886675787583387 0 1 0