LAMMPS (23 Jun 2022)
echo both

include		in.partitions
variable        pid world 0
include		in.temp
variable	temperature equal 250.0
variable        tempDamp equal 0.100 # this is 0.1 ps
include		in.pressure
variable        pressure equal 6079.5
variable        pressureDamp equal 1.0 #this is 1ps
include		in.seed
variable        seed world 745823

units           metal
atom_style	full
read_restart	restart.lmp.${pid}
read_restart	restart.lmp.0
Reading restart file ...
  restart file = 23 Jun 2022, LAMMPS = 23 Jun 2022
  restoring atom style full from restart
  orthogonal box = (0.94713999 0 0) to (46.503559 20.047001 20.857)
  4 by 1 by 1 MPI processor grid
Summary of lammps deepmd module ...
  >>> Info of deepmd-kit:
  installed to:       /u/sigbjobo/software/DEEPMD_FROM_SOURCE/deepmd-kit/install
  source:             v2.1.3
  source branch:       master
  source commit:      5a32c49
  source commit at:   2022-07-01 09:52:58 +0800
  surpport model ver.:1.1 
  build float prec:   double
  build with tf inc:  /u/sigbjobo/software/DEEPMD_FROM_SOURCE/tensorflow/install/include;/u/sigbjobo/software/DEEPMD_FROM_SOURCE/tensorflow/install/include
  build with tf lib:  /u/sigbjobo/software/DEEPMD_FROM_SOURCE/tensorflow/install/lib/libtensorflow_cc.so;/u/sigbjobo/software/DEEPMD_FROM_SOURCE/tensorflow/install/lib/libtensorflow_framework.so
  set tf intra_op_parallelism_threads: 0
  set tf inter_op_parallelism_threads: 0
  >>> Info of lammps module:
  use deepmd-kit at:  /u/sigbjobo/software/DEEPMD_FROM_SOURCE/deepmd-kit/install
  source:             v2.1.3
  source branch:      master
  source commit:      5a32c49
  source commit at:   2022-07-01 09:52:58 +0800
  build float prec:   double
  build with tf inc:  /u/sigbjobo/software/DEEPMD_FROM_SOURCE/tensorflow/install/include;/u/sigbjobo/software/DEEPMD_FROM_SOURCE/tensorflow/install/include
  build with tf lib:  /u/sigbjobo/software/DEEPMD_FROM_SOURCE/tensorflow/install/lib/libtensorflow_cc.so;/u/sigbjobo/software/DEEPMD_FROM_SOURCE/tensorflow/install/lib/libtensorflow_framework.so
  restoring pair style deepmd from restart
  2268 atoms
Finding 1-2 1-3 1-4 neighbors ...
  special bond factors lj:    0        0        0       
  special bond factors coul:  0        0        0       
     0 = max # of 1-2 neighbors
     0 = max # of 1-3 neighbors
     0 = max # of 1-4 neighbors
     1 = max # of special neighbors
  special bonds CPU = 0.000 seconds
  read_restart CPU = 0.006 seconds
include 	in.setup
variable	out_freq equal 500
variable	out_freq2 equal 1000
variable	out_freq3 equal 5000

timestep        0.0005

neigh_modify    delay 7 every 1

include         in.deepmd
# This is deepMD model

# create groups ###
#group ox type 2
#group hy type 1

mass 2 15.999
mass 1 1.008

pair_style      deepmd ../graph.pb
pair_coeff      * *

bond_style      none
angle_style     none
dihedral_style  none
improper_style  none
neigh_modify exclude none


neighbor        2.0 bin
neigh_modify    every 10 delay 0 check no

thermo          ${out_freq}
thermo          500
thermo_style 	custom step temp pe etotal epair emol press lx ly lz vol pxx pyy pzz pxy pxz pyz
#thermo_modify	flush yes
restart 	${out_freq} restart.lmp.${pid} restart2.lmp.${pid}
restart 	500 restart.lmp.${pid} restart2.lmp.${pid}
restart 	500 restart.lmp.0 restart2.lmp.${pid}
restart 	500 restart.lmp.0 restart2.lmp.0

include		in.dump
dump            myDump all atom ${out_freq3} dump.water.${pid}
dump            myDump all atom 5000 dump.water.${pid}
dump            myDump all atom 5000 dump.water.0
dump            myDump2 all dcd ${out_freq2} dump.dcd.${pid}
dump            myDump2 all dcd 1000 dump.dcd.${pid}
dump            myDump2 all dcd 1000 dump.dcd.0
dump_modify     myDump append yes
dump_modify     myDump2 append yes


timer           timeout 23:50:00 every 1000
New timer settings: style=normal  mode=nosync  timeout=23:50:00

fix             1 all plumed plumedfile plumed.dat outfile plumed.out
fix             3 all nph x ${pressure} ${pressure} ${pressureDamp}
fix             3 all nph x 6079.5 ${pressure} ${pressureDamp}
fix             3 all nph x 6079.5 6079.5 ${pressureDamp}
fix             3 all nph x 6079.5 6079.5 1
fix             4 all temp/csvr ${temperature} ${temperature} ${tempDamp} ${seed}
fix             4 all temp/csvr 250 ${temperature} ${tempDamp} ${seed}
fix             4 all temp/csvr 250 250 ${tempDamp} ${seed}
fix             4 all temp/csvr 250 250 0.1 ${seed}
fix             4 all temp/csvr 250 250 0.1 745823

run             40000000 upto

CITE-CITE-CITE-CITE-CITE-CITE-CITE-CITE-CITE-CITE-CITE-CITE-CITE

Your simulation uses code contributions which should be cited:

- USER-DEEPMD package:

@article{Wang_ComputPhysCommun_2018_v228_p178,
  author = {Wang, Han and Zhang, Linfeng and Han, Jiequn and E, Weinan},
  doi = {10.1016/j.cpc.2018.03.016},
  url = {https://doi.org/10.1016/j.cpc.2018.03.016},
  year = 2018,
  month = {jul},
  publisher = {Elsevier {BV}},
  volume = 228,
  journal = {Comput. Phys. Commun.},
  title = {{DeePMD-kit: A deep learning package for many-body potential energy representation and molecular dynamics}},
  pages = {178--184}
}

CITE-CITE-CITE-CITE-CITE-CITE-CITE-CITE-CITE-CITE-CITE-CITE-CITE

Generated 0 of 1 mixed pair_coeff terms from geometric mixing rule
Neighbor list info ...
  update every 10 steps, delay 0 steps, check no
  max neighbors/atom: 2000, page size: 100000
  master list distance cutoff = 8
  ghost atom cutoff = 8
  binsize = 4, bins = 12 6 6
  1 neighbor lists, perpetual/occasional/extra = 1 0 0
  (1) pair deepmd, perpetual
      attributes: full, newton on
      pair build: full/bin
      stencil: full/bin/3d
      bin: standard
Per MPI rank memory allocation (min/avg/max) = 6.19 | 6.191 | 6.192 Mbytes
   Step          Temp          PotEng         TotEng         E_pair         E_mol          Press            Lx             Ly             Lz           Volume          Pxx            Pyy            Pzz            Pxy            Pxz            Pyz      
  18841000   247.53632     -357.03803     -284.50178     -357.03803      0              4954.7222      45.556419      20.047001      20.857         19048.064      4924.2248      3904.082       6035.8597     -1142.2303     -582.62859      556.66227    
  18841500   255.29993     -357.9156      -283.10436     -357.90032      0              5125.7886      45.484857      20.047001      20.857         19018.142      8292.6504      3838.713       3246.0023      103.48065      871.29087      760.92145    
  18842000   254.86587     -358.42192     -283.73787     -358.39982      0              5704.5408      45.591453      20.047001      20.857         19062.712      6870.8275      7541.474       2701.3209      311.19706     -214.89263     -340.45943    
  18842500   253.30053     -358.04349     -283.81814     -358.02926      0              6530.9093      45.622369      20.047001      20.857         19075.639      7600.619       7029.2096      4962.8993     -481.3691      -1179.0424      141.81846    
  18843000   253.64031     -356.31638     -281.99147     -356.29937      0              5372.9703      45.476796      20.047001      20.857         19014.772      5460.486       4747.7276      5910.6973      627.66384     -990.81506      312.22915    
  18843500   253.26021     -355.31554     -281.10201     -355.29666      0              5427.7012      45.569248      20.047001      20.857         19053.428      4489.1955      6120.5124      5673.3956      1221.9574     -563.78567     -190.74779    
  18844000   245.84205     -353.64411     -281.60434     -353.63576      0              5685.478       45.727265      20.047001      20.857         19119.498      8115.6861      5228.8617      3711.8863      862.50785     -1885.8649      1758.6451    
  18844500   249.074       -357.70406     -284.71722     -357.68342      0              5293.5561      45.661509      20.047001      20.857         19092.004      6397.1948      6201.6077      3281.8657     -110.90233     -345.52869      138.75167    
  18845000   244.3713      -356.68615     -285.07735     -356.67045      0              3798.8254      45.505889      20.047001      20.857         19026.936      3014.6905      5144.7593      3237.0264     -596.77662     -358.19917     -1197.9281    
  18845500   248.31195     -357.53079     -284.76726     -357.51788      0              3793.4079      45.687325      20.047001      20.857         19102.798      6186.4108      2017.9663      3175.8467     -937.91482      1073.2656      1124.3548    
  18846000   254.71632     -358.46818     -283.82796     -358.46357      0              2729.7436      45.85436       20.047001      20.857         19172.639      3184.0301      2885.1162      2120.0843     -363.72698      1509.2804      12.181376    
  18846500   252.75091     -358.78164     -284.71734     -358.76883      0              5519.1686      45.685578      20.047001      20.857         19102.067      6294.915       4644.2431      5618.3478      430.15542     -2408.8361      816.53946    
  18847000   250.1501      -357.8743      -284.57213     -357.86332      0              4510.2874      45.610763      20.047001      20.857         19070.786      4943.3684      4898.4045      3689.0895     -489.97532     -258.19963     -2133.2333    
  18847500   243.7193      -356.97492     -285.55718     -356.97083      0              7467.4698      45.4393        20.047001      20.857         18999.094      8076.1955      7055.4932      7270.7207      82.874904      98.1713        1646.5101    
  18848000   252.03075     -356.9757      -283.12244     -356.96675      0              7136.2342      45.19086       20.047001      20.857         18895.216      6557.6389      8309.5468      6541.5169      340.31755      327.93625     -1165.9739    
  18848500   248.1403      -355.58092     -282.86769     -355.55568      0              4679.723       45.459574      20.047001      20.857         19007.571      5108           4386.8911      4544.2781      1463.946       317.33506      1747.7862    
  18849000   248.70885     -357.56366     -284.68382     -357.54117      0              3553.9805      45.871965      20.047001      20.857         19180          4904.0306      2080.0291      3677.882       102.94182     -1019.2154     -230.02357    
  18849500   247.68007     -356.94161     -284.36324     -356.92388      0              4196.7852      45.556122      20.047001      20.857         19047.939      4070.2999      4341.6759      4178.3799      45.511402     -876.10608     -825.78834    
  18850000   253.16807     -355.1258      -280.93927     -355.10554      0              7315.015       45.275783      20.047001      20.857         18930.724      8505.9496      7100.3942      6338.7012     -235.44527     -1941.4079      3003.3306    
  18850500   251.25903     -356.17278     -282.54566     -356.16557      0              5614.9546      45.575524      20.047001      20.857         19056.052      5967.6131      6484.2198      4393.0309     -922.16094     -661.75374     -2731.6601    
  18851000   254.24875     -356.26914     -281.76593     -356.25204      0              5905.1141      45.747069      20.047001      20.857         19127.778      6234.3297      7307.1779      4173.8346     -1022.1453     -364.89151      898.70759    
  18851500   251.58483     -351.75011     -278.02752     -351.74234      0              6556.0487      45.652669      20.047001      20.857         19088.308      7279.8008      5940.4767      6447.8686      1176.8559     -437.29009     -330.95516    
  18852000   251.51384     -354.72777     -281.02598     -354.70592      0              4328.804       45.574354      20.047001      20.857         19055.563      5634.1136      5415.2319      1937.0666      2116.8007     -295.35837      289.39069    
  18852500   248.94206     -357.02213     -284.07395     -356.99981      0              7268.3813      45.407927      20.047001      20.857         18985.976      8366.0305      6456.1769      6982.9364      1339.0237     -720.37274      1119.342     
  18853000   247.64474     -354.6327      -282.06468     -354.62038      0              7109.1595      45.416635      20.047001      20.857         18989.617      7674.0891      8084.6745      5568.7147     -295.50485      2742.3842      1904.5208    
  18853500   253.57242     -355.77068     -281.46566     -355.76988      0              5478.8819      45.690902      20.047001      20.857         19104.294      6902.3889      3617.5511      5916.7058      1483.1991     -806.05479      976.46174    
  18854000   259.84689     -356.71544     -280.57179     -356.69598      0              5646.8207      45.670036      20.047001      20.857         19095.569      6855.6701      5964.3164      4120.4756     -671.76533     -2187.9337      1539.3889    
  18854500   248.66227     -356.55151     -283.68533     -356.53333      0              3745.8954      45.512665      20.047001      20.857         19029.769      5680.0166      2848.0839      2709.5857     -699.24426     -1014.7505      1493.5096    
  18855000   239.87068     -355.85006     -285.56009     -355.83027      0              4742.0949      45.575951      20.047001      20.857         19056.23       5473.5091      4814.7237      3938.052      -738.74673      378.33212      34.651706    
  18855500   249.61415     -360.41415     -287.26903     -360.40079      0              6349.1733      45.565911      20.047001      20.857         19052.032      7354.2725      6650.0876      5043.16       -45.768401      137.02784      1442.9248    
  18856000   251.5722      -356.94752     -283.22863     -356.93308      0              5518.4181      45.567852      20.047001      20.857         19052.844      6169.6219      5398.6618      4986.9704      83.822619      673.65617     -715.97969    
  18856500   249.90318     -357.75753     -284.52772     -357.73754      0              4876.2803      45.669985      20.047001      20.857         19095.548      5739.6731      5220.5952      3668.5726      456.2628      -1742.4689     -1353.3757    
  18857000   250.00022     -356.94854     -283.69029     -356.92597      0              5820.1861      45.421819      20.047001      20.857         18991.785      6201.8005      3860.6132      7398.1444      739.35251     -735.29126     -579.75652    
  18857500   251.03545     -357.45637     -283.89476     -357.43498      0              6148.0745      45.503911      20.047001      20.857         19026.109      7155.2198      6092.3685      5196.6353      264.48176     -834.19638     -1261.1032    
  18858000   249.16176     -357.73773     -284.72517     -357.72339      0              5313.0846      45.603138      20.047001      20.857         19067.598      5799.7924      5362.9588      4776.5026     -787.19599      1909.4763     -1423.9048    
  18858500   244.97677     -356.86453     -285.07832     -356.85688      0              5064.6209      45.805938      20.047001      20.857         19152.392      5555.3649      6403.2879      3235.21        44.209304     -1110.4617      955.89143    
  18859000   244.03111     -358.3435      -286.8344      -358.32093      0              6106.3219      45.752633      20.047001      20.857         19130.104      7314.3049      5788.164       5216.4968     -587.9983      -872.12634      393.60845    
  18859500   252.65527     -359.46433     -285.42806     -359.45169      0              6752.3721      45.325423      20.047001      20.857         18951.479      7118.8725      6520.912       6617.3317      1295.1347     -938.87758      1222.5466    
  18860000   251.36255     -358.90439     -285.24693     -358.90789      0              4417.444       45.483895      20.047001      20.857         19017.74       3660.8071      5500.3066      4091.2182     -312.17902     -1989.599      -1380.8966    
  18860500   250.77812     -359.33482     -285.84862     -359.32057      0              5438.1552      45.938229      20.047001      20.857         19207.706      5176.007       5157.0862      5981.3725     -1064.8663     -301.128       -232.34648    
  18861000   251.40719     -360.79271     -287.12217     -360.79346      0              2488.1226      46.090943      20.047001      20.857         19271.559      2090.4072      3641.1597      1732.8009      137.61145     -702.8322      -1251.8138    
  18861500   246.56427     -358.19635     -285.94494     -358.17916      0              5017.3316      45.710994      20.047001      20.857         19112.694      7392.9161      4796.3193      2862.7592     -562.48687     -545.92494     -408.61679    
  18862000   243.99456     -358.64026     -287.14186     -358.61854      0              4307.3459      45.496722      20.047001      20.857         19023.103      4685.0913      4611.17        3625.7763     -937.28899      31.581673     -92.103269    
  18862500   241.82371     -358.84064     -287.97837     -358.83575      0              5114.2788      45.735409      20.047001      20.857         19122.903      5787.1734      5177.8681      4377.7947      626.32708     -2332.2174     -2105.6764    
  18863000   248.98128     -358.39528     -285.43561     -358.39116      0              3591.7393      45.821525      20.047001      20.857         19158.91       4105.4776      3237.1455      3432.595      -984.4644      -1586.2395     -78.933148    
  18863500   250.69184     -358.75618     -285.29526     -358.73885      0              4351.5548      45.70532       20.047001      20.857         19110.322      4806.9504      1259.6469      6988.0672      1186.9736     -220.13043      213.45332    
  18864000   247.67063     -360.3483      -287.77269     -360.33407      0              7242.4453      45.760073      20.047001      20.857         19133.215      7936.2564      6646.0941      7144.9853      383.21718     -801.38864     -427.9567     
  18864500   247.86043     -357.5212      -284.88998     -357.52002      0              4968.3587      45.910755      20.047001      20.857         19196.219      5879.8475      5130.4818      3894.7467     -572.62126     -16.149782     -577.03467    
  18865000   250.28061     -356.58612     -283.24571     -356.56815      0              3880.478       45.78942       20.047001      20.857         19145.486      6313.9272      5133.411       194.09581      308.89404     -1053.2324      535.14685    
  18865500   251.18958     -358.52079     -284.91401     -358.50036      0              6577.374       45.746301      20.047001      20.857         19127.457      5109.9813      6849.7323      7772.4083      637.77558     -1668.3881      141.71193    
  18866000   252.97098     -354.48687     -280.35809     -354.48741      0              4345.1347      45.813298      20.047001      20.857         19155.47       5041.6325      5070.3479      2923.4236     -1557.8226     -204.32078     -325.28193    
  18866500   248.36822     -355.44873     -282.66871     -355.45377      0              5525.2019      45.732285      20.047001      20.857         19121.597      5066.6861      5481.7456      6027.1741      41.005047      650.28458      985.14442    
  18867000   255.62506     -355.18185     -280.27534     -355.18476      0              4191.7612      45.664841      20.047001      20.857         19093.397      4846.63        4967.1645      2761.4893      996.70171     -2161.9439     -1259.7657    
  18867500   252.06875     -358.01236     -284.14796     -358.00203      0              4565.6747      46.017269      20.047001      20.857         19240.754      4475.3867      3370.5592      5851.0781      881.79751      367.60443      59.157278    
  18868000   253.58977     -356.73708     -282.42697     -356.73842      0              5430.3123      45.85841       20.047001      20.857         19174.332      8172.4757      4680.6627      3437.7984      1044.6328      1031.674       116.67815    
  18868500   251.80491     -357.04795     -283.26087     -357.04761      0              7003.6242      45.719447      20.047001      20.857         19116.229      8003.7575      6483.9109      6523.2041      259.28598     -252.90385     -1146.9607    
  18869000   248.17705     -357.60412     -284.88012     -357.59025      0              6234.7334      45.741298      20.047001      20.857         19125.365      8629.8861      4023.6464      6050.6676      1188.3585     -258.98397      711.30116    
  18869500   247.27184     -355.52758     -283.06883     -355.52687      0              3218.9085      45.919372      20.047001      20.857         19199.822      4093.7229      4651.1291      911.87363      914.84922     -679.11047     -864.48648    
  18870000   243.61695     -356.84815     -285.46041     -356.84588      0              3905.028       45.895229      20.047001      20.857         19189.727      7036.5113      1635.3354      3043.2372      1306.722      -1270.5447     -1084.7021    
  18870500   252.72611     -355.74416     -281.68713     -355.75017      0              7073.9371      45.66043       20.047001      20.857         19091.553      6845.4629      7533.2411      6843.1072     -1089.5087     -2384.1582     -158.0026     
  18871000   256.85177     -353.49356     -278.22758     -353.48679      0              5477.1179      45.575745      20.047001      20.857         19056.144      6690.4922      3733.9066      6006.9547      643.67983     -1797.2868      103.27624    
  18871500   258.24123     -356.73782     -281.06469     -356.72571      0              6495.3666      45.620037      20.047001      20.857         19074.664      8732.3453      5896.4621      4857.2924     -582.32041     -1057.8495      147.00149    
  18872000   253.50762     -354.74781     -280.46178     -354.73322      0              5499.4409      45.873618      20.047001      20.857         19180.691      5939.7019      4834.563       5724.0578      490.47531      1185.5125     -1938.0427    
  18872500   250.04891     -355.61831     -282.34579     -355.60182      0              4689.9409      45.543116      20.047001      20.857         19042.501      6322.0901      5111.4764      2636.2562     -663.3862      -297.96482      82.629037    
  18873000   247.62756     -357.05639     -284.49341     -357.04051      0              6478.0719      45.461096      20.047001      20.857         19008.207      5893.3789      4534.9572      9005.8796     -1097.758       731.77008     -1787.0812    
  18873500   255.3013      -357.44318     -282.63154     -357.43214      0              4704.9847      45.717158      20.047001      20.857         19115.272      5450.8853      4377.6431      4286.4258     -27.145735     -1029.4482      1746.7238    
  18874000   251.51309     -356.41444     -282.71286     -356.40108      0              5231.2523      45.606296      20.047001      20.857         19068.918      6736.8082      5540.5322      3416.4166     -678.12468      982.39108     -1183.2365    
  18874500   245.05333     -357.87549     -286.06684     -357.85971      0              7012.7557      45.397351      20.047001      20.857         18981.554      7360.5455      8417.4225      5260.2991     -1095.9573      1186.5191      286.73547    
  18875000   247.04685     -359.898       -287.50519     -359.87562      0              5803.8515      45.650164      20.047001      20.857         19087.26       8831.2075      4205.3602      4374.987       456.30978      172.23703      639.65633    
  18875500   244.67259     -359.15569     -287.45861     -359.1383       0              4731.815       45.674038      20.047001      20.857         19097.243      5594.3643      3365.6009      5235.4799     -19.28045       2837.1108      1102.0538    
  18876000   250.62998     -359.13835     -285.69555     -359.12508      0              6220.0493      45.506174      20.047001      20.857         19027.055      9362.1465      4762.3446      4535.6568      380.35398      1463.1842      314.70214    
  18876500   249.74073     -357.15567     -283.97346     -357.15172      0              7823.7861      45.461336      20.047001      20.857         19008.307      7487.497       8454.4992      7529.3621     -1242.3372      1650.2996     -492.95076    
  18877000   242.72213     -355.95718     -284.83165     -355.95934      0              5020.078       45.634241      20.047001      20.857         19080.602      5633.1557      6057.8364      3369.2419     -299.99364     -192.74827      1209.4614    
  18877500   246.45014     -357.12239     -284.90443     -357.12465      0              5484.8363      45.613146      20.047001      20.857         19071.782      5902.9779      3821.1985      6730.3324     -311.07151     -707.84102      1634.901     
  18878000   249.98596     -357.44898     -284.19491     -357.42472      0              5698.2198      45.338977      20.047001      20.857         18957.147      5827.6979      6008.9305      5258.031       23.077316     -850.38305     -1818.1489    
  18878500   245.98366     -357.14356     -285.06229     -357.12705      0              5097.6913      45.484697      20.047001      20.857         19018.075      5588.7888      3795.8191      5908.466      -1258.5765      759.25901     -893.79179    
  18879000   253.54965     -356.41516     -282.11681     -356.4028       0              4054.3447      45.611368      20.047001      20.857         19071.039      4128.0537      3822.57        4212.4103     -279.83149     -76.140138     -1128.7751    
  18879500   251.86754     -356.39475     -282.58931     -356.38116      0              4862.9059      45.468886      20.047001      20.857         19011.464      3058.7064      6672.4985      4857.5128     -1187.8539      81.624919     -140.94894    
  18880000   247.77468     -355.8469      -283.2408      -355.82493      0              5343.6223      44.939006      20.047001      20.857         18789.911      5334.8628      4833.6023      5862.4018      324.64974     -612.19583     -30.305498    
  18880500   252.83345     -355.75375     -281.66527     -355.73391      0              6441.5244      45.22871       20.047001      20.857         18911.042      6459.6913      6259.3613      6605.5205     -95.549701      57.669733      470.60823    
  18881000   244.76309     -356.39765     -284.67404     -356.38823      0              5604.6362      45.676812      20.047001      20.857         19098.402      5049.2765      7225.439       4539.1932      215.65537      867.74218      1151.4525    
  18881500   245.40567     -356.37794     -284.46604     -356.36899      0              5326.6895      45.449503      20.047001      20.857         19003.36       7065.2308      5470.8256      3444.0121     -403.57637      521.9243      -97.437925    
  18882000   247.53874     -358.71183     -286.17487     -358.69348      0              6098.1371      45.339081      20.047001      20.857         18957.19       9372.6634      3733.876       5187.8719      392.86644      977.63678     -279.64497    
  18882500   252.12087     -357.52777     -283.64809     -357.51607      0              6020.8256      45.589078      20.047001      20.857         19061.719      5155.1463      6430.4501      6476.8804     -19.278638      3.0041761     -1105.3296    
  18883000   249.08193     -356.57706     -283.5879      -356.56467      0              4634.9388      45.623245      20.047001      20.857         19076.005      5581.215       2069.814       6253.7873      542.51044     -1091.4817      580.07611    
  18883500   247.60966     -356.06504     -283.5073      -356.05726      0              5766.3982      45.51778       20.047001      20.857         19031.908      5670.2085      8102.6118      3526.3742     -68.994227      2053.6256     -1090.3438    
  18884000   253.97011     -358.26957     -283.84801     -358.27328      0              4626.1333      45.594719      20.047001      20.857         19064.078      4506.4607      4926.5537      4445.3855      232.36724     -1132.2011     -1551.036     
  18884500   254.09015     -357.42442     -282.96769     -357.41578      0              6028.4687      45.536846      20.047001      20.857         19039.88       6186.8443      6682.4172      5216.1445     -660.24579      31.930618     -1348.1597    
  18885000   240.29623     -356.49319     -286.07852     -356.48588      0              4618.4058      45.495956      20.047001      20.857         19022.783      4460.6947      6379.7889      3014.7338      1092.9927      953.2847       1295.9506    
  18885500   247.24765     -357.3384      -284.88675     -357.32079      0              6616.204       45.554997      20.047001      20.857         19047.469      7810.8834      6535.9341      5501.7945     -1252.54        1061.2476      468.20366    
  18886000   252.67125     -360.59316     -286.55221     -360.57308      0              5563.944       45.878113      20.047001      20.857         19182.571      5832.7731      4465.6393      6393.4196     -744.40978     -572.19688      147.69522    
  18886500   244.32841     -358.50774     -286.91151     -358.48713      0              5261.1107      45.746473      20.047001      20.857         19127.529      3950.771       6687.9782      5144.5829     -30.557473      1273.0438      725.96316    
  18887000   249.55561     -357.89382     -284.76585     -357.8856       0              4653.2131      45.332195      20.047001      20.857         18954.311      4725.4148      3697.1458      5537.0789     -147.63433     -11.138178     -1611.6224    
  18887500   249.50843     -355.57475     -282.46061     -355.5768       0              5015.7455      45.469816      20.047001      20.857         19011.853      5259.3287      6196.6105      3591.2973      687.21282      1413.1653      608.22146    
  18888000   257.32697     -358.68045     -283.27522     -358.67959      0              3166.293       45.758305      20.047001      20.857         19132.476      2321.7956      2515.0454      4662.0381      497.74552     -668.25431      350.93227    
  18888500   253.48633     -356.67384     -282.39405     -356.66249      0              2945.0448      45.740482      20.047001      20.857         19125.024      4521.6942      2569.5965      1743.8436     -24.73453      -350.74171      1579.2082    
  18889000   244.23321     -355.651       -284.08267     -355.63076      0              3663.1245      45.562867      20.047001      20.857         19050.76       3994.854       2316.3208      4678.1988      210.71299      94.778275     -111.68721    
  18889500   251.88995     -356.81704     -283.00504     -356.8013       0              5875.2019      45.493583      20.047001      20.857         19021.791      10406.949      2751.9544      4466.7023     -465.28843     -495.13606      575.46988    
  18890000   251.74701     -354.62787     -280.85775     -354.62514      0              6889.895       45.689403      20.047001      20.857         19103.667      6770.0417      6320.3897      7579.2536      1856.3084      484.37744      44.268033    
  18890500   258.60008     -354.17285     -278.39455     -354.15635      0              4999.2123      45.750823      20.047001      20.857         19129.348      5063.0667      4502.3001      5432.2702      1463.4338      1371.1132      393.83603    
  18891000   256.37112     -357.4037      -282.27857     -357.40695      0              5155.4683      45.683212      20.047001      20.857         19101.078      5860.1995      3139.8876      6466.3178      680.00004      1273.5024     -526.26331    
  18891500   248.93879     -356.77436     -283.82715     -356.76597      0              4333.3344      45.536473      20.047001      20.857         19039.724      5814.8151      4875.3231      2309.865      -550.81386      776.6096      -1199.285     
  18892000   254.85098     -356.57419     -281.89451     -356.55974      0              4361.757       45.544587      20.047001      20.857         19043.116      4765.6562      5161.2423      3158.3725     -1220.2896     -860.0465      -1260.6325    
  18892500   256.87979     -358.38342     -283.10922     -358.3736       0              5872.6501      45.644684      20.047001      20.857         19084.969      5218.2437      7281.8802      5117.8265      1504.7407      1040.2336      238.35826    
  18893000   246.91199     -357.42798     -285.07468     -357.4199       0              6192.3282      45.389735      20.047001      20.857         18978.37       5863.4442      5270.011       7443.5293      505.1746      -185.9007      -514.45523    
  18893500   253.73545     -357.47033     -283.11753     -357.46807      0              7437.6696      45.46755       20.047001      20.857         19010.906      8763.4902      6515.2275      7034.2912     -1181.337       1917.6466      618.58243    
  18894000   250.48103     -359.16036     -285.76121     -359.15991      0              2250.4252      45.928101      20.047001      20.857         19203.471      3381.9353      2494.5432      874.79718      746.02093      741.0534      -240.76992    
  18894500   248.87404     -357.73916     -284.81091     -357.72848      0              3732.3679      45.860368      20.047001      20.857         19175.151      4627.8946      3016.0835      3553.1256      1302.8551      472.21778     -792.17318    
  18895000   250.34721     -356.22654     -282.86661     -356.23006      0              4614.7927      45.870142      20.047001      20.857         19179.238      7028.8051      2828.9192      3986.6537      2324.1927      1069.4695      125.34022    
  18895500   253.31268     -362.08989     -287.86098     -362.07754      0              4820.416       45.790206      20.047001      20.857         19145.815      6382.2051      4912.5137      3166.5292      1024.5909      170.81131      281.48335    
  18896000   256.46456     -358.49878     -283.34626     -358.48217      0              6104.5402      45.563544      20.047001      20.857         19051.043      8515.258       4475.0914      5323.271      -119.06619      80.736406     -388.12849    
  18896500   250.48601     -359.45634     -286.05574     -359.43785      0              3737.4272      45.75405       20.047001      20.857         19130.697      3391.2274      5017.3206      2803.7335      897.21348      277.89645     -598.18298    
  18897000   253.87425     -356.35237     -281.9589      -356.33912      0              7094.2693      45.810065      20.047001      20.857         19154.118      8663.7832      6505.2634      6113.7613     -856.98417     -277.50314      808.05312    
  18897500   246.59994     -355.21023     -282.94837     -355.21404      0              5604.9616      45.772779      20.047001      20.857         19138.528      3507.761       7140.5359      6166.5878      673.09755      883.23295     -1091.8178    
  18898000   242.6716      -356.39684     -285.28611     -356.4017       0              4932.9314      45.634271      20.047001      20.857         19080.615      5598.5212      4763.8409      4436.432       254.40761      374.29307      418.52172    
  18898500   248.76248     -356.42228     -283.52672     -356.41991      0              7656.3789      45.501074      20.047001      20.857         19024.923      8189.2487      7961.7073      6818.1806     -1021.2587      1926.5563     -1006.4664    
  18899000   249.46611     -357.66059     -284.55885     -357.64801      0              4695.3317      45.651805      20.047001      20.857         19087.946      5056.2189      6795.5824      2234.1938     -533.40122     -1620.5005      1576.7433    
  18899500   256.94673     -358.21038     -282.91657     -358.20167      0              5609.7453      45.870225      20.047001      20.857         19179.272      8519.5421      4164.5764      4145.1173     -661.79675      609.08802     -493.54677    
  18900000   250.01895     -357.60886     -284.34512     -357.61224      0              5373.4267      45.864102      20.047001      20.857         19176.712      5218.5563      7619.2147      3282.5091      43.938638      114.31677      338.52342    
  18900500   249.50338     -355.72499     -282.61233     -355.72843      0              5822.5985      45.551459      20.047001      20.857         19045.99       8324.6317      4329.5217      4813.6421      143.29868      269.07376      904.14672    
  18901000   255.05912     -359.84005     -285.09938     -359.83946      0              4038.1436      45.67827       20.047001      20.857         19099.012      5130.1817      3670.7492      3313.4999     -306.47135     -1162.881       318.35472    
  18901500   246.07629     -357.20065     -285.09223     -357.19326      0              4510.2008      45.891469      20.047001      20.857         19188.155      8210.2178      3058.3911      2261.9935     -540.45776     -205.24928     -847.73392    
  18902000   252.27894     -358.5802      -284.65421     -358.57484      0              1437.5723      45.890768      20.047001      20.857         19187.862      83.938465      3042.9918      1185.7866      428.76184      278.39427      571.19295    
  18902500   252.6118      -356.27334     -282.24981     -356.2586       0              6364.424       45.570768      20.047001      20.857         19054.063      8589.5585      5423.2548      5080.4586     -214.70865      483.05828     -1816.5774    
  18903000   254.9797      -358.03231     -283.31491     -358.02963      0              4989.9958      45.868028      20.047001      20.857         19178.354      7479.1172      3239.2126      4251.6575     -1611.0187     -344.47076     -1403.8487    
  18903500   249.16784     -358.66104     -285.6467      -358.66364      0              4389.6085      46.013103      20.047001      20.857         19239.012      7135.7324      1693.6547      4339.4384      232.94645      410.2028       170.42324    
  18904000   263.11343     -356.85849     -279.75764     -356.85095      0              5917.3971      45.734204      20.047001      20.857         19122.399      7507.1028      5521.7607      4723.3278     -67.985058     -1117.5793      941.56209    
  18904500   255.92098     -359.4266      -284.43337     -359.40709      0              5576.7249      45.565788      20.047001      20.857         19051.981      7346.6509      4295.2736      5088.2501     -1509.6954      1081.5364      358.12197    
  18905000   255.47841     -356.91836     -282.05482     -356.91224      0              6083.5958      45.650772      20.047001      20.857         19087.514      6389.2434      5906.3515      5955.1924      9.3892357      531.26231     -1100.8335    
  18905500   244.34016     -357.67463     -286.07496     -357.67808      0              3639.1137      45.848537      20.047001      20.857         19170.204      4396.5218      3454.5081      3066.3112      141.52177      1634.8523      1169.1328    
  18906000   244.93548     -359.59885     -287.82474     -359.58367      0              5452.4831      45.721615      20.047001      20.857         19117.135      5868.3933      4996.6723      5492.3837     -202.07582      715.17214     -641.66308    
  18906500   246.63949     -358.5033      -286.22985     -358.4887       0              7183.7739      45.766079      20.047001      20.857         19135.727      9596.6533      6620.9517      5333.7166     -446.66423     -649.97825      1331.8036    
  18907000   250.71146     -355.53485     -282.06818     -355.52434      0              5182.9635      45.829035      20.047001      20.857         19162.05       6799.8856      3357.9287      5391.0763     -623.01655     -932.26969      1097.7936    
  18907500   251.36332     -355.22185     -281.56416     -355.21669      0              4483.6063      45.790289      20.047001      20.857         19145.849      4894.3164      3881.926       4674.5766     -534.66419      592.40924     -1057.7613    
  18908000   244.28484     -356.60968     -285.02622     -356.61583      0              4765.824       45.686609      20.047001      20.857         19102.498      5738.1488      4595.9392      3963.384      -1840.8024     -1021.7478      385.27572    
  18908500   255.03865     -358.57907     -283.84439     -358.55853      0              4558.9666      45.649362      20.047001      20.857         19086.925      5929.718       2512.6539      5234.5278      277.94572     -400.49283     -234.20347    
  18909000   241.97546     -357.57693     -286.6702      -357.57167      0              4593.1364      45.680502      20.047001      20.857         19099.945      8462.8127      1377.9405      3938.6559      854.16661     -1012.9843      690.72226    
  18909500   253.08257     -358.09555     -283.93406     -358.08149      0              5858.7434      45.846914      20.047001      20.857         19169.526      5678.0448      6947.8114      4950.374      -504.05134      90.495723     -84.506499    
  18910000   251.81761     -360.12327     -286.33246     -360.10151      0              4931.346       46.045919      20.047001      20.857         19252.734      4781.7419      6499.5381      3512.7579      553.96148     -1924.6649     -1373.1421    
  18910500   251.02852     -358.18296     -284.62338     -358.1609       0              6119.7507      45.708212      20.047001      20.857         19111.531      6734.7465      5777.4301      5847.0754      290.61963     -26.977401     -320.32502    
  18911000   249.22112     -358.24413     -285.21418     -358.23675      0              7308.1651      45.408659      20.047001      20.857         18986.282      7197.2928      6609.8285      8117.3739     -1204.956       207.88211      939.96274    
  18911500   240.79752     -356.1262      -285.56464     -356.13149      0              6904.0113      45.503053      20.047001      20.857         19025.75       7814.7842      5954.6313      6942.6183     -1051.5336     -838.94461      1490.2876    
  18912000   246.04558     -358.12026     -286.02085     -358.11385      0              4969.297       45.616262      20.047001      20.857         19073.085      5212.3566      3736.5834      5958.9511     -141.48171     -255.36865     -1230.4413    
  18912500   253.23495     -357.88886     -283.68273     -357.8688       0              5788.0834      45.536882      20.047001      20.857         19039.895      4861.3021      6054.3376      6448.6104     -491.34269     -318.00972     -190.7924     
  18913000   260.92964     -357.43061     -280.96968     -357.42026      0              5867.5971      45.600326      20.047001      20.857         19066.422      5395.1768      6081.6622      6125.9524      1213.6027      1042.838      -150.00831    
  18913500   247.06071     -357.68946     -285.29259     -357.69112      0              6131.7909      45.668501      20.047001      20.857         19094.927      6700.5721      5619.63        6075.1707     -872.57057     -250.6147       949.42109    
  18914000   249.89299     -358.09696     -284.87013     -358.09424      0              5606.8239      45.661505      20.047001      20.857         19092.002      6159.9561      5025.8089      5634.7068      170.5331       2091.7646      1185.357     
  18914500   256.18566     -356.98757     -281.91678     -356.98635      0              4345.3956      45.417236      20.047001      20.857         18989.868      5870.1681      2313.8252      4852.1934     -492.39787     -655.99169      323.28985    
  18915000   258.19224     -359.20648     -283.5477      -359.21067      0              5091.8864      45.680079      20.047001      20.857         19099.768      5183.0794      3767.3529      6325.227      -274.33007     -851.79185      398.30388    
  18915500   249.81153     -356.65606     -283.4531      -356.65033      0              5466.3318      45.775702      20.047001      20.857         19139.75       6184.8819      5428.6276      4785.486       60.828744     -545.62828     -554.23335    
  18916000   253.02368     -358.07713     -283.9329      -358.06894      0              5330.4167      45.447879      20.047001      20.857         19002.681      7150.6484      5529.3811      3311.2207      1337.3068      206.82585      3505.0489    
  18916500   251.9771      -358.16142     -284.32388     -358.15722      0              5503.4346      45.620458      20.047001      20.857         19074.839      5434.3263      6026.478       5049.4996      367.82348     -376.53826      71.284733    
  18917000   249.2754      -358.03019     -284.98434     -358.00946      0              4623.2474      45.681939      20.047001      20.857         19100.546      6053.9092      5833.1881      1982.645      -399.8511       802.10243      1206.4244    
  18917500   243.15927     -361.55008     -290.29645     -361.54733      0              6165.8088      45.745202      20.047001      20.857         19126.998      8342.7403      5005.1157      5149.5702      64.406082     -1335.9104     -1381.0549    
  18918000   242.98615     -360.05548     -288.85259     -360.05625      0              3771.5534      45.675049      20.047001      20.857         19097.665      6291.5421      3586.9136      1436.2044      73.864187     -785.92093     -279.87393    
  18918500   241.34065     -356.92603     -286.20532     -356.92049      0              7461.3464      45.483009      20.047001      20.857         19017.369      5463.1336      8926.5885      7994.3172     -762.43111     -1588.6362     -694.17541    
  18919000   257.67793     -355.76766     -280.25959     -355.77373      0              5227.1915      45.366038      20.047001      20.857         18968.461      6460.5441      3389.6117      5831.4188      49.069415      44.320347     -1438.5478    
  18919500   249.04008     -358.44148     -285.46458     -358.42648      0              5280.8929      45.191541      20.047001      20.857         18895.501      7880.2379      4075.562       3886.8789     -1149.1295      34.058176      1131.5814    
  18920000   244.66248     -358.95323     -287.25911     -358.95445      0              6754.8828      45.509786      20.047001      20.857         19028.565      7423.3059      6628.0469      6213.2955      12.787518      583.68362      1293.2975    
  18920500   249.12729     -358.51583     -285.51337     -358.51635      0              4130.0464      45.840419      20.047001      20.857         19166.81       4823.0759      2109.9403      5457.1229      894.70277     -493.55574      1952.0534    
  18921000   244.57218     -355.71822     -284.05056     -355.70063      0              5967.1952      45.611865      20.047001      20.857         19071.247      7158.1002      6830.264       3913.2215      355.37482     -1403.8646      29.252564    
  18921500   250.96562     -357.66011     -284.11896     -357.65274      0              5787.0543      45.39699       20.047001      20.857         18981.403      6144.1935      6714.7613      4502.2081      503.93164      1193.474       474.90332    
  18922000   245.26395     -357.72008     -285.84971     -357.72198      0              4804.3349      45.53087       20.047001      20.857         19037.381      6306.7728      4680.8364      3425.3956      262.31808     -1014.7037      1188.4452    
  18922500   248.07095     -358.41398     -285.72107     -358.40611      0              2250.5731      45.636627      20.047001      20.857         19081.6        2871.7486      1698.9034      2181.0673      33.496999     -1019.4783     -1224.7151    
  18923000   248.29409     -358.95992     -286.20162     -358.93692      0              6900.3799      45.445942      20.047001      20.857         19001.871      5415.7645      7555.8248      7729.5505      223.66148     -281.31138     -600.84699    
  18923500   254.91818     -355.80046     -281.10108     -355.79154      0              4717.342       45.333097      20.047001      20.857         18954.688      5138.663       4650.0544      4363.3086      1120.6063      829.77244      558.24603    
  18924000   248.79233     -357.04863     -284.14433     -357.02959      0              4950.3407      45.400096      20.047001      20.857         18982.702      6581.3886      4996.2402      3273.3932     -93.140331      516.23825     -669.81151    
  18924500   246.49405     -357.0562      -284.82537     -357.05258      0              6782.6871      45.498084      20.047001      20.857         19023.672      8176.7515      6123.5442      6047.7655     -436.7234       274.46969      1045.0498    
  18925000   250.71597     -354.5098      -281.04181     -354.51928      0              6400.3282      45.408739      20.047001      20.857         18986.316      6998.8488      6442.122       5760.0138     -749.07566      2304.1428      926.01928    
  18925500   246.84405     -357.76989     -285.4365      -357.77106      0              5961.6734      45.499411      20.047001      20.857         19024.228      7310.5065      5107.9909      5466.5228     -561.1495       1167.1047     -748.98557    
  18926000   246.97855     -357.98568     -285.61288     -357.97756      0              6893.2586      45.605274      20.047001      20.857         19068.491      5896.9912      8928.4678      5854.3168     -1193.3484     -1129.6065     -132.14561    
  18926500   254.66214     -356.14637     -281.52202     -356.14625      0              4287.2179      45.617592      20.047001      20.857         19073.641      5535.7568      3376.2321      3949.6647     -150.47027     -1316.2328      574.46982    
  18927000   252.11838     -356.4073      -282.52835     -356.41029      0              6440.2212      45.374392      20.047001      20.857         18971.954      8024.5167      6650.0642      4646.0827     -2004.0441      543.94291     -1494.8037    
  18927500   241.92044     -357.61873     -286.72812     -357.61232      0              6396.512       45.518656      20.047001      20.857         19032.274      7787.2887      4985.9534      6416.294       614.12076     -1317.2278      177.44       
  18928000   246.70457     -356.60288     -284.31036     -356.59128      0              6943.9931      45.482985      20.047001      20.857         19017.359      8938.2723      8340.0142      3553.6929      742.77365     -905.81966      386.80351    
  18928500   250.35711     -357.30295     -283.94012     -357.29939      0              6461.3212      45.198319      20.047001      20.857         18898.334      7021.3248      6370.2219      5992.4168      745.03239     -274.50974     -1405.5366    
  18929000   248.66408     -355.98376     -283.11704     -355.99358      0              4600.4187      45.565034      20.047001      20.857         19051.666      5246.6536      2923.0349      5631.5675      292.96374     -1090.4986     -2765.3302    
  18929500   255.41822     -358.45791     -283.61201     -358.45316      0              4318.1231      45.800519      20.047001      20.857         19150.127      2375.4944      7992.4368      2586.4381      708.51486      858.61617     -552.96439    
  18930000   249.47167     -360.69158     -287.58821     -360.68289      0              5393.1873      45.468736      20.047001      20.857         19011.402      7131.9971      4300.906       4746.6588     -481.37476      1167.4892     -1019.8714    
  18930500   240.0464      -357.86248     -287.52103     -357.84178      0              7347.9312      45.292796      20.047001      20.857         18937.837      9025.0387      7277.905       5740.85        1149.8669     -517.25552     -1101.4633    
  18931000   242.1461      -359.62379     -288.66705     -359.60904      0              4270.69        45.663897      20.047001      20.857         19093.002      4032.8662      4571.2555      4207.9484     -535.10876      151.03696      984.15936    
  18931500   247.5093      -356.3772      -283.84887     -356.38075      0              4718.0465      45.666459      20.047001      20.857         19094.073      6928.8536      3952.8565      3272.4296      41.930944     -308.6208       779.19699    
  18932000   249.93359     -357.78541     -284.54668     -357.79543      0              6783.0297      45.359083      20.047001      20.857         18965.553      6173.1578      8461.6956      5714.2356      550.02747      1011.1949      410.27152    
  18932500   249.9851      -358.72766     -285.47384     -358.73793      0              4642.5745      45.348107      20.047001      20.857         18960.964      7297.0722      3923.9141      2706.7371     -1071.244       1256.718      -147.43864    
  18933000   249.09808     -356.5994      -283.6055      -356.60931      0              4940.7898      45.561604      20.047001      20.857         19050.231      5547.853       5556.5113      3718.0052     -115.91068     -530.47013     -482.68311    
  18933500   245.27446     -355.16327     -283.28982     -355.15758      0              7670.0377      45.803017      20.047001      20.857         19151.171      9507.8586      7061.5641      6440.6903     -924.65712      404.70144      590.12156    
  18934000   250.277       -356.53535     -283.19599     -356.5368       0              5259.3078      45.780731      20.047001      20.857         19141.853      5502.217       3042.1567      7233.5496      1053.2658     -363.25195      864.32953    
  18934500   253.01982     -359.67461     -285.53152     -359.66468      0              5822.4269      45.664754      20.047001      20.857         19093.361      5867.7711      6873.4083      4726.1014      271.77352      1278.8198      920.01975    
  18935000   252.37431     -359.08467     -285.13073     -359.08438      0              3553.2307      45.611897      20.047001      20.857         19071.26       3781.4759      2959.0736      3919.1426      59.948882      220.55194      982.12954    
  18935500   249.53537     -358.23466     -285.11262     -358.23944      0              3378.0444      45.792968      20.047001      20.857         19146.97       3203.0144      3498.2235      3432.8952     -451.25887     -463.96545      1485.5164    
  18936000   255.95608     -360.03357     -285.03006     -360.01326      0              4700.8214      45.484692      20.047001      20.857         19018.073      4549.5655      5552.8901      4000.0084      1122.098       286.27557     -319.03197    
  18936500   249.64047     -357.75314     -284.60031     -357.74255      0              5627.3961      45.409584      20.047001      20.857         18986.669      8316.7867      3293.9174      5271.4842      1292.5446      964.98968      226.84524    
  18937000   244.6188      -357.24676     -285.56544     -357.23444      0              5231.6062      45.813354      20.047001      20.857         19155.493      7738.2871      4602.5348      3353.9966      667.832       -1870.823      -78.977679    
  18937500   246.65768     -357.85033     -285.57156     -357.84565      0              4790.0341      45.781588      20.047001      20.857         19142.211      6167.8172      2541.4588      5660.8265     -427.22671     -500.01733     -329.93723    
  18938000   244.67123     -357.00421     -285.30753     -356.99526      0              5071.3096      45.519879      20.047001      20.857         19032.785      5868.8681      5079.7351      4265.3257     -783.58074     -609.37116     -263.85105    
  18938500   246.5234      -357.19175     -284.95233     -357.17095      0              5332.2655      45.534765      20.047001      20.857         19039.01       5325.8285      5890.4758      4780.4921      1640.039       1178.4253      360.43804    
  18939000   247.15638     -357.92665     -285.50173     -357.90782      0              3406.4033      45.660762      20.047001      20.857         19091.692      4372.4594      2203.4385      3643.3118      66.340677     -335.29912     -544.20549    
  18939500   239.09311     -356.91155     -286.84944     -356.89188      0              4475.0355      45.636224      20.047001      20.857         19081.432      4949.9535      4681.907       3793.2462     -481.80903     -1136.5036     -1678.1987    
  18940000   252.98989     -357.84771     -283.71339     -357.82639      0              4295.2372      45.623308      20.047001      20.857         19076.031      5044.623       5019.3386      2821.7499      996.73378     -1906.7008     -549.49977    
  18940500   252.45751     -357.04351     -283.06519     -357.02534      0              5093.6663      45.77375       20.047001      20.857         19138.934      6570.4757      4265.0186      4445.5047     -648.49673     -838.59947     -439.5415     
  18941000   251.54584     -357.1993      -283.48814     -357.18027      0              5502.6002      45.699733      20.047001      20.857         19107.986      6148.0073      6885.7865      3474.0067     -244.78854     -12.812932     -595.49945    
  18941500   250.54492     -358.28302     -284.86515     -358.26889      0              6341.3868      45.623961      20.047001      20.857         19076.304      8528.1946      5697.3327      4798.6332     -531.44936      351.44522     -1053.8126    
  18942000   246.10169     -357.48453     -285.36867     -357.46185      0              6838.6324      45.446215      20.047001      20.857         19001.985      6483.9061      7565.7271      6466.2641      82.571873     -804.53502      1048.0962    
  18942500   248.52377     -357.34242     -284.51682     -357.33413      0              6287.7013      45.558082      20.047001      20.857         19048.759      7725.4846      3989.8182      7147.8012     -577.07174     -1303.3855     -256.13371    
  18943000   247.61162     -356.77117     -284.21286     -356.75793      0              4990.7777      45.621298      20.047001      20.857         19075.191      5763.3539      3671.0089      5537.9702     -31.364859     -1212.0678     -36.690518    
  18943500   249.8266      -359.22595     -286.01857     -359.22228      0              4066.555       45.615798      20.047001      20.857         19072.891      3439.9404      5718.4631      3041.2615     -1534.0776     -570.70791      304.21111    
  18944000   246.20913     -357.86911     -285.72177     -357.86198      0              5401.6037      45.283324      20.047001      20.857         18933.877      7351.702       5730.5784      3122.5307     -91.367575     -686.52859      213.82885    
  18944500   244.07798     -357.5534      -286.03056     -357.54325      0              5483.8364      45.232939      20.047001      20.857         18912.81       4082.4751      7103.4039      5265.6301     -976.3892      -1277.0574     -1137.1735    
  18945000   245.04375     -357.08211     -285.27627     -357.07586      0              4881.3882      45.478942      20.047001      20.857         19015.669      8197.6037      2817.1789      3629.3821      1765.8501     -1393.3202     -23.632877    
  18945500   248.22095     -358.21128     -285.47442     -358.20402      0              4430.8238      45.745406      20.047001      20.857         19127.083      2929.2527      5357.7287      5005.4899     -847.7561       1162.3509      258.78303    
  18946000   249.8573      -357.98967     -284.7733      -357.97111      0              6819.5392      45.550116      20.047001      20.857         19045.428      7766.0014      7152.5211      5540.0949      678.71257     -798.68188      48.625356    
  18946500   252.96237     -355.87374     -281.74748     -355.85026      0              6610.7735      45.381128      20.047001      20.857         18974.771      11516.892      3344.0922      4971.3358      760.61411      137.85945     -97.64089     
  18947000   249.29816     -358.60953     -285.55701     -358.60269      0              4995.2103      45.811122      20.047001      20.857         19154.56       4791.0526      6277.2679      3917.3105      22.002825     -634.56791      1249.4124    
  18947500   250.95879     -355.69422     -282.15508     -355.69818      0              7228.2946      45.559739      20.047001      20.857         19049.452      8064.4874      8941.8843      4678.5121      1104.6084     -381.38374     -1349.9873    
  18948000   251.68913     -357.77258     -284.01943     -357.75492      0              5208.4479      45.415299      20.047001      20.857         18989.058      8046.0855      4568.977       3010.2813     -1490.4318     -1892.2318     -1744.9597    
  18948500   253.44037     -357.84193     -283.5756      -357.82283      0              6154.9851      45.836925      20.047001      20.857         19165.349      8321.4246      4723.1755      5420.3553     -339.61726      34.238359      284.29586    
  18949000   258.59004     -358.97285     -283.1975      -358.96182      0              6400.7617      45.866237      20.047001      20.857         19177.605      8305.5978      4820.6306      6076.0567      184.88548     -429.76731      131.30449    
  18949500   250.9271      -356.33892     -282.80906     -356.32537      0              4928.169       45.389567      20.047001      20.857         18978.299      4623.5773      5646.2765      4514.6531      408.60911     -723.80481      114.81902    
  18950000   252.01024     -358.153       -284.30575     -358.1262       0              5487.7592      45.298256      20.047001      20.857         18940.12       7654.0765      2904.3758      5904.8252      361.97841     -574.14415      2458.092     
  18950500   245.0735      -356.58845     -284.77389     -356.56903      0              4469.1365      45.559073      20.047001      20.857         19049.173      7342.5305      3726.6815      2338.1975     -430.49241     -422.15106     -157.91542    
  18951000   254.44988     -359.51953     -284.95738     -359.50001      0              2514.1714      45.598769      20.047001      20.857         19065.771      4704.2891      268.46392      2569.7611     -848.35048     -1123.3089     -946.93844    
  18951500   240.76689     -356.41699     -285.86441     -356.40898      0              5180.8991      45.320961      20.047001      20.857         18949.614      6243.9258      5775.2614      3523.51        548.97594     -275.92468      2187.5127    
  18952000   254.4343      -358.14111     -283.58352     -358.13086      0              4898.9085      45.104185      20.047001      20.857         18858.975      5432.4207      4344.6008      4919.7039      255.64947      730.42451     -1208.9141    
  18952500   250.07491     -358.34065     -285.06051     -358.31835      0              3783.3747      45.402493      20.047001      20.857         18983.704      6224.8111      3346.8965      1778.4164     -819.2988      -1145.8245     -1738.053     
  18953000   243.69102     -357.89967     -286.49022     -357.89084      0              5664.8112      45.62038       20.047001      20.857         19074.807      6140.0433      6151.3211      4703.0692      1486.0181     -2215.2006      1708.0669    
  18953500   244.71596     -357.48292     -285.77313     -357.47306      0              6671.6462      45.318305      20.047001      20.857         18948.503      10756.602      4368.7372      4889.5999     -1010.0429     -427.82595      108.67924    
  18954000   244.64102     -356.21904     -284.53121     -356.19821      0              3534.9246      45.359819      20.047001      20.857         18965.861      5664.5996      2558.5034      2381.6707     -147.12707     -775.04199      136.89081    
  18954500   253.30969     -358.79068     -284.56264     -358.7731       0              3721.0114      45.677552      20.047001      20.857         19098.712      4893.3111      2820.6836      3449.0394      93.709886     -622.83451      15.774094    
  18955000   251.65334     -357.89565     -284.15298     -357.87786      0              5417.4358      45.299375      20.047001      20.857         18940.588      5906.1824      4666.7463      5679.3787      588.60846     -944.06222     -211.68997    
  18955500   255.09675     -357.5915      -282.8398      -357.58555      0              5457.2613      45.29293       20.047001      20.857         18937.894      6873.0131      3292.693       6206.0779      145.90716     -2225.6901     -445.60487    
  18956000   251.37668     -356.18785     -282.52625     -356.17596      0              6922.0286      45.593981      20.047001      20.857         19063.769      6954.0876      7336.3843      6475.6139     -590.13069      1280.1075     -1171.5816    
  18956500   249.75515     -356.46506     -283.27862     -356.46073      0              5897.4641      45.574507      20.047001      20.857         19055.626      7323.4919      4395.5616      5973.339      -1681.3219     -184.57791     -884.18206    
  18957000   240.5409      -356.83678     -286.35042     -356.82567      0              5232.0907      45.529555      20.047001      20.857         19036.831      5854.5058      5016.9219      4824.8444      689.4931      -1440.709      -699.79741    
  18957500   250.86491     -357.86483     -284.35319     -357.84672      0              6174.9042      45.423416      20.047001      20.857         18992.452      8209.5319      5024.0495      5291.1312     -372.69478      203.69007      873.70164    
  18958000   250.71016     -359.42685     -285.96056     -359.41076      0              6097.4594      45.461103      20.047001      20.857         19008.21       5373.456       6748.0483      6170.8739     -494.40427      1286.5135      151.80179    
  18958500   241.38282     -358.92215     -288.18907     -358.90756      0              3583.2448      45.469277      20.047001      20.857         19011.628      3301.1475      6316.5156      1132.0712     -1603.604      -730.37121     -375.01428    
  18959000   247.30572     -358.6042      -286.13552     -358.58949      0              5391.0668      45.462702      20.047001      20.857         19008.879      5882.8317      5805.2857      4485.083       367.2002       843.37624     -1509.7818    
  18959500   249.67334     -357.60939     -284.44693     -357.59237      0              4292.2308      45.599058      20.047001      20.857         19065.892      6790.1981      2807.7215      3278.7728     -477.01069      433.89375     -1002.6248    
  18960000   249.1929      -356.33908     -283.3174      -356.31967      0              4201.2651      45.486025      20.047001      20.857         19018.63       4721.2759      4498.7854      3383.7339     -286.60529     -1003.6208     -1605.9934    
  18960500   253.08696     -358.82071     -284.65795     -358.81193      0              5985.2248      45.394507      20.047001      20.857         18980.365      7406.6916      4793.8137      5755.1691     -797.28957     -648.57603      166.90541    
  18961000   244.7807      -356.96341     -285.23465     -356.9582       0              4579.9338      45.575195      20.047001      20.857         19055.914      5518.0442      4707.3471      3514.41        1.9856466     -521.72367      195.77394    
  18961500   250.29607     -359.00031     -285.65536     -358.98011      0              2746.2373      45.623792      20.047001      20.857         19076.233      3824.82        1976.9104      2436.9814     -344.43058      187.00867     -2144.3375    
  18962000   246.00598     -357.3254      -285.23759     -357.30876      0              3984.2533      45.397042      20.047001      20.857         18981.425      3209.2766      4342.1377      4401.3458      741.07219     -153.67125      501.58607    
  18962500   249.04698     -357.0378      -284.05888     -357.02409      0              5747.272       45.114713      20.047001      20.857         18863.377      8343.109       4407.4769      4491.2301     -949.10612     -503.27179     -762.70447    
  18963000   247.92484     -357.68775     -285.03765     -357.66152      0              5716.3617      45.159759      20.047001      20.857         18882.212      6036.8875      5891.2194      5220.9782      508.06918     -394.43334     -1478.1746    
  18963500   253.49821     -358.07336     -283.79008     -358.05665      0              3844.8948      45.587205      20.047001      20.857         19060.936      5803.6718      2151.8366      3579.176       570.68834      1089.8122      1937.487     
  18964000   249.16364     -359.45889     -286.44578     -359.43843      0              5856.5745      45.540669      20.047001      20.857         19041.478      6367.9314      4416.4824      6785.3097      12.330836     -69.006891     -1484.364     
  18964500   255.11504     -360.19868     -285.44162     -360.17854      0              6770.6133      45.290149      20.047001      20.857         18936.731      8862.7651      5482.5396      5966.5353     -82.526114     -843.38255      525.38832    
  18965000   252.87356     -359.23196     -285.13172     -359.22         0              6492.4319      45.561915      20.047001      20.857         19050.362      6494.0498      6663.2741      6319.9717     -991.20159      461.57396      375.89255    
  18965500   256.01412     -360.25108     -285.23056     -360.2418       0              4128.1679      45.897433      20.047001      20.857         19190.649      6610.1691      3591.6         2182.7346     -175.96277     -1125.7123     -582.12529    
  18966000   253.96431     -357.30851     -282.88865     -357.2985       0              4663.2185      45.751612      20.047001      20.857         19129.678      4103.7686      4253.6494      5632.2376     -521.75447     -1981.9391     -310.75529    
  18966500   246.89383     -357.47512     -285.12715     -357.4576       0              4058.5447      45.667895      20.047001      20.857         19094.674      6354.3276      3554.8743      2266.4323     -780.68989     -555.95907      1342.4629    
  18967000   248.65766     -356.0426      -283.17776     -356.03098      0              3475.2069      45.641333      20.047001      20.857         19083.568      4477.3337      4857.7791      1090.5079     -685.39572     -202.68803      593.73619    
  18967500   250.25117     -360.29189     -286.96011     -360.2744       0              2601.0834      45.713766      20.047001      20.857         19113.854      1883.7611      3626.845       2292.6443      1785.1426     -53.228679      1235.1107    
  18968000   242.77302     -356.5255      -285.38506     -356.51932      0              5599.1614      45.764144      20.047001      20.857         19134.918      8084.7989      5142.057       3570.6283     -550.69709      808.00348     -2002.0555    
  18968500   247.7592      -358.19143     -285.58987     -358.18275      0              5679.1677      45.492969      20.047001      20.857         19021.534      6879.4779      6601.1441      3556.8812     -600.27452     -1738.9471      356.92561    
  18969000   253.36453     -360.67631     -286.43221     -360.66583      0              5438.6262      45.288276      20.047001      20.857         18935.947      5951.0267      6080.6611      4284.1909      1256.2495     -841.61309      638.89812    
  18969500   249.28428     -358.35328     -285.30482     -358.34147      0              2252.0486      45.638577      20.047001      20.857         19082.415      3608.9189      2450.2541      696.97267     -351.97434     -880.91767      285.61126    
  18970000   252.78225     -360.07582     -286.00234     -360.05924      0              4952.2491      46.063717      20.047001      20.857         19260.175      6638.8757      5242.9878      2974.8837     -870.01734     -3095.2649     -2046.047     
  18970500   243.71004     -354.71172     -283.2967      -354.70504      0              6327.4662      45.612041      20.047001      20.857         19071.32       7393.7723      4743.9563      6844.6699      508.17886      1008.0585      1010.5005    
  18971000   250.32468     -358.64746     -285.29413     -358.63032      0              5235.6293      45.217306      20.047001      20.857         18906.274      8699.9513      3621.2774      3385.6593     -2521.7636      960.52088      842.86351    
  18971500   254.95738     -358.75547     -284.04461     -358.73946      0              3597.5011      45.563377      20.047001      20.857         19050.973      4269.5137      3560.4103      2962.5793      1058.2578      2397.2872     -1348.6641    
  18972000   247.01059     -361.05559     -288.6734      -361.04473      0              6760.9527      45.646146      20.047001      20.857         19085.58       6908.3589      6049.8638      7324.6353      10.910617      358.6446      -1147.7268    
  18972500   245.97839     -361.18908     -289.10936     -361.17251      0              5931.5561      45.484747      20.047001      20.857         19018.096      5720.686       6089.4434      5984.5389     -607.58092     -277.19914     -709.91982    
  18973000   247.49684     -358.95054     -286.42586     -358.94328      0              4696.1124      45.605731      20.047001      20.857         19068.682      6202.7207      5042.7549      2842.8614     -1656.4462     -1912.7053     -1043.7596    
  18973500   257.74106     -359.34425     -283.81768     -359.33462      0              4617.8676      45.631623      20.047001      20.857         19079.508      7282.653       3316.0309      3254.9188      341.92189     -206.74144     -329.62324    
  18974000   251.97379     -357.76194     -283.92536     -357.752        0              7024.6449      45.614048      20.047001      20.857         19072.16       7594.8545      6564.2718      6914.8083      87.307037     -347.86756     -810.41554    
  18974500   243.49381     -356.30807     -284.95641     -356.29428      0              4709.9293      45.473408      20.047001      20.857         19013.355      5039.4882      6457.701       2632.5988      116.07581      1301.8456     -838.01411    
  18975000   246.88321     -359.01406     -286.66919     -358.99359      0              7854.7818      45.347059      20.047001      20.857         18960.526      7570.1674      9958.9904      6035.1876      916.48726     -460.8082       531.93859    
  18975500   252.09936     -358.14283     -284.26947     -358.1464       0              6391.1782      45.574955      20.047001      20.857         19055.814      7733.4229      5969.3645      5470.7474     -359.2579       108.07484     -203.17728    
  18976000   240.04119     -358.42339     -288.08346     -358.42636      0              4617.957       45.860674      20.047001      20.857         19175.279      5822.681       4569.9702      3461.2198      57.170864      551.74386     -1685.2385    
  18976500   247.88363     -359.29395     -286.65593     -359.28454      0              6543.5673      45.519563      20.047001      20.857         19032.653      8110.8598      5829.4672      5690.3748     -613.65147      1148.8616     -1069.2107    
  18977000   246.08415     -357.97592     -285.86521     -357.96475      0              6146.604       45.326532      20.047001      20.857         18951.943      8223.7186      6186.9058      4029.1876     -795.19354     -319.76843     -152.35971    
  18977500   246.70098     -357.79966     -285.50819     -357.78319      0              8920.8547      45.631725      20.047001      20.857         19079.551      8360.7826      8922.5873      9479.1944     -970.76181      174.27103     -278.92593    
  18978000   249.52611     -357.75104     -284.63171     -357.74981      0              2133.228       45.834506      20.047001      20.857         19164.337      2760.9077      1663.4396      1975.3367      228.68735     -1123.0301      7.6698571    
  18978500   255.4964      -356.92196     -282.05315     -356.91215      0              6184.9127      45.419394      20.047001      20.857         18990.771      6957.9891      5666.8988      5929.8502     -917.92916     -716.88442      919.59712    
  18979000   250.4828      -356.97251     -283.57285     -356.97144      0              5135.6106      45.431438      20.047001      20.857         18995.807      5887.4965      3433.733       6085.6024     -908.80771      2132.5039      353.44057    
  18979500   252.65595     -360.89338     -286.85691     -360.88583      0              4909.7297      45.621665      20.047001      20.857         19075.344      7835.8345      2899.0249      3994.3297      618.00743      1069.9772      179.66942    
  18980000   248.05582     -362.99641     -290.30793     -362.97623      0              6996.0119      45.602195      20.047001      20.857         19067.204      7388.7015      6575.8437      7023.4907     -316.46996      546.40351      1027.8951    
  18980500   249.01182     -358.46331     -285.49469     -358.45807      0              5015.5524      45.43216       20.047001      20.857         18996.108      5584.0933      4746.8931      4715.6709      1248.6354     -156.04346     -834.1048     
  18981000   253.95324     -359.43515     -285.01854     -359.41612      0              5313.2618      45.540398      20.047001      20.857         19041.365      4692.8224      6041.6928      5205.2701     -322.18392      1580.1423      1484.7397    
  18981500   258.53281     -360.16912     -284.41054     -360.14818      0              4040.5985      45.716117      20.047001      20.857         19114.836      5276.2646      3699.8526      3145.6783     -1113.6954      1209.3986      480.18724    
  18982000   250.12796     -359.57003     -286.27434     -359.55521      0              4786.9462      45.642754      20.047001      20.857         19084.162      6464.6086      3403.2246      4493.0053     -849.06528      620.43266      391.10391    
  18982500   249.10943     -359.67818     -286.68096     -359.67308      0              4837.2916      45.518462      20.047001      20.857         19032.193      5854.152       4630.892       4026.8309     -820.30916      864.17076      122.36716    
  18983000   253.5326      -360.14446     -285.85111     -360.13444      0              5743.2281      45.39806       20.047001      20.857         18981.85       6246.8063      6138.1005      4844.7775     -78.112553     -922.89572      1053.7794    
  18983500   253.15189     -357.87124     -283.68944     -357.86433      0              4262.6269      45.520571      20.047001      20.857         19033.075      6744.8222      4985.4241      1057.6343     -557.30482      428.26613     -174.72882    
  18984000   247.10301     -356.93891     -284.52964     -356.93723      0              5047.9826      45.746834      20.047001      20.857         19127.68       7034.7811      4716.4944      3392.6723      474.98826     -675.93975     -143.98595    
  18984500   254.81386     -358.98571     -284.3169      -358.97859      0              7291.0425      45.610037      20.047001      20.857         19070.482      8562.0718      6345.7323      6965.3235     -1275.6046      387.11372      550.69967    
  18985000   250.3432      -358.02118     -284.66243     -358.01418      0              7269.2872      45.399468      20.047001      20.857         18982.439      8519.7283      5879.0525      7409.081       762.49131     -77.082196      1521.9707    
  18985500   250.45329     -358.19958     -284.80857     -358.1901       0              5937.8622      45.607313      20.047001      20.857         19069.343      7136.4869      5181.2979      5495.8019      614.8616       1847.732       13.2581      
  18986000   250.01829     -359.47764     -286.2141      -359.45708      0              5483.5016      45.75058       20.047001      20.857         19129.246      6437.3212      4359.017       5654.1666      1253.7654     -199.89924      1294.6438    
  18986500   249.84044     -359.36439     -286.15296     -359.34599      0              6867.073       45.665343      20.047001      20.857         19093.607      8568.0422      7609.6941      4423.4828     -294.05207      246.88485     -4185.6144    
  18987000   254.07625     -361.61039     -287.15772     -361.58659      0              6026.6134      45.506515      20.047001      20.857         19027.198      5470.439       5947.308       6662.0932     -610.02785     -606.99498      1191.3724    
[...]
  21710500   248.07159     -358.45055     -285.75745     -358.43747      0              5378.9042      45.179078      20.047001      20.857         18890.29       9459.5174      3045.9         3631.2951      1116.6385      1254.8472     -475.60269    
  21711000   247.74708     -359.24214     -286.64413     -359.24723      0              6508.6995      45.467935      20.047001      20.857         19011.067      8085.2602      5086.7036      6354.1348     -224.14676      1007.0302     -71.844383    
  21711500   249.89298     -363.34911     -290.12228     -363.33193      0              4448.4309      45.483548      20.047001      20.857         19017.595      5330.7061      4248.2875      3766.2992      344.42086     -402.04874     -491.21326    
  21712000   252.04011     -359.54832     -285.69231     -359.5296       0              5005.3564      45.459322      20.047001      20.857         19007.465      6028.7307      4834.2854      4153.0531      402.54856     -991.08592     -630.23213    
  21712500   248.74803     -359.38515     -286.49383     -359.37857      0              5375.4715      45.482629      20.047001      20.857         19017.21       5105.8429      6512.5992      4507.9725      460.57367     -9.550248      -263.7511     
  21713000   245.47511     -359.91252     -287.98027     -359.90222      0              4471.0525      45.368598      20.047001      20.857         18969.532      6874.7849      3101.2071      3437.1653      1544.6407     -829.0144       859.09089    
  21713500   244.18489     -358.03814     -286.48397     -358.03254      0              4899.0704      45.217133      20.047001      20.857         18906.201      5214.5953      6350.4701      3132.1458     -343.39009     -547.9928      -861.03111    
  21714000   247.43185     -362.20159     -289.69596     -362.18333      0              5329.305       45.121472      20.047001      20.857         18866.203      7407.865       3724.8735      4855.1764      399.61343      443.67015      542.41807    
  21714500   249.95373     -360.67327     -287.42864     -360.67292      0              3849.1268      45.391564      20.047001      20.857         18979.134      4628.5276      4208.2505      2710.6023      815.91053     -383.1713       1475.9901    
  21715000   248.05092     -358.67887     -285.99183     -358.66463      0              4979.3526      45.525513      20.047001      20.857         19035.141      5977.604       2454.1323      6506.3215     -899.0478      -2079.4885      2596.4111    
  21715500   255.47771     -359.90794     -285.04461     -359.90954      0              6317.906       45.300172      20.047001      20.857         18940.921      6794.7106      7409.1982      4749.8093      1129.8549      1387.2489      751.56444    
  21716000   246.31368     -357.27205     -285.09407     -357.26622      0              7060.983       44.878476      20.047001      20.857         18764.602      9386.0474      7085.5675      4711.3342     -1158.8448      642.21295     -262.75473    
  21716500   246.22876     -360.29424     -288.14115     -360.28699      0              4613.0406      45.321848      20.047001      20.857         18949.985      4556.5088      5243.4516      4039.1616      2069.1118     -136.34054      1931.6098    
  21717000   253.63327     -360.97057     -286.64772     -360.95714      0              5514.3735      45.553972      20.047001      20.857         19047.04       5212.9319      7716.0133      3614.1755      333.2859      -140.98261      137.81147    
  21717500   254.19335     -359.4603      -284.97333     -359.4421       0              3918.2299      45.02119       20.047001      20.857         18824.273      4948.6708      3944.5534      2861.4656     -1365.5007     -1461.5839      1139.0589    
  21718000   249.78008     -361.32122     -288.12748     -361.3018       0              4350.6245      45.048943      20.047001      20.857         18835.878      3797.6735      4132.082       5122.1179     -216.6361       1617.2258     -902.52146    
  21718500   252.38353     -359.0749      -285.11827     -359.07474      0              6258.5955      45.343933      20.047001      20.857         18959.219      4840.5925      9320.4698      4614.7242     -1116.3807      631.05478     -394.43085    
  21719000   262.85868     -357.91193     -280.88573     -357.9051       0              5361.7472      45.360893      20.047001      20.857         18966.31       6313.5577      4746.2996      5025.3843     -41.522337     -540.96243     -1545.4041    
  21719500   250.20062     -357.11124     -283.79426     -357.10467      0              4288.7707      45.373747      20.047001      20.857         18971.685      8300.0696      1595.2716      2970.971      -2027.5334     -175.18415     -1232.265     
  21720000   248.7707      -358.4248      -285.52684     -358.41678      0              6889.2211      45.465457      20.047001      20.857         19010.03       8047.042       7130.8521      5489.7693      176.94921      187.30846     -645.55354    
  21720500   245.09998     -358.41864     -286.59632     -358.41914      0              2552.6597      45.469515      20.047001      20.857         19011.727      3433.1901      2284.9624      1939.8266     -1327.1053     -855.89757     -30.864277    
  21721000   246.56218     -356.68514     -284.43435     -356.67798      0              7686.2146      45.269581      20.047001      20.857         18928.131      8422.8084      8456.9131      6178.9224      231.45291     -84.512507      235.83195    
  21721500   254.14917     -359.65175     -285.17772     -359.64283      0              4344.0039      45.470048      20.047001      20.857         19011.95       6042.2502      3545.4489      3444.3125      39.213877     -1613.5861     -311.05291    
  21722000   246.30379     -359.65823     -287.48316     -359.65535      0              4985.8268      45.325888      20.047001      20.857         18951.674      8035.4613      5786.6283      1135.3909     -1324.0687      1275.1409     -1169.1791    
  21722500   248.63968     -361.34987     -288.4903      -361.34461      0              8038.6821      45.275361      20.047001      20.857         18930.548      11412.814      7671.8556      5031.3762     -729.88161     -641.53693      784.93832    
  21723000   249.85436     -360.14705     -286.93154     -360.1413       0              5109.3256      45.331757      20.047001      20.857         18954.128      6798.2596      4047.9944      4481.7228     -599.8433      -121.91986      730.34048    
  21723500   251.07527     -358.1196      -284.54632     -358.11606      0              5856.9596      45.479019      20.047001      20.857         19015.701      5840.3031      6073.2459      5657.3298      257.48307      844.35189     -2035.2978    
  21724000   251.2539      -357.76417     -284.13855     -357.75765      0              5510.3504      45.668924      20.047001      20.857         19095.104      7342.9318      6811.8861      2376.2334      18.37885      -869.66387     -854.03444    
  21724500   247.65507     -358.06468     -285.49364     -358.06101      0              4419.3448      45.553915      20.047001      20.857         19047.017      5748.8852      4714.6517      2794.4976     -1373.8079     -475.54119     -233.18019    
  21725000   252.1332      -358.25994     -284.37665     -358.25969      0              5232.3799      45.274453      20.047001      20.857         18930.168      7554.1546      4930.0433      3212.942       1106.4242     -1808.8102     -53.029053    
  21725500   253.03147     -361.09179     -286.94529     -361.08373      0              3255.58        45.505194      20.047001      20.857         19026.645      863.15622      4766.3826      4137.2013     -734.08051     -391.42701     -437.52124    
  21726000   245.4541      -357.3653      -285.43921     -357.36635      0              4851.4244      45.66995       20.047001      20.857         19095.533      6130.0119      5301.2491      3123.0122      20.964306     -2003.8982     -321.86802    
  21726500   250.36327     -360.80024     -287.4356      -360.78878      0              6930.8328      45.273982      20.047001      20.857         18929.971      8485.2855      6985.7595      5321.4533     -950.12665     -2470.0499     -570.21873    
  21727000   247.62904     -359.27685     -286.71343     -359.25875      0              6786.5997      45.171616      20.047001      20.857         18887.17       8810.8043      5894.7632      5654.2317     -815.53057      230.5074       22.330323    
  21727500   245.68901     -359.19216     -287.19723     -359.19173      0              4702.4666      45.552745      20.047001      20.857         19046.527      5323.8576      4137.1958      4646.3464     -656.2437      -716.45323      1005.5409    
  21728000   255.63702     -359.9035      -284.99348     -359.89999      0              5736.001       45.660117      20.047001      20.857         19091.422      7121.4153      4845.1792      5241.4086     -716.45229     -255.10486     -1117.8334    
  21728500   251.50938     -359.35105     -285.65057     -359.33614      0              4815.1553      45.522765      20.047001      20.857         19033.992      3855.5871      5923.9362      4665.9426     -190.93161     -76.22688      -602.11709    
  21729000   249.80386     -359.45261     -286.25189     -359.44392      0              4302.3019      45.346938      20.047001      20.857         18960.475      5432.4596      4085.5163      3388.9299     -1001.0728      399.98309      103.86256    
  21729500   249.28113     -361.61363     -288.56609     -361.6021       0              7494.518       45.496244      20.047001      20.857         19022.903      9425.7845      6517.7777      6539.9917      1347.6744     -444.4559       2459.8336    
  21730000   248.03201     -358.73214     -286.05064     -358.72688      0              5541.7927      45.468         20.047001      20.857         19011.094      6770.0604      5081.2607      4774.0571     -1119.2086     -1943.1012     -754.00019    
  21730500   248.35264     -359.09106     -286.3156      -359.09008      0              6273.9969      45.540928      20.047001      20.857         19041.586      7449.5369      7533.2815      3839.1722     -485.40994     -1389.5952     -824.11738    
  21731000   240.1736      -359.59366     -289.21493     -359.58996      0              5684.4769      45.538277      20.047001      20.857         19040.478      5324.4321      8609.983       3119.0155     -172.8502      -2633.0182      1293.8529    
  21731500   241.80051     -359.92457     -289.0691      -359.91064      0              7360.2434      45.177689      20.047001      20.857         18889.709      9355.5376      4534.6616      8190.5311     -113.94888     -2560.4527     -249.90301    
  21732000   256.4404      -359.06898     -283.92354     -359.05709      0              5164.752       45.368237      20.047001      20.857         18969.381      5034.1024      5769.0975      4691.056      -906.41371     -1266.7539      875.51863    
  21732500   251.65336     -356.23468     -282.49201     -356.24098      0              4378.2202      45.616898      20.047001      20.857         19073.351      1810.0273      5587.4787      5737.1548      590.53384      1280.3338      908.89914    
  21733000   253.83345     -359.36823     -284.98672     -359.36861      0              5534.8104      45.323292      20.047001      20.857         18950.588      6663.0078      6194.4888      3746.9346      475.88592     -80.795866      544.06597    
  21733500   248.93793     -357.8278      -284.88083     -357.81636      0              5009.1281      45.259353      20.047001      20.857         18923.854      5971.6122      5119.8666      3935.9055     -1192.0285     -40.517944      1701.0688    
  21734000   247.70322     -358.55796     -285.9728      -358.55236      0              6822.7851      45.416225      20.047001      20.857         18989.445      5443.3929      7077.7159      7947.2464      367.09401     -1753.146      -842.88656    
  21734500   256.18039     -359.16827     -284.09903     -359.1595       0              5406.1492      45.374489      20.047001      20.857         18971.995      4151.0835      5465.9088      6601.4551     -726.814       -586.12502     -1037.3042    
  21735000   246.02365     -357.2472      -285.15421     -357.23919      0              4006.0977      45.301648      20.047001      20.857         18941.539      3437.6146      5561.4116      3019.2668     -303.71294      1307.1155     -860.44866    
  21735500   247.98386     -356.63397     -283.96658     -356.62756      0              6269.8679      45.406084      20.047001      20.857         18985.205      8346.9886      5642.1131      4820.502      -367.54923      625.97408      578.08331    
  21736000   248.17219     -360.12599     -287.40341     -360.12718      0              6711.7991      45.538119      20.047001      20.857         19040.412      8172.251       7167.7112      4795.4352      71.847397      587.09748      1519.4316    
  21736500   245.38184     -359.85601     -287.9511      -359.85863      0              5454.0351      45.309329      20.047001      20.857         18944.75       5980.3266      6169.7832      4211.9955      190.88607      2025.1432      194.41086    
  21737000   256.37758     -359.51369     -284.38667     -359.51654      0              8273.1024      45.121471      20.047001      20.857         18866.203      8193.1259      9395.3867      7230.7948     -720.339        833.60451      1253.304     
  21737500   247.82606     -359.10555     -286.4844      -359.10799      0              3785.8         45.415468      20.047001      20.857         18989.129      4107.2879      5208.1279      2041.9842     -509.88127     -794.51719     -1904.8293    
  21738000   248.14834     -359.94658     -287.23099     -359.94046      0              4602.7511      45.403904      20.047001      20.857         18984.294      6641.9966      2578.8016      4587.4552      705.20826      2278.5517     -186.83885    
  21738500   242.14875     -361.00522     -290.0477      -361.00422      0              6328.499       45.579269      20.047001      20.857         19057.618      9296.5755      6619.4563      3069.4651     -578.66912      711.61229     -1329.1057    
  21739000   249.68937     -357.97851     -284.81135     -357.97044      0              5783.9115      45.415498      20.047001      20.857         18989.142      7682.6122      4921.1147      4748.0076     -758.89512     -973.87535     -269.87668    
  21739500   250.90148     -358.24984     -284.72749     -358.24789      0              4479.2834      45.348096      20.047001      20.857         18960.96       3309.6629      5724.7759      4403.4114     -208.52779      5.7436743     -839.69805    
  21740000   245.50487     -358.99076     -287.04979     -358.9898       0              4773.2343      45.597899      20.047001      20.857         19065.407      6975.4875      3265.3692      4078.8462      423.07553      347.10489      2073.0585    
  21740500   261.21584     -358.54273     -281.99794     -358.54335      0              4747.0899      45.607305      20.047001      20.857         19069.34       4048.5867      5005.988       5186.695       227.02074      23.632565     -454.96025    
  21741000   251.88933     -357.74199     -283.93017     -357.74439      0              4403.0335      45.422322      20.047001      20.857         18991.995      5640.6968      4357.5447      3210.859       116.5338      -2078.1811      1032.6273    
  21741500   257.47401     -355.15346     -279.70514     -355.15542      0              7214.6349      45.377111      20.047001      20.857         18973.091      6071.5082      8507.4962      7064.9004     -269.33191      139.48465     -1140.0456    
  21742000   250.62697     -357.49417     -284.05226     -357.49076      0              6451.9819      45.563138      20.047001      20.857         19050.873      7036.1801      5716.3954      6603.3701      51.181141      1822.5881     -1265.3897    
  21742500   244.15026     -357.70586     -286.16184     -357.71209      0              5295.1638      45.497564      20.047001      20.857         19023.455      5549.0693      5170.7796      5165.6426     -673.15946     -1184.8342     -1215.4034    
  21743000   252.43575     -358.56613     -284.59419     -358.55889      0              5757.1255      45.411006      20.047001      20.857         18987.263      7196.1372      4284.7699      5790.4694     -253.53362     -930.77543     -319.08517    
  21743500   246.91334     -359.07354     -286.71984     -359.07508      0              3934.491       45.396701      20.047001      20.857         18981.282      3174.8952      7923.995       704.58277     -1851.2851      1139.0532     -2001.935     
  21744000   250.34924     -359.08427     -285.72374     -359.08126      0              4894.0565      45.419163      20.047001      20.857         18990.674      3043.6444      5879.5582      5758.967      -893.14571      79.570389      1011.0772    
  21744500   248.41314     -358.77662     -285.98343     -358.77969      0              6110.9359      45.422091      20.047001      20.857         18991.898      7176.4575      8525.9729      2630.3773     -558.95939     -1419.1822      243.97903    
  21745000   247.46234     -358.45046     -285.93589     -358.44189      0              4168.0756      45.350771      20.047001      20.857         18962.078      6075.67        3911.7337      2516.8231     -622.30887     -1451.6266      979.46293    
  21745500   251.29973     -359.88891     -286.24986     -359.87795      0              4934.9011      45.511258      20.047001      20.857         19029.181      4445.6671      4602.8209      5756.2152      784.21705     -501.83714     -900.95833    
  21746000   253.35113     -357.97055     -283.73037     -357.96624      0              4840.9713      45.569158      20.047001      20.857         19053.39       4774.1763      5356.6212      4392.1163     -404.05363     -1909.0251     -1401.6517    
  21746500   255.1981      -357.07471     -282.29331     -357.07687      0              5503.8283      45.494671      20.047001      20.857         19022.245      10111.926      3250.0953      3149.4633     -135.13037      275.62411     -576.10654    
  21747000   255.61213     -358.17378     -283.27105     -358.17726      0              6195.47        45.229145      20.047001      20.857         18911.224      4901.6001      6608.2861      7076.5238     -1095.3705      1966.8372      430.1615     
  21747500   249.86708     -358.76952     -285.55029     -358.76453      0              5486.5884      45.338223      20.047001      20.857         18956.831      5774.3562      6132.9123      4552.4969      616.58554      1535.2513     -798.37689    
  21748000   245.7756      -358.51262     -286.49232     -358.51821      0              4365.9366      45.614528      20.047001      20.857         19072.36       3731.0602      5674.0216      3692.7281      883.98706     -104.06665      114.3297     
  21748500   253.60474     -358.85819     -284.5437      -358.85108      0              5362.794       45.448284      20.047001      20.857         19002.85       7435.0183      3540.5325      5112.8313     -1720.7336      723.72226     -33.424278    
  21749000   254.18968     -357.35673     -282.87083     -357.35122      0              6288.4951      45.424666      20.047001      20.857         18992.975      3262.7925      9588.274       6014.4189     -526.19145      418.72448      674.35629    
ERROR on proc 0: Cannot open restart file restart.lmp.0: Permission denied (../write_restart.cpp:233)
Last command: run             40000000 upto
