LAMMPS (23 Jun 2022)
echo both

include		in.partitions
variable        pid world 0
include		in.temp
variable	temperature equal 250.0
variable        tempDamp equal 0.100 # this is 0.1 ps
include		in.pressure
variable        pressure equal 6079.5
variable        pressureDamp equal 1.0 #this is 1ps
include		in.seed
variable        seed world 745823

units           metal
atom_style	full
read_restart	restart.lmp.${pid}
read_restart	restart.lmp.0
Reading restart file ...
  restart file = 23 Jun 2022, LAMMPS = 23 Jun 2022
  restoring atom style full from restart
  orthogonal box = (0.99559386 0 0) to (46.455105 20.047001 20.857)
  4 by 1 by 1 MPI processor grid
Summary of lammps deepmd module ...
  >>> Info of deepmd-kit:
  installed to:       /u/sigbjobo/software/DEEPMD_FROM_SOURCE/deepmd-kit/install
  source:             v2.1.3
  source branch:       master
  source commit:      5a32c49
  source commit at:   2022-07-01 09:52:58 +0800
  surpport model ver.:1.1 
  build float prec:   double
  build with tf inc:  /u/sigbjobo/software/DEEPMD_FROM_SOURCE/tensorflow/install/include;/u/sigbjobo/software/DEEPMD_FROM_SOURCE/tensorflow/install/include
  build with tf lib:  /u/sigbjobo/software/DEEPMD_FROM_SOURCE/tensorflow/install/lib/libtensorflow_cc.so;/u/sigbjobo/software/DEEPMD_FROM_SOURCE/tensorflow/install/lib/libtensorflow_framework.so
  set tf intra_op_parallelism_threads: 0
  set tf inter_op_parallelism_threads: 0
  >>> Info of lammps module:
  use deepmd-kit at:  /u/sigbjobo/software/DEEPMD_FROM_SOURCE/deepmd-kit/install
  source:             v2.1.3
  source branch:      master
  source commit:      5a32c49
  source commit at:   2022-07-01 09:52:58 +0800
  build float prec:   double
  build with tf inc:  /u/sigbjobo/software/DEEPMD_FROM_SOURCE/tensorflow/install/include;/u/sigbjobo/software/DEEPMD_FROM_SOURCE/tensorflow/install/include
  build with tf lib:  /u/sigbjobo/software/DEEPMD_FROM_SOURCE/tensorflow/install/lib/libtensorflow_cc.so;/u/sigbjobo/software/DEEPMD_FROM_SOURCE/tensorflow/install/lib/libtensorflow_framework.so
  restoring pair style deepmd from restart
  2268 atoms
Finding 1-2 1-3 1-4 neighbors ...
  special bond factors lj:    0        0        0       
  special bond factors coul:  0        0        0       
     0 = max # of 1-2 neighbors
     0 = max # of 1-3 neighbors
     0 = max # of 1-4 neighbors
     1 = max # of special neighbors
  special bonds CPU = 0.001 seconds
  read_restart CPU = 0.016 seconds
include 	in.setup
variable	out_freq equal 500
variable	out_freq2 equal 1000
variable	out_freq3 equal 5000

timestep        0.0005

neigh_modify    delay 7 every 1

include         in.deepmd
# This is deepMD model

# create groups ###
#group ox type 2
#group hy type 1

mass 2 15.999
mass 1 1.008

pair_style      deepmd ../graph.pb
pair_coeff      * *

bond_style      none
angle_style     none
dihedral_style  none
improper_style  none
neigh_modify exclude none


neighbor        2.0 bin
neigh_modify    every 10 delay 0 check no

thermo          ${out_freq}
thermo          500
thermo_style 	custom step temp pe etotal epair emol press lx ly lz vol pxx pyy pzz pxy pxz pyz
#thermo_modify	flush yes
restart 	${out_freq} restart.lmp.${pid} restart2.lmp.${pid}
restart 	500 restart.lmp.${pid} restart2.lmp.${pid}
restart 	500 restart.lmp.0 restart2.lmp.${pid}
restart 	500 restart.lmp.0 restart2.lmp.0

include		in.dump
dump            myDump all atom ${out_freq3} dump.water.${pid}
dump            myDump all atom 5000 dump.water.${pid}
dump            myDump all atom 5000 dump.water.0
dump            myDump2 all dcd ${out_freq2} dump.dcd.${pid}
dump            myDump2 all dcd 1000 dump.dcd.${pid}
dump            myDump2 all dcd 1000 dump.dcd.0
dump_modify     myDump append yes
dump_modify     myDump2 append yes


timer           timeout 23:50:00 every 1000
New timer settings: style=normal  mode=nosync  timeout=23:50:00

fix             1 all plumed plumedfile plumed.dat outfile plumed.out
fix             3 all nph x ${pressure} ${pressure} ${pressureDamp}
fix             3 all nph x 6079.5 ${pressure} ${pressureDamp}
fix             3 all nph x 6079.5 6079.5 ${pressureDamp}
fix             3 all nph x 6079.5 6079.5 1
Resetting global fix info from restart file:
  fix style: nph, fix ID: 3
fix             4 all temp/csvr ${temperature} ${temperature} ${tempDamp} ${seed}
fix             4 all temp/csvr 250 ${temperature} ${tempDamp} ${seed}
fix             4 all temp/csvr 250 250 ${tempDamp} ${seed}
fix             4 all temp/csvr 250 250 0.1 ${seed}
fix             4 all temp/csvr 250 250 0.1 745823
Resetting global fix info from restart file:
  fix style: temp/csvr, fix ID: 4

run             40000000 upto

CITE-CITE-CITE-CITE-CITE-CITE-CITE-CITE-CITE-CITE-CITE-CITE-CITE

Your simulation uses code contributions which should be cited:

- USER-DEEPMD package:

@article{Wang_ComputPhysCommun_2018_v228_p178,
  author = {Wang, Han and Zhang, Linfeng and Han, Jiequn and E, Weinan},
  doi = {10.1016/j.cpc.2018.03.016},
  url = {https://doi.org/10.1016/j.cpc.2018.03.016},
  year = 2018,
  month = {jul},
  publisher = {Elsevier {BV}},
  volume = 228,
  journal = {Comput. Phys. Commun.},
  title = {{DeePMD-kit: A deep learning package for many-body potential energy representation and molecular dynamics}},
  pages = {178--184}
}

CITE-CITE-CITE-CITE-CITE-CITE-CITE-CITE-CITE-CITE-CITE-CITE-CITE

Generated 0 of 1 mixed pair_coeff terms from geometric mixing rule
All restart file global fix info was re-assigned
Neighbor list info ...
  update every 10 steps, delay 0 steps, check no
  max neighbors/atom: 2000, page size: 100000
  master list distance cutoff = 8
  ghost atom cutoff = 8
  binsize = 4, bins = 12 6 6
  1 neighbor lists, perpetual/occasional/extra = 1 0 0
  (1) pair deepmd, perpetual
      attributes: full, newton on
      pair build: full/bin
      stencil: full/bin/3d
      bin: standard
Per MPI rank memory allocation (min/avg/max) = 6.151 | 6.153 | 6.156 Mbytes
   Step          Temp          PotEng         TotEng         E_pair         E_mol          Press            Lx             Ly             Lz           Volume          Pxx            Pyy            Pzz            Pxy            Pxz            Pyz      
  34997500   245.02801     -357.00614     -285.20491     -357.00614      0              5361.5908      45.459511      20.047001      20.857         19007.544      6588.7642      4893.6012      4602.4071      829.38102      1319.4125     -1441.427     
  34998000   253.5506      -357.63584     -283.33722     -357.64257      0              6695.9791      45.419462      20.047001      20.857         18990.799      6798.1013      6736.4188      6553.4172      810.54637     -975.55086     -1502.6771    
  34998500   248.43276     -357.77379     -284.97486     -357.78072      0              4342.4574      45.604359      20.047001      20.857         19068.108      4475.4977      4739.6739      3812.2007     -894.71181      2000.211       1365.6534    
  34999000   254.71077     -358.5016      -283.863       -358.50556      0              5729.5918      45.751513      20.047001      20.857         19129.637      5262.5782      5291.9503      6634.2468      467.23733     -411.60733     -167.6531     
  34999500   252.53473     -357.15373     -283.15279     -357.16078      0              5331.5814      45.488706      20.047001      20.857         19019.751      5461.1723      6973.9654      3559.6065     -27.857859      1459.2079     -382.86773    
  35000000   252.0144      -357.26447     -283.41599     -357.27143      0              3834.5354      45.520682      20.047001      20.857         19033.121      4807.1002      3888.0463      2808.4595      413.51386     -167.94263     -591.49881    
  35000500   248.28683     -357.56274     -284.80656     -357.56886      0              5166.1997      45.44016       20.047001      20.857         18999.454      7288.7234      4779.0614      3430.8143      561.83539     -719.66598     -1751.8012    
  35001000   252.29543     -359.18296     -285.25214     -359.19174      0              4346.3274      45.481302      20.047001      20.857         19016.656      3150.9699      4449.8771      5438.1352      49.278112      1269.8725      818.28514    
  35001500   247.0152      -353.82306     -281.43952     -353.82863      0              5164.2384      45.577228      20.047001      20.857         19056.764      6689.0362      5286.0448      3517.6341     -0.62412531    -767.93385      1025.1112    
  35002000   258.96032     -357.23543     -281.35157     -357.23975      0              6447.5894      45.525597      20.047001      20.857         19035.176      5688.438       8188.0209      5466.3093      901.82476      258.75035      913.79631    
  35002500   251.58404     -357.24724     -283.52488     -357.254        0              4935.7629      45.384476      20.047001      20.857         18976.171      5956.7354      4896.555       3953.9983      254.7903       1362.4907      193.66805    
  35003000   256.449       -358.19849     -283.05054     -358.20401      0              5684.1424      45.315779      20.047001      20.857         18947.447      3779.7141      8017.2135      5255.4996      2792.436       406.87159      799.26107    
  35003500   252.19681     -356.1798      -282.27787     -356.18476      0              6262.4744      45.047256      20.047001      20.857         18835.172      7216.6811      7416.7405      4154.0014     -518.69186     -928.79256      19.073152    
  35004000   247.9792      -355.85521     -283.18918     -355.86351      0              7878.4926      45.256933      20.047001      20.857         18922.843      5956.3697      10349.466      7329.6423      978.11908     -1902.3353      137.75008    
  35004500   244.18606     -354.3266      -282.77209     -354.33038      0              2605.4141      45.784709      20.047001      20.857         19143.516      3910.2577      1632.1116      2273.873      -2104.1122      2185.4559     -519.55174    
  35005000   252.2321      -357.60142     -283.68916     -357.60803      0              7306.0918      45.418023      20.047001      20.857         18990.197      7937.8653      6473.4148      7506.9955      54.236079      36.624332     -288.71679    
  35005500   244.09862     -357.79278     -286.26389     -357.79951      0              4641.4433      45.311709      20.047001      20.857         18945.745      6453.9065      2763.1272      4707.2963     -323.09371      408.32198      190.65895    
  35006000   251.69691     -359.45209     -285.69665     -359.45903      0              5779.446       45.494788      20.047001      20.857         19022.295      5860.9491      5500.4274      5976.9613     -43.710042      244.67765      289.68122    
  35006500   250.12294     -357.43961     -284.1454      -357.44744      0              5159.8054      45.614384      20.047001      20.857         19072.3        4249.4555      3787.459       7442.5017     -124.25157      297.20475     -165.30113    
  35007000   248.78207     -356.15765     -283.25635     -356.16592      0              5253.9414      45.606963      20.047001      20.857         19069.197      7006.5336      4931.715       3823.5757      362.97665     -602.44809      553.97016    
  35007500   254.62115     -357.4156      -282.80326     -357.4233       0              6704.0515      45.392221      20.047001      20.857         18979.409      8087.3957      5087.4095      6937.3494     -1141.0755      1281.8029      215.53762    
  35008000   249.4357      -356.75037     -283.65754     -356.75517      0              5099.7199      45.582491      20.047001      20.857         19058.965      5999.6212      3628.5252      5671.0132      416.97463      142.61046     -308.33382    
  35008500   252.60353     -355.66936     -281.64825     -355.67696      0              6789.8654      45.850106      20.047001      20.857         19170.86       7927.4338      5660.3187      6781.8438      498.27485     -297.94149      215.48247    
  35009000   246.61468     -356.38396     -284.11779     -356.39303      0              5935.9498      45.689204      20.047001      20.857         19103.583      4440.4085      6867.8055      6499.6355     -1165.5323      189.48357      16.907035    
  35009500   251.08131     -356.25246     -282.67741     -356.25927      0              4790.7009      45.620827      20.047001      20.857         19074.994      6905.4006      3842.2496      3624.4525     -1475.836       1094.3367      1505.4378    
  35010000   251.91356     -356.70362     -282.8847      -356.71123      0              6274.2544      45.463321      20.047001      20.857         19009.137      7106.0342      6465.463       5251.266       79.160058      1187.6798     -378.69132    
  35010500   247.99002     -354.97465     -282.30545     -354.97994      0              4493.0165      45.495082      20.047001      20.857         19022.417      5612.2945      5888.5095      1978.2457     -1959.9906      288.15329      802.7956     
  35011000   249.69013     -357.49891     -284.33152     -357.50772      0              3526.7499      45.616412      20.047001      20.857         19073.148      5947.8417      1832.1484      2800.2596      724.09327      1240.7169      1204.8118    
  35011500   246.23609     -358.69296     -286.53772     -358.69528      0              5702.9164      45.359732      20.047001      20.857         18965.825      6876.9994      5436.3992      4795.3504     -220.44868      70.570624     -1077.6643    
  35012000   250.44807     -359.445       -286.05551     -359.4518       0              3782.0998      45.500591      20.047001      20.857         19024.721      3421.3175      3978.9849      3945.9969     -1146.2995      1472.0468      918.90823    
  35012500   249.18999     -358.46034     -285.43951     -358.46932      0              4326.9373      45.702219      20.047001      20.857         19109.025      3869.8261      5016.9212      4094.0648     -574.23129      1149.5424      799.94025    
  35013000   251.13445     -358.17987     -284.58926     -358.18664      0              4398.9096      45.517409      20.047001      20.857         19031.753      6675.1089      2722.4251      3799.195      -63.024803     -214.77625      93.49553     
  35013500   254.8205      -358.24588     -283.57512     -358.25358      0              5086.4074      45.228081      20.047001      20.857         18910.779      5943.4332      3473.6988      5842.0901     -38.957736      1446.2815      2150.0824    
  35014000   250.09739     -356.45312     -283.1664      -356.46117      0              6024.0217      45.287732      20.047001      20.857         18935.72       5292.852       7556.2072      5223.0059     -1086.9404     -774.65745     -1299.8979    
  35014500   250.87671     -356.56935     -283.05426     -356.57097      0              5450.7842      45.482695      20.047001      20.857         19017.238      6502.4551      6204.7252      3645.1723     -219.75803      1972.5587     -575.94359    
  35015000   245.52557     -358.45837     -286.51134     -358.46661      0              6786.4093      45.715341      20.047001      20.857         19114.512      6589.2544      6534.0503      7235.9232     -201.41327      382.8583      -835.14034    
  35015500   244.15674     -359.21795     -287.67203     -359.225        0              7347.5359      45.547369      20.047001      20.857         19044.28       8467.3382      5064.5638      8510.7057     -1129.0965     -542.74476      140.1985     
  35016000   252.45659     -358.89798     -284.91993     -358.90202      0              6991.0692      45.253791      20.047001      20.857         18921.529      9943.2673      4134.8601      6895.0803      562.90441     -1532.4146     -1481.7199    
  35016500   248.58893     -360.69904     -287.85434     -360.70543      0              3952.6565      45.372397      20.047001      20.857         18971.12       3794.2604      3969.7501      4093.9591     -131.45904      782.81239     -2203.3475    
  35017000   257.21439     -357.5712      -282.19896     -357.57801      0              6154.0136      45.661976      20.047001      20.857         19092.199      6950.0074      5455.5421      6056.4915     -1664.6387      370.45588     -284.57724    
  35017500   246.60205     -354.79961     -282.53714     -354.80864      0              7613.1665      45.526909      20.047001      20.857         19035.725      6650.2123      9012.0145      7177.2729      518.42912      56.842525     -1068.7694    
  35018000   262.02051     -360.38416     -283.60357     -360.39121      0              5441.0668      45.360149      20.047001      20.857         18965.999      6194.7381      4903.5109      5224.9513     -1182.4521      647.25066     -410.21766    
  35018500   251.09427     -360.00282     -286.42398     -360.01108      0              5515.2711      45.300904      20.047001      20.857         18941.228      4441.337       6195.9282      5908.5481     -1085.6492     -997.19976     -565.15746    
  35019000   248.43771     -357.79804     -284.99766     -357.80552      0              7875.4879      45.36485       20.047001      20.857         18967.965      8768.2541      7146.5467      7711.6629     -901.47263     -2126.0066     -967.32509    
  35019500   242.73424     -355.94789     -284.81881     -355.95177      0              5205.4982      45.312797      20.047001      20.857         18946.2        6780.0415      5844.4773      2991.9758     -814.34092      1436.7202     -1351.7053    
  35020000   252.93694     -357.59062     -283.47182     -357.59861      0              6444.0013      45.289613      20.047001      20.857         18936.506      8514.9979      5974.5033      4842.5027     -1358.8296      368.484       -851.43906    
  35020500   256.70484     -358.4698      -283.24687     -358.47813      0              5617.9438      45.582548      20.047001      20.857         19058.989      6846.4565      5498.1117      4509.263       186.36243      429.12881      231.38447    
  35021000   252.31001     -357.74091     -283.80581     -357.74964      0              4224.0261      45.619838      20.047001      20.857         19074.58       5730.9584      4783.0586      2158.0615     -770.96718      568.64735     -1359.4747    
  35021500   248.95345     -356.76563     -283.81412     -356.7735       0              5557.2917      45.64387       20.047001      20.857         19084.629      7198.3503      6917.3614      2556.1635      1212.6363      457.21268      302.29255    
  35022000   254.67315     -361.76571     -287.13814     -361.77408      0              4387.1046      45.539816      20.047001      20.857         19041.122      5010.8656      4172.5679      3977.8802      239.03284      458.44382     -154.0682     
  35022500   258.06135     -359.24725     -283.62682     -359.25544      0              3461.4717      45.382178      20.047001      20.857         18975.21       3078.6313      3769.4981      3536.2856     -1107.2597      429.3699       837.49306    
  35023000   251.41493     -358.75749     -285.08469     -358.76466      0              6407.6843      45.449285      20.047001      20.857         19003.269      8993.277       4903.463       5326.3129      127.14847      466.14881     -958.17423    
  35023500   248.28258     -359.19288     -286.43795     -359.20126      0              4029.7961      45.629292      20.047001      20.857         19078.533      3716.8449      3765.0594      4607.4839     -378.99079      1081.6103     -1415.1034    
  35024000   252.49003     -357.99863     -284.01078     -358.00728      0              4248.0992      45.504659      20.047001      20.857         19026.422      3792.9643      3950.1756      5001.1578      491.93781      940.0097      -56.699879    
  35024500   251.78778     -354.18933     -280.40727     -354.19558      0              5688.8672      45.466216      20.047001      20.857         19010.348      6210.5518      6148.3176      4707.7322     -400.60767      602.95278     -553.06088    
  35025000   257.86261     -357.39875     -281.83656     -357.40427      0              3388.5067      45.566882      20.047001      20.857         19052.438      3550.0124      2708.4249      3907.0828     -244.80165     -828.31295     -1103.0242    
  35025500   253.27377     -357.34705     -283.12954     -357.35278      0              6105.3039      45.338158      20.047001      20.857         18956.804      7266.6963      6026.307       5022.9085     -1275.5592     -3189.7736      1212.3346    
  35026000   249.1477      -356.57199     -283.56355     -356.57653      0              7481.0807      45.428747      20.047001      20.857         18994.682      9140.7219      7509.8496      5792.6707     -726.94647      942.89406      1695.0381    
  35026500   254.05051     -356.15232     -281.7072      -356.15917      0              5328.6736      45.77068       20.047001      20.857         19137.65       4678.4898      4755.8333      6551.6977      443.55138      1213.2726      1846.502     
  35027000   258.64014     -356.60648     -280.81645     -356.61403      0              5902.4133      45.805998      20.047001      20.857         19152.418      6214.1788      4967.509       6525.5522     -391.66331      82.991421     -2300.5448    
  35027500   246.12778     -358.46294     -286.33944     -358.47059      0              5856.197       45.585478      20.047001      20.857         19060.214      7381.0249      7192.9975      2994.5686     -1626.7843     -1497.7825     -137.13652    
  35028000   244.05053     -354.73601     -283.22121     -354.74295      0              6086.2662      45.418581      20.047001      20.857         18990.431      7727.8223      3830.6181      6700.358       241.91278      138.43866     -635.42738    
  35028500   251.08197     -359.37107     -285.79583     -359.38025      0              4293.0998      45.373147      20.047001      20.857         18971.434      4355.5115      4002.5709      4521.2171     -799.65624     -1340.3179      550.04017    
  35029000   250.82688     -359.07107     -285.57058     -359.07582      0              5238.1872      45.562512      20.047001      20.857         19050.611      7514.2129      4775.9829      3424.3657      981.97813     -344.31927     -859.01084    
  35029500   243.2106      -357.44708     -286.17841     -357.45578      0              3629.0263      45.802697      20.047001      20.857         19151.038      2305.4358      4799.9809      3781.6623     -1296.3461     -557.79918      792.99345    
  35030000   247.46042     -359.87284     -287.35883     -359.87867      0              3390.3685      45.583333      20.047001      20.857         19059.317      2020.0362      4770.5262      3380.5431      680.21125     -2347.801       740.19927    
  35030500   248.37328     -357.82215     -285.04065     -357.83053      0              5518.0385      45.241835      20.047001      20.857         18916.529      6779.7303      4002.4591      5771.9259     -47.058313     -214.46874      713.53023    
  35031000   242.50171     -357.93582     -286.87488     -357.93962      0              5177.609       45.536122      20.047001      20.857         19039.577      6039.816       3985.8431      5507.168      -1028.3634      976.67427     -911.21308    
  35031500   243.23064     -359.39451     -288.11996     -359.40182      0              5383.8412      45.799314      20.047001      20.857         19149.623      8287.9337      3414.6989      4448.8911     -568.05676      1370.2409      227.5345     
  35032000   245.39187     -358.52105     -286.6132      -358.5286       0              4291.1693      45.568288      20.047001      20.857         19053.026      5267.6163      3944.8005      3661.0912     -397.88189      118.43414      674.86944    
  35032500   252.85827     -357.03302     -282.93726     -357.03334      0              6657.9826      45.360801      20.047001      20.857         18966.272      7872.1773      6853.471       5248.2994     -1014.6808     -1062.6856      1544.4925    
  35033000   244.99408     -358.77724     -286.98595     -358.78542      0              5463.2949      45.527895      20.047001      20.857         19036.137      7891.5768      3771.2529      4727.055      -463.36475      683.75381     -245.13827    
  35033500   256.57141     -358.19131     -283.00748     -358.19657      0              3441.7765      45.600273      20.047001      20.857         19066.4        2092.6515      4517.1651      3715.5128      632.85513      401.75352     -1400.209     
  35034000   254.97356     -359.2354      -284.5198      -359.24262      0              5813.1354      45.498799      20.047001      20.857         19023.972      5012.0969      7703.7146      4723.5948      72.562451     -630.45647      475.71268    
  35034500   246.67562     -358.29578     -286.01174     -358.30311      0              3735.9497      45.375529      20.047001      20.857         18972.43       2910.5986      5080.2765      3216.9741     -189.08401      1768.9236     -170.57687    
  35035000   246.63256     -355.8637      -283.59228     -355.87188      0              4641.3279      45.550788      20.047001      20.857         19045.709      3273.8913      4010.9783      6639.1142     -4.1992461     -717.11054      2350.6046    
  35035500   248.90474     -357.69439     -284.75715     -357.70093      0              4300.662       45.4492        20.047001      20.857         19003.233      4872.5815      4660.8861      3368.5185      1625.1278     -1934.3963      2258.1289    
  35036000   242.36784     -361.5562      -290.53448     -361.56538      0              6363.5508      45.343097      20.047001      20.857         18958.869      7021.8008      7123.0554      4945.7963     -338.19338      2475.9833     -1615.4913    
  35036500   250.76625     -359.75946     -286.27674     -359.76815      0              7341.4583      45.11723       20.047001      20.857         18864.43       8446.9733      7783.3126      5794.0891      203.02315     -665.65328      503.63278    
  35037000   252.60748     -361.0784      -287.05614     -361.07399      0              6893.9959      45.205344      20.047001      20.857         18901.272      9848.5947      6535.6191      4297.7739      127.62149     -1324.5026     -227.62212    
  35037500   244.40528     -359.00604     -287.38729     -359.00804      0              5008.9055      45.658537      20.047001      20.857         19090.761      4291.4543      6199.1683      4536.0941     -397.97331      1370.6552      2025.9609    
  35038000   248.19029     -356.50716     -283.77927     -356.51515      0              4850.328       45.539213      20.047001      20.857         19040.87       8409.406       681.77731      5459.8008      1463.4424      647.26791     -2018.8347    
  35038500   247.43474     -357.35603     -284.84955     -357.36382      0              6081.0931      45.270358      20.047001      20.857         18928.456      7551.3343      7207.2604      3484.6846     -542.44013      2439.5183      626.59341    
  35039000   246.28994     -359.00107     -286.83005     -359.00786      0              4878.5961      45.232424      20.047001      20.857         18912.595      4649.469       5718.7583      4267.5609     -662.46918     -43.47209      -278.57295    
  35039500   247.42507     -357.90564     -285.40199     -357.91477      0              7066.8575      45.455663      20.047001      20.857         19005.935      9700.6119      8147.8229      3352.1377     -541.50123     -279.8873      -1429.6108    
  35040000   254.91403     -358.91754     -284.21938     -358.92512      0              3473.239       45.633112      20.047001      20.857         19080.13       1568.6635      4991.2029      3859.8505     -1204.3937      656.29591      1316.3056    
  35040500   242.20114     -358.73269     -287.75983     -358.74044      0              5796.646       45.460024      20.047001      20.857         19007.759      6894.8341      5549.6889      4945.415      -137.4825      -872.9413       240.54353    
  35041000   248.34106     -358.83475     -286.06269     -358.83543      0              7910.4875      45.347805      20.047001      20.857         18960.838      6308.5796      9659.5832      7763.2997     -419.33761     -110.01274      788.64141    
  35041500   253.266       -357.04014     -282.82491     -357.04672      0              5041.8593      45.586663      20.047001      20.857         19060.709      5926.799       5841.0639      3357.7151      946.92691     -515.11037     -895.98703    
  35042000   251.58045     -357.14898     -283.42767     -357.1537       0              5276.9177      45.659958      20.047001      20.857         19091.355      8135.0691      2991.1073      4704.5767      132.31129      355.17352      1105.3732    
  35042500   250.12182     -356.27797     -282.98408     -356.28373      0              5358.2399      45.323409      20.047001      20.857         18950.637      5508.2187      4711.0292      5855.4719      1729.951       1356.3156      363.92264    
  35043000   250.5051      -356.87956     -283.47336     -356.88583      0              4232.2921      45.305958      20.047001      20.857         18943.341      4652.9951      3485.9051      4557.9762      135.27908      541.281       -826.40025    
  35043500   253.71566     -357.24504     -282.89805     -357.24909      0              5020.413       45.447861      20.047001      20.857         19002.673      5771.4484      5272.796       4016.9945      1277.1702      507.38688      1438.6937    
  35044000   249.25089     -358.5684      -285.52972     -358.57707      0              3766.7033      45.593011      20.047001      20.857         19063.364      6537.9789      1866.1047      2896.0263      925.793        1327.137      -1449.778     
  35044500   248.68695     -358.88814     -286.01472     -358.89605      0              4625.627       45.410762      20.047001      20.857         18987.162      3669.9819      7785.4968      2421.4023     -700.44307     -1885.0531      78.051533    
  35045000   255.3423      -357.77875     -282.95509     -357.7855       0              7900.9341      45.37485       20.047001      20.857         18972.146      7527.0653      9120.375       7055.3618      688.10291     -762.33636     -666.81701    
  35045500   252.63345     -359.32832     -285.29845     -359.3354       0              5577.3336      45.50947       20.047001      20.857         19028.433      7266.9792      3725.4163      5739.6054      493.12437      485.75475      29.639691    
  35046000   246.87689     -357.23458     -284.89157     -357.2437       0              4691.1559      45.696182      20.047001      20.857         19106.501      4551.4978      5575.5804      3946.3894     -221.91357      875.62169      943.35869    
  35046500   250.31295     -361.55091     -288.20102     -361.55661      0              5959.7458      45.507657      20.047001      20.857         19027.675      6379.3739      6301.91        5197.9534      813.3971       1702.1939      44.32645     
  35047000   248.98339     -359.98969     -287.02941     -359.98939      0              5874.9717      45.349324      20.047001      20.857         18961.473      2418.2674      7599.8403      7606.8074      275.95757      569.16061     -2611.1141    
  35047500   250.59588     -358.14877     -284.71597     -358.15623      0              6312.2588      45.524206      20.047001      20.857         19034.595      5805.2508      7052.4506      6079.0751     -1201.9742      332.6858       203.27776    
  35048000   254.63448     -358.31981     -283.70357     -358.32781      0              5633.9699      45.770205      20.047001      20.857         19137.452      6101.4504      2575.6882      8224.771      -148.84341     -3.2279122      605.44756    
  35048500   253.65555     -358.34951     -284.02012     -358.35641      0              5230.3247      45.686874      20.047001      20.857         19102.61       5847.58        4769.2405      5074.1537     -619.34916     -1149.1929     -661.99872    
  35049000   260.64011     -357.42659     -281.05051     -357.4348       0              5594.2579      45.348063      20.047001      20.857         18960.946      6994.7081      6295.3137      3492.7517     -355.31003      2284.7945     -446.42992    
  35049500   252.43451     -355.48894     -281.51736     -355.49196      0              6891.9436      45.402543      20.047001      20.857         18983.725      6865.7701      6818.7847      6991.2761      451.03909      188.27063     -155.36013    
  35050000   257.85754     -356.58089     -281.02018     -356.58681      0              5958.563       45.808431      20.047001      20.857         19153.435      8683.42        5632.7504      3559.5187     -774.44185      427.95333      83.37706     
  35050500   248.48603     -357.41731     -284.60277     -357.4198       0              6011.8029      45.750772      20.047001      20.857         19129.327      6384.7849      5494.6575      6155.9663      727.23308      175.8401       1302.7682    
  35051000   255.35046     -356.09533     -281.26928     -356.10278      0              5812.426       45.564115      20.047001      20.857         19051.281      7122.7455      5641.8262      4672.7063     -368.89532      236.65123     -693.69036    
  35051500   249.74012     -356.0147      -282.83266     -356.0234       0              5854.8123      45.246061      20.047001      20.857         18918.297      9023.3932      3351.1086      5189.9351      531.93661      2000.6224      954.44553    
  35052000   252.19274     -359.44783     -285.5471      -359.45197      0              5119.5448      45.387218      20.047001      20.857         18977.317      6391.2386      3854.4466      5112.9493     -272.85769     -1583.4028     -2330.3184    
  35052500   244.10323     -356.21222     -284.68198     -356.22014      0              6629.1917      45.557783      20.047001      20.857         19048.634      6417.383       5943.9786      7526.2134     -1006.8739     -206.06703     -39.770624    
  35053000   246.94498     -355.93926     -283.5763      -355.94696      0              4665.5933      45.604138      20.047001      20.857         19068.016      5266.7183      3482.0388      5248.0228     -113.05442     -284.54585      1758.6325    
  35053500   255.31176     -355.32505     -280.51034     -355.32597      0              5935.4276      45.416028      20.047001      20.857         18989.363      8182.0522      3857.6289      5766.6018     -908.03688      1454.9099      270.46645    
  35054000   247.4366      -356.7417      -284.23467     -356.74364      0              4650.956       45.434114      20.047001      20.857         18996.925      5084.1353      3814.7322      5054.0006     -94.048793     -43.705506     -1584.8498    
  35054500   250.40959     -357.83732     -284.45911     -357.83877      0              4999.642       45.418367      20.047001      20.857         18990.341      5505.2037      4478.0366      5015.6857      401.63617     -1272.842       1001.9063    
  35055000   245.78822     -358.39717     -286.37317     -358.4042       0              4416.2053      45.312133      20.047001      20.857         18945.923      4548.7647      5021.133       3678.7181     -1540.7484      2361.5231      249.00466    
  35055500   249.36245     -356.92339     -283.85202     -356.9302       0              5280.1887      45.58201       20.047001      20.857         19058.764      3778.2515      5625.5056      6436.8089     -743.96684      860.21811     -1316.7609    
  35056000   243.76549     -354.61546     -283.18419     -354.62301      0              5091.42        45.638001      20.047001      20.857         19082.175      4237.9661      7608.4623      3427.8316     -605.85352     -513.86365      192.61169    
  35056500   249.11268     -358.22963     -285.23146     -358.23805      0              5517.0032      45.47747       20.047001      20.857         19015.054      5141.9428      5441.4985      5967.5683      602.17252     -1164.2045     -629.54895    
  35057000   240.16231     -358.00361     -287.62819     -358.01166      0              6334.5922      45.489545      20.047001      20.857         19020.102      6584.6167      5791.9414      6627.2185     -781.65372     -461.51969      76.258924    
  35057500   241.01511     -358.15431     -287.52899     -358.16354      0              4556.5453      45.465931      20.047001      20.857         19010.229      2768.4379      5230.382       5670.8158     -640.1328      -332.64097      984.65293    
  35058000   253.22861     -357.49498     -283.29071     -357.50078      0              6051.531       45.299156      20.047001      20.857         18940.497      6546.6623      6664.747       4943.1837     -388.2218      -603.28173      274.04669    
  35058500   245.01616     -358.4348      -286.63704     -358.42999      0              3924.4812      45.502129      20.047001      20.857         19025.364      5159.2683      2304.9149      4309.2603     -678.9209       1494.5358      1032.5679    
  35059000   253.98208     -355.8887      -281.46363     -355.89668      0              4750.6574      45.709982      20.047001      20.857         19112.271      5161.673       5688.053       3402.2463     -594.07748      123.1697       1380.0363    
  35059500   254.36132     -354.79758     -280.26139     -354.80263      0              4372.2376      45.583534      20.047001      20.857         19059.401      5599.6535      2990.2317      4526.8277     -669.88719     -440.43134      662.15533    
  35060000   261.30696     -357.13697     -280.56548     -357.14617      0              6544.5015      45.412519      20.047001      20.857         18987.896      8220.4546      5280.3188      6132.7311      119.82846      701.76784     -676.43397    
  35060500   247.29944     -357.33458     -284.86774     -357.34357      0              7053.8109      45.304206      20.047001      20.857         18942.608      6967.7092      8321.1789      5872.5445     -1094.2484      1919.7234     -786.39994    
  35061000   247.96202     -359.83612     -287.17512     -359.84084      0              6024.009       45.696847      20.047001      20.857         19106.779      4179.8802      6079.0994      7813.0473     -112.49068      445.65827     -272.1307     
  35061500   247.46635     -356.91441     -284.39867     -356.92132      0              3644.7467      45.934983      20.047001      20.857         19206.349      4955.6985      3135.1462      2843.3953     -68.729777     -430.97347      1197.2217    
  35062000   246.5811      -355.84663     -283.5903      -355.85395      0              5710.8189      45.610601      20.047001      20.857         19070.718      7557.2121      5347.8668      4227.3779      596.11537      589.4015      -1937.7327    
  35062500   251.87984     -356.58051     -282.77147     -356.58935      0              5030.6718      45.612284      20.047001      20.857         19071.422      5533.5479      6116.1285      3442.3389     -985.84428     -622.87386     -1707.6582    
  35063000   246.16269     -358.70188     -286.56815     -358.70864      0              4430.1579      45.833321      20.047001      20.857         19163.842      5624.0634      2070.7024      5595.7078     -51.238716     -170.74366      995.09001    
  35063500   254.72363     -357.82131     -283.17895     -357.82817      0              6546.9995      45.505867      20.047001      20.857         19026.927      7768.6035      6687.9474      5184.4478      59.745566      80.175727     -322.06719    
  35064000   250.99703     -358.12323     -284.57288     -358.13245      0              3379.3096      45.45182       20.047001      20.857         19004.329      3978.883       4669.6245      1489.4213     -491.69697     -593.69299      981.55424    
  35064500   251.51878     -359.69704     -285.9938      -359.69687      0              3589.6772      45.753253      20.047001      20.857         19130.364      4799.7721      3449.3188      2519.9408     -91.500136     -53.963429     -1429.7631    
  35065000   248.03085     -358.71249     -286.03133     -358.7201       0              3760.2409      45.988294      20.047001      20.857         19228.639      3988.9512      5609.1549      1682.6165     -338.79745      572.64778      2118.506     
  35065500   249.405       -359.0693      -285.98547     -359.07145      0              4398.3264      45.620493      20.047001      20.857         19074.854      3373.9269      4967.3835      4853.6688     -682.04811     -1290.6368     -532.15645    
  35066000   247.82229     -356.48569     -283.86564     -356.49347      0              5904.7211      45.121363      20.047001      20.857         18866.158      9274.2083      4121.0655      4318.8894     -938.02323     -1175.3664      1037.4296    
  35066500   249.13341     -358.53241     -285.52816     -358.53983      0              5746.9481      45.557326      20.047001      20.857         19048.443      6755.3097      6454.724       4030.8106     -165.38036     -387.26378      940.79041    
  35067000   248.79369     -357.42145     -284.51675     -357.42592      0              5206.8991      45.673305      20.047001      20.857         19096.936      4197.3115      6845.35        4578.036      -303.55182      688.02454      522.84777    
  35067500   252.05927     -354.68552     -280.8239      -354.68516      0              5084.4556      45.431515      20.047001      20.857         18995.839      8128.6064      3594.2722      3530.4882     -858.84573     -227.99066     -49.233791    
  35068000   251.75196     -355.61586     -281.8443      -355.62115      0              5937.5588      45.500821      20.047001      20.857         19024.817      4203.3337      7448.7775      6160.5652     -516.26625      615.68423      1596.9353    
  35068500   245.00381     -356.02794     -284.2338      -356.03506      0              5307.4161      45.560386      20.047001      20.857         19049.722      6112.8886      6294.4737      3514.8859     -161.14257     -132.4067      -1923.2371    
  35069000   251.04974     -356.44424     -282.87845     -356.45203      0              8830.4909      45.65696       20.047001      20.857         19090.102      8174.2018      9839.8111      8477.4599     -488.40556     -1127.903      -2450.5114    
  35069500   249.98038     -357.19031     -283.93787     -357.1882       0              6995.2006      45.539117      20.047001      20.857         19040.829      7481.394       6932.4142      6571.7937      444.06032     -347.72895     -2042.8815    
  35070000   252.06088     -357.21444     -283.35235     -357.20771      0              6087.4069      45.543849      20.047001      20.857         19042.808      6860.6063      7485.5868      3916.0274     -361.224       -705.71357     -463.45175    
  35070500   244.25379     -356.49361     -284.91926     -356.49308      0              5602.0586      45.852659      20.047001      20.857         19171.928      6099.9855      4734.5272      5971.6631      842.98801     -411.54491      445.80521    
  35071000   243.34042     -355.27074     -283.96403     -355.27467      0              6405.4619      45.703631      20.047001      20.857         19109.616      5059.3714      7105.2101      7051.8042      73.625014     -1096.6144     -874.74501    
  35071500   251.373       -358.47742     -284.8169      -358.48252      0              4164.7996      45.51974       20.047001      20.857         19032.727      4115.7367      3848.8576      4529.8044      631.59561      2517.897       689.0192     
  35072000   252.46426     -359.32896     -285.34867     -359.33427      0              6883.0947      45.455927      20.047001      20.857         19006.046      9525.9014      3555.8802      7567.5025     -96.932959     -1220.7132     -452.86297    
  35072500   248.04849     -358.92093     -286.23459     -358.92147      0              4014.3094      45.880105      20.047001      20.857         19183.403      4784.5004      4238.1725      3020.2554     -426.25995     -420.88488     -952.09153    
  35073000   252.45639     -358.12501     -284.14702     -358.11875      0              3246.8484      45.819938      20.047001      20.857         19158.246      2416.2949      4388.0341      2936.2163     -310.16029     -1783.1733      1944.0902    
  35073500   249.34319     -360.02264     -286.95692     -360.02879      0              6174.6284      45.678259      20.047001      20.857         19099.007      8001.978       6270.9154      4250.9919     -778.45578      839.25167      1877.2234    
  35074000   253.24145     -357.80063     -283.59259     -357.80944      0              5991.8115      45.628731      20.047001      20.857         19078.299      7349.4232      3294.0039      7332.0076      1008.6492      861.02216      278.88371    
  35074500   252.71682     -356.526       -282.4717      -356.53217      0              4989.1066      45.558448      20.047001      20.857         19048.912      5423.4279      4727.9312      4815.9608      44.900517     -980.94692      1911.8529    
  35075000   245.48212     -357.59891     -285.6646      -357.60661      0              7839.6301      45.55619       20.047001      20.857         19047.968      9072.1943      7859.3711      6587.3248     -648.39132     -460.71312     -1423.6913    
  35075500   256.65126     -358.4104      -283.20317     -358.41718      0              6281.6203      45.59416       20.047001      20.857         19063.844      5493.81        6318.8224      7032.2284     -1797.8026     -725.53229      76.130425    
  35076000   249.71193     -358.0234      -284.84962     -358.02643      0              5187.9188      45.718248      20.047001      20.857         19115.728      7016.5856      3590.2948      4956.876       39.375233      594.3744      -1000.4378    
  35076500   259.68129     -359.29186     -283.19674     -359.29452      0              6335.3925      45.670676      20.047001      20.857         19095.837      8315.2163      4729.746       5961.2152     -1260.8865     -1403.8149     -350.97369    
  35077000   250.12529     -356.11024     -282.81534     -356.11481      0              4446.2135      45.520349      20.047001      20.857         19032.982      4700.3654      5563.8893      3074.3858     -799.31535      1382.7658     -700.72092    
  35077500   245.70452     -357.63169     -285.63222     -357.63937      0              3375.5688      45.405894      20.047001      20.857         18985.126      5021.7594      841.90712      4263.0399      986.89596     -1640.5992      659.38631    
  35078000   248.57241     -359.12017     -286.28031     -359.11431      0              5673.1582      45.584044      20.047001      20.857         19059.614      7880.8684      5616.3671      3522.2391     -179.5713       942.4001      -657.28783    
  35078500   255.04087     -361.52032     -286.785       -361.52293      0              2319.295       45.788487      20.047001      20.857         19145.096      2441.1491      2318.4783      2198.2575     -1065.6918      1242.9206     -1096.0472    
  35079000   248.41819     -358.62925     -285.83459     -358.63625      0              4888.015       45.583981      20.047001      20.857         19059.588      4708.3765      5149.5711      4806.0973     -2784.4379     -1050.233       740.66635    
  35079500   247.09364     -359.21827     -286.81174     -359.21737      0              7763.5567      45.297985      20.047001      20.857         18940.007      10505.189      4827.7598      7957.7211      57.971481     -1327.0835     -118.84094    
  35080000   245.7349      -358.14634     -286.13797     -358.13632      0              4940.0429      45.807366      20.047001      20.857         19152.99       4679.5663      4869.7716      5270.7908      14.552897     -152.43818      527.55626    
  35080500   257.28971     -358.83481     -283.44049     -358.83375      0              2919.9814      45.818756      20.047001      20.857         19157.752      3661.5563      5880.1442     -781.75624      331.57762     -758.54464      230.27244    
  35081000   257.59459     -358.89359     -283.40994     -358.89982      0              5765.3236      45.464742      20.047001      20.857         19009.732      9734.9308      3741.0101      3820.0298      373.5588       1691.9116      341.22542    
  35081500   248.93399     -359.78983     -286.84402     -359.79081      0              7875.6555      45.455348      20.047001      20.857         19005.804      11372.782      7767.0216      4487.1631      90.527102     -1528.2404     -789.09537    
  35082000   254.98206     -361.41513     -286.69704     -361.41103      0              4803.1581      45.521287      20.047001      20.857         19033.374      5816.7247      4658.5328      3934.2168      1226.2383      222.77327     -61.970358    
  35082500   251.70781     -359.36556     -285.60693     -359.36171      0              5051.4491      45.581893      20.047001      20.857         19058.715      6160.4479      4798.4471      4195.4521      579.47457      882.23645     -1140.9044    
  35083000   245.14767     -358.58342     -286.74713     -358.58536      0              6477.4477      45.608077      20.047001      20.857         19069.663      6606.2538      5870.763       6955.3262     -592.45909     -384.52786     -826.05365    
  35083500   252.25383     -359.85685     -285.93822     -359.86367      0              3197.0995      45.580929      20.047001      20.857         19058.312      5389.6209      2810.0687      1391.6089      585.75757      273.55375     -1267.4856    
  35084000   254.1468      -357.2928      -282.81946     -357.2923       0              5803.748       45.63663       20.047001      20.857         19081.602      6590.7803      6141.1851      4679.2786      535.8213       959.82354      494.3446     
  35084500   249.5656      -358.59791     -285.46702     -358.5978       0              5809.5386      45.811489      20.047001      20.857         19154.713      6804.8264      6182.5779      4441.2116     -962.40366     -805.23687      699.30454    
  35085000   242.15285     -357.50623     -286.54752     -357.50458      0              6194.7608      45.733892      20.047001      20.857         19122.269      6321.63        5837.1932      6425.4592     -368.66032     -1265.4308     -1046.0482    
  35085500   244.97088     -358.43381     -286.64932     -358.42457      0              5604.5846      45.436885      20.047001      20.857         18998.084      6536.0239      5404.6439      4873.0861      244.07078     -94.818372     -999.54202    
  35086000   249.90538     -360.65312     -287.42266     -360.64608      0              5612.9234      45.450781      20.047001      20.857         19003.894      7989.608       5330.767       3518.3953     -35.004276     -621.74195     -1831.7026    
  35086500   251.6331      -359.16441     -285.42767     -359.15834      0              3921.7938      45.499555      20.047001      20.857         19024.288      5760.5158      3299.3187      2705.547       90.531943     -718.2859       2016.6066    
  35087000   248.44762     -358.9205      -286.11721     -358.92393      0              3555.2303      45.782854      20.047001      20.857         19142.741      5383.8898      3049.0496      2232.7516     -98.571293     -307.50924      200.73693    
  35087500   248.10914     -359.49595     -286.79185     -359.4888       0              6646.245       45.679156      20.047001      20.857         19099.382      7385.1067      6902.3454      5651.2829      769.07727      295.17352      1345.6927    
  35088000   251.31326     -360.04563     -286.40261     -360.02591      0              6846.7167      45.333602      20.047001      20.857         18954.899      8191.8197      7327.43        5020.9004     -101.34805      2021.6112      1412.7027    
  35088500   251.85869     -357.57713     -283.77429     -357.58078      0              3335.23        45.586963      20.047001      20.857         19060.835      2933.8962      5742.9626      1328.8311     -120.12842      425.78069     -96.740901    
  35089000   245.11243     -357.76397     -285.938       -357.76512      0              4379.3046      45.697812      20.047001      20.857         19107.183      3061.3127      5384.1973      4692.4039      1024.1866     -511.22288     -573.00232    
  35089500   253.43874     -358.93647     -284.67062     -358.93274      0              5450.9062      45.314426      20.047001      20.857         18946.881      8286.4253      4925.1367      3141.1566     -638.34534      1212.901      -187.12549    
  35090000   245.14149     -358.97343     -287.13895     -358.96983      0              4272.9311      45.347971      20.047001      20.857         18960.907      5450.8513      3368.6912      3999.2509     -432.14712     -40.481674     -488.77585    
  35090500   249.87526     -360.47627     -287.25464     -360.47088      0              4136.2456      45.757779      20.047001      20.857         19132.256      4582.5545      4740.2919      3085.8905      493.59855     -950.24558     -166.89089    
  35091000   248.96138     -359.92861     -286.97477     -359.92993      0              3856.7761      45.482747      20.047001      20.857         19017.26       6279.3287      1296.0149      3994.9847     -1175.8131      334.00572     -49.616917    
  35091500   249.80889     -357.94603     -284.74384     -357.95332      0              5495.7412      45.301031      20.047001      20.857         18941.28       6527.8983      6501.9982      3457.327      -657.56701      1427.9856      296.00134    
  35092000   248.30807     -357.11763     -284.35524     -357.11587      0              6802.894       45.582851      20.047001      20.857         19059.115      7222.5438      6888.0299      6298.1082     -566.82779     -255.47858      80.278891    
  35092500   255.94927     -357.11586     -282.11434     -357.11621      0              3919.6538      45.620947      20.047001      20.857         19075.044      3924.4337      5849.7638      1984.7637      558.4766      -215.98066      1109.1647    
  35093000   251.99136     -359.53888     -285.69716     -359.53183      0              6714.4588      45.542476      20.047001      20.857         19042.234      7761.7283      4643.271       7738.3772     -1385.435       959.22904     -1588.1363    
  35093500   247.93787     -357.4834      -284.82949     -357.48294      0              4107.236       45.543708      20.047001      20.857         19042.749      6416.3684      2852.7763      3052.5632      116.8132      -149.24624      287.91394    
  35094000   250.56339     -357.88769     -284.46441     -357.88946      0              3930.4935      45.505176      20.047001      20.857         19026.638      4327.8024      4298.1763      3165.5018     -1322.5411      320.45887      284.37248    
  35094500   251.91217     -359.22842     -285.40991     -359.2353       0              4673.0475      45.554093      20.047001      20.857         19047.091      4629.5645      5768.1058      3621.4722     -369.25259     -206.3878       575.26274    
  35095000   254.69458     -358.99009     -284.35623     -358.99642      0              5577.6666      45.619547      20.047001      20.857         19074.459      5579.708       6975.3996      4177.8924     -295.79519     -360.33121      43.686259    
  35095500   252.32698     -358.57114     -284.63107     -358.57756      0              3710.3795      45.444592      20.047001      20.857         19001.306      4567.8407      3516.0934      3047.2043     -372.57359     -936.52583      24.145668    
  35096000   255.75432     -358.8646      -283.92021     -358.87146      0              6173.708       45.43828       20.047001      20.857         18998.667      7977.9649      5730.0188      4813.1401      552.54437      68.829055     -42.506465    
  35096500   246.27819     -356.3274      -284.15982     -356.32284      0              5066.9608      45.654414      20.047001      20.857         19089.037      4831.5306      4557.9699      5811.3817      215.03937      903.98085     -641.04452    
  35097000   246.58214     -357.5961      -285.33946     -357.59758      0              4285.0419      45.527192      20.047001      20.857         19035.843      4554.7004      5098.7179      3201.7074     -1053.1323     -185.78604     -1172.4146    
  35097500   246.87913     -358.1181      -285.77443     -358.12293      0              5320.3422      45.433461      20.047001      20.857         18996.652      7685.4512      5543.8137      2731.7618      242.58976      1797.6918      2.6235755    
  35098000   239.57642     -357.46499     -287.26125     -357.47261      0              4738.6178      45.51948       20.047001      20.857         19032.619      6115.4626      3672.3531      4428.0376     -983.79166      104.49746      5.8172429    
  35098500   250.70813     -359.80033     -286.33464     -359.7975       0              7535.6542      45.420056      20.047001      20.857         18991.048      8536.4417      6646.8297      7423.6911      572.69624     -25.998716     -1222.1356    
  35099000   252.23636     -357.47782     -283.5643      -357.48355      0              6167.5041      45.330578      20.047001      20.857         18953.635      7527.2967      4265.5664      6709.6491     -226.16236     -861.15201     -683.62075    
  35099500   249.96317     -358.58187     -285.33448     -358.57559      0              4217.8245      45.777945      20.047001      20.857         19140.688      4545.251       4810.8181      3297.4043     -353.57817      368.8713      -186.4085     
  35100000   250.28328     -360.5582      -287.217       -360.56548      0              4533.1885      45.880128      20.047001      20.857         19183.413      6106.7303      3563.9896      3928.8456     -2143.0171      196.35357      535.26602    
  35100500   253.7083      -358.01377     -283.66893     -358.0159       0              5892.133       45.402457      20.047001      20.857         18983.689      7252.6621      6141.4012      4282.3357      309.08674     -481.18249      1428.8779    
  35101000   247.87768     -359.8501      -287.21382     -359.85636      0              4134.9656      45.548386      20.047001      20.857         19044.705      4853.5556      4914.4552      2636.886      -366.53342      100.11472     -1316.7827    
  35101500   250.34098     -358.7285      -285.3704      -358.73494      0              5405.9772      45.660972      20.047001      20.857         19091.779      4461.6239      6163.1806      5593.1269      174.5596      -1114.4724      441.53336    
  35102000   253.25562     -359.62887     -285.41668     -359.63176      0              6536.9507      45.769803      20.047001      20.857         19137.284      7559.796       7448.2691      4602.787      -11.236846      488.24208     -1152.9334    
  35102500   253.78463     -359.42338     -285.05617     -359.43004      0              5682.4959      45.527512      20.047001      20.857         19035.977      7108.4107      4572.7927      5366.2842     -199.12104      1046.9799      160.53736    
  35103000   251.56666     -358.85696     -285.1397      -358.85063      0              4640.9371      45.138046      20.047001      20.857         18873.133      8100.1016      3112.6973      2710.0124      1777.371      -1892.5895      2045.367     
  35103500   247.73031     -359.05099     -286.4579      -359.04182      0              5547.5211      45.376662      20.047001      20.857         18972.903      6302.8476      6977.959       3361.7568     -1029.7989     -159.35177      593.55272    
  35104000   248.73049     -360.87245     -287.98627     -360.85968      0              4522.4938      45.64551       20.047001      20.857         19085.314      6842.9618      3103.3905      3621.129       141.33699     -11.454112     -661.98974    
  35104500   252.10421     -358.15598     -284.28119     -358.16025      0              6351.0829      45.59365       20.047001      20.857         19063.631      7200.6715      6953.6784      4898.8987     -997.37442     -884.24329     -276.28942    
  35105000   246.87966     -358.15471     -285.81089     -358.15592      0              6775.5044      45.450723      20.047001      20.857         19003.87       8648.2946      5415.3969      6262.8218      182.21259      1023.119      -1027.8121    
  35105500   249.98793     -360.61896     -287.36431     -360.61077      0              3970.1257      45.486041      20.047001      20.857         19018.637      5810.3682      3194.6028      2905.4061     -340.19813      324.08916      561.0385     
  35106000   248.15473     -358.61984     -285.90238     -358.62826      0              6061.2852      45.590599      20.047001      20.857         19062.355      7226.6274      4458.6115      6498.6167     -485.68471     -62.474756      1560.3339    
  35106500   251.60894     -359.83521     -286.10555     -359.84047      0              5623.6615      45.456462      20.047001      20.857         19006.27       7529.2633      3086.2286      6255.4925     -921.45549      1768.7719     -177.44227    
  35107000   252.78102     -359.23564     -285.16252     -359.23437      0              3642.271       45.455295      20.047001      20.857         19005.781      3475.8173      3581.7461      3869.2497      751.89293      991.77219      54.8802      
  35107500   252.81832     -359.82173     -285.73768     -359.80725      0              3226.6247      45.336875      20.047001      20.857         18956.268      2860.9375      4956.0739      1862.8627      1164.4572      1795.1878     -1658.9359    
  35108000   251.43907     -359.1825      -285.50262     -359.16486      0              6791.6696      45.347919      20.047001      20.857         18960.886      7840.726       5882.2375      6652.0454     -308.59104      1263.0233      1080.3313    
  35108500   247.90993     -357.74876     -285.10304     -357.74498      0              4767.8413      45.375192      20.047001      20.857         18972.289      4968.0107      3753.764       5581.7492      660.83127      1837.1949     -1300.2643    
  35109000   258.21236     -360.66265     -284.99797     -360.66672      0              3577.0838      45.405426      20.047001      20.857         18984.93       4715.711       4941.2894      1074.2511     -1036.9923      637.77387      1157.6595    
  35109500   249.78823     -358.62364     -285.42751     -358.62017      0              5529.5121      45.346968      20.047001      20.857         18960.488      6168.7193      5975.9487      4443.8685     -323.54813      719.66528      707.22362    
  35110000   256.26003     -359.026       -283.93342     -359.00569      0              6201.0045      45.235869      20.047001      20.857         18914.035      7664.1717      7078.3175      3860.5242     -108.93806     -229.70949     -535.074      
  35110500   249.51252     -359.12612     -286.01078     -359.12664      0              3285.044       45.47597       20.047001      20.857         19014.426      4155.1296      1971.8924      3728.1101      762.35906     -111.98282     -2038.8366    
  35111000   244.38448     -358.41497     -286.80232     -358.39989      0              5650.9884      45.468382      20.047001      20.857         19011.253      4699.2182      5863.0412      6390.7056     -520.78425     -457.69618     -302.4471     
  35111500   255.78532     -361.06277     -286.1093      -361.06045      0              4897.6345      45.409908      20.047001      20.857         18986.804      5900.0063      3747.6524      5045.2447     -531.2681      -590.76994      655.27875    
  35112000   247.17477     -358.56221     -286.13191     -358.56474      0              5242.3421      45.36445       20.047001      20.857         18967.797      5939.2075      4537.7334      5250.0854     -185.87982      409.50386     -2198.0006    
  35112500   255.13787     -360.18203     -285.41828     -360.17981      0              5873.3888      45.325017      20.047001      20.857         18951.31       8188.9371      4687.6362      4743.593       2047.8619     -1264.5274     -1576.9653    
  35113000   253.28201     -358.78623     -284.56631     -358.76709      0              7995.7768      45.01856       20.047001      20.857         18823.174      10634.365      7787.6099      5565.3558     -1221.7443      401.77702     -61.473883    
  35113500   253.7234      -356.53916     -282.18989     -356.53522      0              5800.2449      45.332049      20.047001      20.857         18954.25       6617.8497      3852.2573      6930.6275      182.28948      588.33008     -3129.1539    
  35114000   253.87816     -361.13555     -286.74094     -361.13905      0              4079.1558      45.757943      20.047001      20.857         19132.325      7039.9206      2321.0876      2876.4592     -796.8496      -171.92751     -166.78879    
  35114500   249.27864     -356.75541     -283.70861     -356.76262      0              6412.0826      45.320322      20.047001      20.857         18949.347      4367.3663      6062.5878      8806.2939      274.89449      362.73394     -1278.6257    
  35115000   261.07153     -358.53929     -282.03679     -358.52403      0              5475.5544      44.965508      20.047001      20.857         18800.992      7186.3361      3979.8429      5260.4843      282.37833      1275.478       969.29996    
  35115500   243.32153     -355.98015     -284.67897     -355.97585      0              4121.3882      45.412872      20.047001      20.857         18988.044      4770.8428      4063.1469      3530.1748      1565.32       -68.857673     -1969.0196    
  35116000   246.00685     -359.93528     -287.84722     -359.92835      0              4164.7719      45.557906      20.047001      20.857         19048.685      6143.1057      2574.1637      3777.0462     -1013.5882     -421.52187     -1640.3628    
  35116500   257.01348     -359.28362     -283.97025     -359.26975      0              8056.2414      45.342823      20.047001      20.857         18958.755      7981.7096      9336.5783      6850.4365      1008.3992      1496.6524     -893.3439     
  35117000   249.15424     -357.86705     -284.8567      -357.86259      0              5484.888       45.401902      20.047001      20.857         18983.457      6319.5176      5082.486       5052.6603     -152.87223      1676.118      -928.32217    
  35117500   250.74546     -361.38519     -287.90856     -361.3835       0              2748.6407      45.654922      20.047001      20.857         19089.25       4713.0333      696.35121      2836.5376      391.93514      171.03214      140.32801    
  35118000   245.81903     -360.28374     -288.25071     -360.2908       0              5416.1022      45.508922      20.047001      20.857         19028.204      8222.7737      3784.3922      4241.1409     -134.21653     -1631.9703     -2051.4159    
  35118500   244.51013     -359.88088     -288.23141     -359.87591      0              5976.5435      45.565494      20.047001      20.857         19051.858      6256.1038      5525.7668      6147.7598      10.297488     -288.74179      289.30351    
  35119000   253.17436     -359.79534     -285.60696     -359.7933       0              5172.0526      45.547368      20.047001      20.857         19044.279      6142.6548      7353.2857      2020.2174     -1456.7618      1180.9973      149.49217    
  35119500   256.65389     -359.15592     -283.94793     -359.15734      0              5005.4917      45.485554      20.047001      20.857         19018.433      5026.1104      3800.1884      6190.1762     -385.31954      277.28321     -676.94502    
  35120000   251.00361     -355.26453     -281.71225     -355.24768      0              5176.915       45.370433      20.047001      20.857         18970.299      6652.4737      3132.8921      5745.3791      1185.758       309.05969      439.23674    
  35120500   254.10148     -356.913       -282.45294     -356.90856      0              7329.3537      45.283767      20.047001      20.857         18934.062      5309.6987      8603.2341      8075.1283      805.98276     -58.279497      64.642441    
  35121000   256.52646     -359.21028     -284.03963     -359.19554      0              5101.1907      45.555101      20.047001      20.857         19047.512      5426.408       4322.5226      5554.6416      233.72133      461.35235     -621.81654    
  35121500   248.77022     -358.10225     -285.20443     -358.08832      0              2625.6951      45.701795      20.047001      20.857         19108.848      2955.6628      1436.3155      3485.107      -1.2994559      143.47726     -198.9448     
  35122000   255.93984     -357.7709      -282.77214     -357.76537      0              4551.0639      45.474528      20.047001      20.857         19013.823      4521.7127      5024.1821      4107.297       411.60109     -306.21944     -1464.906     
  35122500   252.88435     -358.29505     -284.19165     -358.29394      0              6303.8398      45.272272      20.047001      20.857         18929.256      6701.8591      7249.7331      4959.9272     -843.08558      265.14599      673.48452    
  35123000   247.44365     -357.98948     -285.48039     -357.99031      0              3545.3851      45.350995      20.047001      20.857         18962.171      3832.3346      3244.6023      3559.2184     -718.05107     -858.9309       1272.4125    
  35123500   244.81002     -356.69103     -284.95368     -356.69799      0              6200.2984      45.368215      20.047001      20.857         18969.372      6911.3281      6295.7209      5393.8463     -57.65592       646.70815     -467.77777    
  35124000   250.12268     -359.26109     -285.96695     -359.24215      0              5783.1306      45.493061      20.047001      20.857         19021.572      7502.722       5543.5023      4303.1673      453.72002      476.14092      1574.4402    
  35124500   251.11647     -359.34011     -285.75476     -359.33436      0              2768.0516      45.362166      20.047001      20.857         18966.843      4228.6404      1649.3143      2426.2        -755.36758     -36.841089     -1453.562     
  35125000   253.85817     -358.65104     -284.26228     -358.63149      0              7970.323       45.064683      20.047001      20.857         18842.459      10144.462      6104.1633      7662.3433      597.39576      427.87845     -785.15407    
  35125500   248.78811     -359.77079     -286.86773     -359.76643      0              4785.1975      45.321478      20.047001      20.857         18949.83       5759.0628      4073.3277      4523.202      -560.29179     -1814.789      -2794.1358    
  35126000   245.57188     -360.16201     -288.20141     -360.16838      0              5801.0831      45.464836      20.047001      20.857         19009.771      8026.9015      3943.6681      5432.6797     -554.74295     -678.603        1618.4873    
  35126500   261.59405     -361.83878     -285.18316     -361.83048      0              6371.1807      45.151127      20.047001      20.857         18878.603      8262.3482      4980.3409      5870.8529     -1312.0392     -262.7552      -754.05967    
  35127000   250.57211     -356.70495     -283.27911     -356.69932      0              3809.2842      45.275229      20.047001      20.857         18930.492      3766.3686      4078.5381      3582.946       277.7498      -1008.5194      331.91696    
  35127500   259.72684     -356.17983     -280.07136     -356.17102      0              7542.1802      45.564047      20.047001      20.857         19051.253      5940.7927      8077.839       8607.9089     -1809.7173      907.30267      350.88015    
  35128000   254.65448     -357.17819     -282.55609     -357.16794      0              5759.3773      45.734533      20.047001      20.857         19122.536      6757.0988      6246.2036      4274.8294      1690.887      -2262.3711      205.45747    
  35128500   257.55565     -357.12136     -281.64912     -357.11437      0              4121.6605      45.47554       20.047001      20.857         19014.246      3037.7519      5379.2959      3947.9337     -1113.3376     -80.227132      1937.8417    
  35129000   259.59706     -357.04785     -280.97741     -357.03439      0              6299.429       45.308482      20.047001      20.857         18944.396      6450.9219      6788.8696      5658.4956      279.5676       668.04752     -471.65158    
  35129500   251.37183     -356.19671     -282.53653     -356.1981       0              5324.5138      45.523811      20.047001      20.857         19034.429      7065.3529      5454.4991      3453.6894     -1002.5522     -381.64877      1075.9685    
  35130000   249.36552     -356.66328     -283.59101     -356.67248      0              5314.0498      45.718134      20.047001      20.857         19115.68       6285.3024      4544.5076      5112.3394     -858.2645       184.08605     -487.50222    
  35130500   245.78936     -354.90663     -282.8823      -354.91182      0              5033.4155      45.451564      20.047001      20.857         19004.222      6170.115       5767.1474      3162.984      -1261.4287     -1275.0067      1048.6266    
  35131000   251.96321     -356.15805     -282.32458     -356.13359      0              4624.1704      45.084709      20.047001      20.857         18850.832      4447.5506      4152.3858      5272.5749     -1321.6843     -1937.4678      70.294871    
  35131500   252.03323     -355.88347     -282.02948     -355.87273      0              4932.735       45.360425      20.047001      20.857         18966.115      5758.0606      6079.7169      2960.4273     -874.61001     -677.92264      1231.8446    
  35132000   250.46258     -356.64624     -283.2525      -356.64672      0              5151.2014      45.742744      20.047001      20.857         19125.97       5716.7339      5511.8503      4225.02       -190.10352     -109.42875      428.70636    
  35132500   247.26753     -359.53493     -287.07745     -359.53902      0              4824.3924      45.667072      20.047001      20.857         19094.33       5468.909       4880.0518      4124.2163      3.8234808      932.0994       650.90782    
  35133000   254.59581     -356.7555      -282.15059     -356.7612       0              5134.5283      45.351126      20.047001      20.857         18962.226      7155.5875      6088.5178      2159.4794      461.73625     -347.68716     -674.6684     
  35133500   256.11818     -358.39394     -283.34293     -358.39289      0              3657.4973      45.336351      20.047001      20.857         18956.048      5345.0274      2800.7009      2826.7635     -621.08502      266.98823     -1389.0222    
  35134000   251.17452     -356.37756     -282.7752      -356.3733       0              3667.6317      45.537851      20.047001      20.857         19040.3        4116.4592      4974.9145      1911.5216     -2222.3747      176.74431     -519.83379    
  35134500   247.48983     -356.16362     -283.641       -356.15955      0              5605.5909      45.481138      20.047001      20.857         19016.587      7967.5996      6021.49        2827.6831      489.77124      647.18878      1846.7487    
  35135000   251.17336     -357.39739     -283.79537     -357.39301      0              5689.327       45.393043      20.047001      20.857         18979.753      6281.6798      5814.983       4971.3183      559.89945     -132.87794     -2046.3704    
  35135500   249.06548     -355.71436     -282.73002     -355.7136       0              5585.203       45.276774      20.047001      20.857         18931.139      5810.4703      4569.825       6375.3138      634.44213     -321.05008     -1580.002     
  35136000   257.01981     -358.08252     -282.7673      -358.08701      0              4523.6915      45.302675      20.047001      20.857         18941.968      3853.7862      4849.2191      4868.0691      512.79434     -733.11612     -1450.0773    
  35136500   247.16272     -356.6629      -284.23613     -356.67101      0              4949.6643      45.449328      20.047001      20.857         19003.287      4655.6802      3999.1745      6194.1382      1219.6407     -397.80747     -971.5286     
  35137000   239.16505     -356.94659     -286.86339     -356.94586      0              5154.5602      45.257895      20.047001      20.857         18923.245      6136.6533      3939.0833      5387.9441      142.4693       292.36639     -400.97992    
  35137500   243.94956     -357.15138     -285.66617     -357.14637      0              5482.3132      45.342738      20.047001      20.857         18958.719      6103.4835      6663.0742      3680.382       325.23093      384.31229      675.49733    
  35138000   253.85789     -358.13416     -283.74549     -358.14022      0              3766.0278      45.51366       20.047001      20.857         19030.185      3823.2334      3113.0396      4361.8105     -1590.4958      499.59167      675.90962    
  35138500   245.70153     -356.39057     -284.39198     -356.39436      0              4780.6324      45.525686      20.047001      20.857         19035.214      4692.7669      5505.2097      4143.9206      1027.8173     -868.018        1029.8411    
  35139000   249.84627     -356.10699     -282.89385     -356.11321      0              5244.3128      45.474438      20.047001      20.857         19013.786      6045.3143      3802.5745      5885.0497     -260.82185      96.27325       649.78086    
  35139500   255.58039     -357.84751     -282.95409     -357.85051      0              5612.6554      45.573109      20.047001      20.857         19055.042      6368.0476      7165.869       3304.0496      563.25514      1602.7201      1272.2442    
  35140000   247.94213     -355.0034      -282.34824     -354.99531      0              3932.8331      45.469176      20.047001      20.857         19011.585      6138.9702      2036.2559      3623.2733      207.87042     -476.6754       343.62532    
  35140500   259.30571     -355.10919     -279.12413     -355.10858      0              6067.1815      45.334159      20.047001      20.857         18955.132      7982.4985      5193.1017      5025.9443     -127.96428     -479.36553     -1241.9115    
  35141000   262.06461     -356.64746     -279.85395     -356.64036      0              4334.5788      45.575582      20.047001      20.857         19056.076      5671.6558      4190.1686      3141.9121      1723.4139      991.7989      -278.13147    
  35141500   245.09355     -356.86049     -285.04006     -356.86769      0              4338.9749      45.866639      20.047001      20.857         19177.773      4592.5383      6046.9718      2377.4145     -505.41551     -977.70302      253.07238    
  35142000   248.07963     -358.13488     -285.43942     -358.14102      0              7091.4795      45.321852      20.047001      20.857         18949.986      7164.7602      7538.0557      6571.6227     -526.13469     -497.57287     -427.96375    
  35142500   244.225       -358.41797     -286.85204     -358.40595      0              4773.7863      45.10952       20.047001      20.857         18861.206      7035.1432      4150.3053      3135.9104      1438.2212     -412.15906     -442.06101    
  35143000   245.15673     -357.41196     -285.57301     -357.40413      0              5812.9886      45.478448      20.047001      20.857         19015.462      5899.0409      5864.5797      5675.3451     -998.36136      463.09129     -1256.2408    
[...]
  38681000   251.20089     -356.83328     -283.22319     -356.8354       0              5969.071       45.566929      20.047001      20.857         19052.458      7115.5899      5965.0513      4826.5718     -1964.5131     -1024.3584      413.11065    
  38681500   246.24401     -354.18034     -282.02278     -354.18547      0              3786.3332      45.424868      20.047001      20.857         18993.059      6003.7461      1688.1377      3667.1157     -2023.3298     -1298.5395     -822.65444    
  38682000   248.54662     -355.00389     -282.17159     -355.01297      0              7671.667       45.364251      20.047001      20.857         18967.714      8458.9196      7524.0424      7032.0391      541.83836     -716.04948     -832.81316    
  38682500   255.72672     -354.58761     -279.65131     -354.59308      0              4698.8163      45.693538      20.047001      20.857         19105.396      4761.7337      6862.7631      2471.9522     -1443.9376      76.094981     -1099.1364    
  38683000   251.94878     -355.84057     -282.01133     -355.84436      0              5988.7539      45.626296      20.047001      20.857         19077.28       5986.1983      6674.3296      5305.7338      269.08062      675.53649      63.632433    
  38683500   245.32908     -356.18117     -284.29172     -356.18846      0              7028.8134      45.119214      20.047001      20.857         18865.259      8155.9466      7218.0274      5712.4662     -113.86853      461.33995     -1934.4474    
  38684000   248.5899      -358.85371     -286.00873     -358.86143      0              3445.2511      45.197875      20.047001      20.857         18898.149      5690.151       650.65301      3994.9494     -508.77907      57.24676      -741.68539    
  38684500   248.32029     -356.521       -283.75502     -356.52332      0              5862.0343      45.849024      20.047001      20.857         19170.408      6911.2934      4768.7014      5906.1081     -778.49949     -444.06605     -2400.6253    
  38685000   252.64207     -355.05734     -281.02494     -355.06643      0              6079.3799      45.517952      20.047001      20.857         19031.98       8047.7195      7129.2512      3061.1689     -339.27896     -0.28585527     519.32539    
  38685500   251.10943     -355.92207     -282.33878     -355.92961      0              5022.8939      45.209917      20.047001      20.857         18903.184      7233.2591      4481.2303      3354.1923      677.65768      294.37491      190.32389    
  38686000   256.66032     -357.18044     -281.97056     -357.18876      0              5440.5658      45.413129      20.047001      20.857         18988.151      4685.4436      6901.7483      4734.5054     -565.92912      678.16681      251.00765    
  38686500   247.39708     -358.79552     -286.30007     -358.80121      0              4604.1261      45.499473      20.047001      20.857         19024.253      4199.3514      5855.7942      3757.2328      1349.3885     -1772.7774     -929.69986    
  38687000   245.7408      -356.07743     -284.06733     -356.08296      0              3676.3771      45.463571      20.047001      20.857         19009.242      2349.7024      4740.1785      3939.2503      691.73201     -142.2419      -906.44976    
  38687500   253.85129     -360.61029     -286.22355     -360.61662      0              4381.9954      45.459193      20.047001      20.857         19007.411      3980.0664      5438.8619      3727.058       462.65509      510.85996     -858.96299    
  38688000   242.98144     -356.86274     -285.66123     -356.86708      0              6578.587       45.492782      20.047001      20.857         19021.456      8412.7093      4917.1379      6405.9139      608.86849      1253.3171      207.36845    
  38688500   244.71561     -358.2387      -286.52901     -358.25189      0              2413.4335      45.586196      20.047001      20.857         19060.514      3370.5838      2434.4734      1435.2432      1678.7139     -38.354664     -598.6067     
  38689000   248.70828     -357.85775     -284.97808     -357.86268      0              5109.3882      45.593657      20.047001      20.857         19063.634      8068.4809      3815.5327      3444.1509     -496.797        1107.5163      315.90323    
  38689500   242.50297     -355.41931     -284.358       -355.4278       0              4827.7221      45.517658      20.047001      20.857         19031.857      7264.5463      4878.6903      2339.9298     -242.24586      1115.3093     -1496.1595    
  38690000   253.36435     -356.27763     -282.03358     -356.2867       0              6481.0791      45.603164      20.047001      20.857         19067.609      6418.6324      7073.2456      5951.3594      425.42613      2614.9717     -1241.0098    
  38690500   250.5187      -357.36607     -283.95589     -357.37513      0              7172.3218      45.629762      20.047001      20.857         19078.73       7143.2175      7826.2345      6547.5133     -872.95346     -884.03628      1086.1173    
  38691000   241.23932     -359.0135      -288.32248     -359.02019      0              3656.1572      45.675123      20.047001      20.857         19097.696      5740.5582      2677.5224      2550.3909     -163.61135      384.30022     -1509.7542    
  38691500   251.10062     -357.5016      -283.92089     -357.50767      0              5509.4481      45.512539      20.047001      20.857         19029.717      7511.1092      4414.1096      4603.1255     -1742.3805     -2878.1297     -1228.7445    
  38692000   248.01026     -356.90928     -284.23415     -356.91524      0              3538.6998      45.391259      20.047001      20.857         18979.007      2843.1112      4676.5839      3096.4042     -544.14773     -327.43224     -157.91203    
  38692500   239.7079      -356.64794     -286.40567     -356.65676      0              4204.1804      45.662044      20.047001      20.857         19092.228      3410.8286      5706.886       3494.8266      747.76971     -686.94366      967.52995    
  38693000   249.16494     -355.54645     -282.53297     -355.5505       0              6327.7057      45.817486      20.047001      20.857         19157.221      7133.489       6968.8311      4880.7969      1260.5171     -1048.6124      2440.2767    
  38693500   252.94997     -354.8915      -280.76888     -354.89742      0              3275.3901      45.887483      20.047001      20.857         19186.488      5598.8183      2789.9853      1437.3668      714.5691      -242.6983      -805.79237    
  38694000   252.78388     -357.62978     -283.55583     -357.63674      0              6564.592       45.485013      20.047001      20.857         19018.207      8387.7391      3916.4678      7389.5691     -541.98725      1133.2495     -8.7591822    
  38694500   244.93957     -355.84016     -284.06485     -355.8439       0              6661.8139      45.488606      20.047001      20.857         19019.709      7424.7914      5778.808       6781.8423     -579.92312      1204.801       340.64398    
  38695000   247.93534     -358.35821     -285.70503     -358.36418      0              4637.9529      45.633736      20.047001      20.857         19080.391      7514.2285      3946.0085      2453.6216      584.15124     -1093.8541     -111.61321    
  38695500   250.35263     -355.48821     -282.12669     -355.49592      0              6190.2667      45.857981      20.047001      20.857         19174.153      5021.8535      7006.3077      6542.639       460.09078     -603.05223     -115.625      
  38696000   254.22298     -357.45541     -282.95975     -357.46092      0              5137.0269      45.593305      20.047001      20.857         19063.486      6369.1179      5749.9592      3292.0036     -310.14208      510.95028      618.56682    
  38696500   252.43032     -356.78303     -282.81268     -356.79088      0              4425.4274      45.476746      20.047001      20.857         19014.751      4203.0785      2989.4154      6083.7882     -141.50688     -206.11443      110.08909    
  38697000   255.10095     -356.8784      -282.12547     -356.88403      0              6279.866       45.769903      20.047001      20.857         19137.325      8951.7913      5421.5306      4466.276       1181.5256     -599.07917     -2166.4623    
  38697500   247.01003     -358.03203     -285.65        -358.0405       0              5529.8874      45.83431       20.047001      20.857         19164.255      7814.8227      3682.0456      5092.794       230.2482       661.61935      606.2898     
  38698000   249.57875     -357.5912      -284.45645     -357.60019      0              6361.3851      45.626858      20.047001      20.857         19077.515      8103.2686      5778.1767      5202.7099      1677.2786      674.3277       899.47786    
  38698500   243.96741     -357.5621      -286.07166     -357.56637      0              4943.8579      45.75313       20.047001      20.857         19130.313      5117.3864      5959.1031      3755.0842     -587.33806      700.21655      329.9482     
  38699000   252.49552     -357.43115     -283.44169     -357.43931      0              4969.7842      45.853799      20.047001      20.857         19172.404      7120.4317      4658.3837      3130.537       304.10272     -123.60268     -190.68024    
  38699500   252.28474     -355.71914     -281.79145     -355.72079      0              3748.5675      45.970376      20.047001      20.857         19221.148      4832.8633      3022.6612      3390.1778     -1.8315786      1086.0924     -114.05262    
  38700000   250.98634     -357.86881     -284.32159     -357.87769      0              9256.1648      45.71439       20.047001      20.857         19114.115      9584.0021      8213.0218      9971.4707     -1953.9376     -182.70418     -1428.3819    
  38700500   248.11488     -358.29649     -285.5907      -358.30441      0              4420.0293      45.664658      20.047001      20.857         19093.32       6859.2195      3487.9058      2912.9626      1258.1082     -1845.6276     -1435.2459    
  38701000   248.93392     -357.86086     -284.91507     -357.86814      0              4489.1141      46.096292      20.047001      20.857         19273.795      3685.632       3016.5668      6765.1435     -651.26648      482.69821      26.699133    
  38701500   247.04279     -355.38753     -282.9959      -355.39637      0              4723.6706      46.164338      20.047001      20.857         19302.247      6184.4554      4691.3229      3295.2336     -25.894674     -799.98894     -173.28876    
  38702000   251.22728     -358.6007      -284.98288     -358.60177      0              4660.5646      45.611164      20.047001      20.857         19070.954      4240.2596      3853.274       5888.1602      1800.2939      616.10443      677.1241     
  38702500   254.99972     -357.14586     -282.42259     -357.15311      0              6474.1647      45.496101      20.047001      20.857         19022.843      7771.5215      8615.9381      3035.0344      5.5072106     -1147.3741      1582.5074    
  38703000   253.82351     -357.62063     -283.24203     -357.62965      0              4255.2049      45.79066       20.047001      20.857         19146.005      2936.9929      4112.1984      5716.4235      788.64687     -1314.8661      1044.2918    
  38703500   257.93947     -356.89245     -281.30774     -356.89725      0              6309.6541      45.592279      20.047001      20.857         19063.057      7941.0325      6315.1866      4672.7432     -310.14812      1426.6605      552.37152    
  38704000   252.5415      -357.90444     -283.90152     -357.91101      0              6015.0014      45.551879      20.047001      20.857         19046.165      6918.4924      6021.4234      5105.0884     -504.33617     -139.72219     -2778.0862    
  38704500   249.28213     -355.27176     -282.22393     -355.27999      0              4769.3347      45.686365      20.047001      20.857         19102.397      6440.6319      3563.2579      4304.1144     -678.39866      1128.7417     -487.76098    
  38705000   244.89697     -355.21905     -283.45622     -355.22704      0              6567.4255      45.708155      20.047001      20.857         19111.507      7105.1269      5229.7788      7367.3707     -587.483       -165.13278     -91.318866    
  38705500   251.16219     -357.0356      -283.43685     -357.04107      0              2390.6517      45.829538      20.047001      20.857         19162.26       1133.3502      2429.5689      3609.0361      1057.9478      992.89582     -461.95609    
  38706000   247.2947      -356.42758     -283.96213     -356.43339      0              6762.7431      45.43275       20.047001      20.857         18996.355      5991.2467      6574.7649      7722.2176      34.08569       370.34074      16.137057    
  38706500   244.68123     -354.59372     -282.89411     -354.60123      0              6623.0596      45.337151      20.047001      20.857         18956.383      6211.1296      8803.2438      4854.8054      1889.2895      1800.0593     -184.72833    
  38707000   248.436       -355.17397     -282.37409     -355.18306      0              6851.7028      45.789231      20.047001      20.857         19145.407      8561.0702      6104.6089      5889.4292      793.67817     -1844.4572      2001.4532    
  38707500   243.3831      -357.14592     -285.8267      -357.15374      0              3572.0864      46.060238      20.047001      20.857         19258.72       5879.939       1607.1903      3229.1298      3.2255545     -474.99844     -1703.1566    
  38708000   257.21206     -356.27631     -280.90475     -356.28536      0              3840.2181      45.840397      20.047001      20.857         19166.8        4845.0589      4437.2958      2238.2998     -813.92711      273.26462     -894.60563    
  38708500   250.56248     -359.07922     -285.65621     -359.0848       0              6329.5093      45.550157      20.047001      20.857         19045.445      6640.6456      7505.2277      4842.6544     -341.62833     -162.52268     -19.345806    
  38709000   254.29478     -357.19011     -282.67341     -357.19696      0              3415.6694      45.653053      20.047001      20.857         19088.468      3936.3904      2344.8027      3965.815       216.54623      448.52734      1426.7482    
  38709500   250.32707     -357.86429     -284.51026     -357.86929      0              6100.9256      46.047979      20.047001      20.857         19253.595      6611.4381      6006.9955      5684.3433     -363.10225      344.07839     -232.03261    
  38710000   253.07117     -359.01676     -284.85862     -359.0184       0              5314.3312      45.965592      20.047001      20.857         19219.147      2659.0098      7492.9785      5791.0054      353.11563     -1014.4797     -827.14851    
  38710500   257.3118      -357.70835     -282.30757     -357.71445      0              5916.0458      45.517277      20.047001      20.857         19031.698      7416.3579      3769.5098      6562.2695     -545.72023     -574.95962     -1387.5352    
  38711000   253.82131     -357.38997     -283.01202     -357.39163      0              6417.6955      45.566396      20.047001      20.857         19052.235      4187.5936      8319.3015      6746.1915     -811.8214       107.87444      270.49654    
  38711500   255.35426     -356.91255     -282.08539     -356.91422      0              4023.0096      45.786249      20.047001      20.857         19144.16       4795.193       4307.1642      2966.6715     -366.59834     -159.07114      1198.0662    
  38712000   258.70706     -358.1584      -282.34876     -358.16712      0              4880.7839      45.535696      20.047001      20.857         19039.399      7267.8621      2611.1554      4763.3341      866.33753      225.28189     -2207.06      
  38712500   255.39792     -355.7002      -280.86025     -355.7058       0              6336.4055      45.907139      20.047001      20.857         19194.707      5533.8324      6118.9463      7356.4379      507.02936      1133.0504      269.56214    
  38713000   253.12718     -354.68158     -280.50703     -354.68738      0              3598.4197      46.093299      20.047001      20.857         19272.544      5042.1623      4348.0658      1405.0311      578.4123      -2066.5419     -228.60985    
  38713500   249.61481     -357.683       -284.53769     -357.69091      0              5554.7381      45.736505      20.047001      20.857         19123.361      5639.8831      6889.3803      4134.9509      630.54956     -107.44145      76.81726     
  38714000   251.12985     -355.97834     -282.38907     -355.99545      0              5377.2202      45.488067      20.047001      20.857         19019.484      4356.2961      5480.9044      6294.4602      417.95241     -1188.3329      1244.6864    
  38714500   246.722       -355.9011      -283.60347     -355.90775      0              4070.2105      45.49224       20.047001      20.857         19021.229      3988.7757      3861.4182      4360.4376      966.1287      -988.88169     -1344.8861    
  38715000   255.72198     -358.91891     -283.984       -358.92802      0              5363.4823      45.57893       20.047001      20.857         19057.476      4381.9708      7134.1744      4574.3019      140.23754     -1517.0191      1438.7504    
  38715500   253.90345     -356.33948     -281.93745     -356.34504      0              4173.3356      45.763237      20.047001      20.857         19134.538      4215.9639      4020.9404      4283.1025     -697.56942     -422.40903     -3711.6902    
  38716000   248.85621     -356.03838     -283.11536     -356.04653      0              4922.7488      45.559951      20.047001      20.857         19049.54       5142.0828      2927.2632      6698.9004      166.53316     -666.83416      413.65043    
  38716500   249.10513     -355.90426     -282.9083      -355.90377      0              6384.6755      45.294779      20.047001      20.857         18938.667      7770.3131      6119.7884      5263.9251      709.46125      679.86798      1164.0692    
WARNING: Wall time limit reached (../timer.cpp:193)
Loop time of 85809.7 on 4 procs for 3719000 steps with 2268 atoms

Performance: 1.872 ns/day, 12.819 hours/ns, 43.340 timesteps/s
952.5% CPU use with 4 MPI tasks x no OpenMP threads

MPI task timing breakdown:
Section |  min time  |  avg time  |  max time  |%varavg| %total
---------------------------------------------------------------
Pair    | 46738      | 47022      | 47312      | 113.1 | 54.80
Bond    | 0.4473     | 0.47053    | 0.49398    |   2.4 |  0.00
Neigh   | 1214.1     | 1247.2     | 1273.3     |  69.9 |  1.45
Comm    | 4850.1     | 5089.1     | 5301.6     | 264.9 |  5.93
Output  | 2948.9     | 2949       | 2949.1     |   0.1 |  3.44
Modify  | 29402      | 29491      | 29577      |  47.2 | 34.37
Other   |            | 10.87      |            |       |  0.01

Nlocal:            567 ave         585 max         548 min
Histogram: 1 0 0 0 1 0 1 0 0 1
Nghost:        3801.25 ave        3829 max        3770 min
Histogram: 1 0 0 0 1 0 1 0 0 1
Neighs:              0 ave           0 max           0 min
Histogram: 4 0 0 0 0 0 0 0 0 0
FullNghs:       145308 ave      150550 max      139147 min
Histogram: 1 0 0 0 1 0 0 1 0 1

Total # of neighbors = 581234
Ave neighs/atom = 256.27601
Ave special neighs/atom = 0
Neighbor list builds = 371900
Dangerous builds not checked

unfix		4
unfix		3
unfix		1

write_data	data.final.${pid}
write_data	data.final.0
System init for write_data ...
Generated 0 of 1 mixed pair_coeff terms from geometric mixing rule
write_restart	restart.lmp.${pid}
write_restart	restart.lmp.0
System init for write_restart ...
Generated 0 of 1 mixed pair_coeff terms from geometric mixing rule
Total wall time: 23:50:28
