LAMMPS (23 Jun 2022)
echo both

include		in.partitions
variable        pid world 0
include		in.temp
variable	temperature equal 250.0
variable        tempDamp equal 0.100 # this is 0.1 ps
include		in.pressure
variable        pressure equal 6079.5
variable        pressureDamp equal 1.0 #this is 1ps
include		in.seed
variable        seed world 745823

units           metal
atom_style	full
read_restart	restart.lmp.${pid}
read_restart	restart.lmp.0
Reading restart file ...
  restart file = 23 Jun 2022, LAMMPS = 23 Jun 2022
  restoring atom style full from restart
  orthogonal box = (1.0012075 0 0) to (46.449491 20.047001 20.857)
  4 by 1 by 1 MPI processor grid
Summary of lammps deepmd module ...
  >>> Info of deepmd-kit:
  installed to:       /u/sigbjobo/software/DEEPMD_FROM_SOURCE/deepmd-kit/install
  source:             v2.1.3
  source branch:       master
  source commit:      5a32c49
  source commit at:   2022-07-01 09:52:58 +0800
  surpport model ver.:1.1 
  build float prec:   double
  build with tf inc:  /u/sigbjobo/software/DEEPMD_FROM_SOURCE/tensorflow/install/include;/u/sigbjobo/software/DEEPMD_FROM_SOURCE/tensorflow/install/include
  build with tf lib:  /u/sigbjobo/software/DEEPMD_FROM_SOURCE/tensorflow/install/lib/libtensorflow_cc.so;/u/sigbjobo/software/DEEPMD_FROM_SOURCE/tensorflow/install/lib/libtensorflow_framework.so
  set tf intra_op_parallelism_threads: 0
  set tf inter_op_parallelism_threads: 0
  >>> Info of lammps module:
  use deepmd-kit at:  /u/sigbjobo/software/DEEPMD_FROM_SOURCE/deepmd-kit/install
  source:             v2.1.3
  source branch:      master
  source commit:      5a32c49
  source commit at:   2022-07-01 09:52:58 +0800
  build float prec:   double
  build with tf inc:  /u/sigbjobo/software/DEEPMD_FROM_SOURCE/tensorflow/install/include;/u/sigbjobo/software/DEEPMD_FROM_SOURCE/tensorflow/install/include
  build with tf lib:  /u/sigbjobo/software/DEEPMD_FROM_SOURCE/tensorflow/install/lib/libtensorflow_cc.so;/u/sigbjobo/software/DEEPMD_FROM_SOURCE/tensorflow/install/lib/libtensorflow_framework.so
  restoring pair style deepmd from restart
  2268 atoms
Finding 1-2 1-3 1-4 neighbors ...
  special bond factors lj:    0        0        0       
  special bond factors coul:  0        0        0       
     0 = max # of 1-2 neighbors
     0 = max # of 1-3 neighbors
     0 = max # of 1-4 neighbors
     1 = max # of special neighbors
  special bonds CPU = 0.000 seconds
  read_restart CPU = 0.023 seconds
include 	in.setup
variable	out_freq equal 500
variable	out_freq2 equal 1000
variable	out_freq3 equal 5000

timestep        0.0005

neigh_modify    delay 7 every 1

include         in.deepmd
# This is deepMD model

# create groups ###
#group ox type 2
#group hy type 1

mass 2 15.999
mass 1 1.008

pair_style      deepmd ../graph.pb
pair_coeff      * *

bond_style      none
angle_style     none
dihedral_style  none
improper_style  none
neigh_modify exclude none


neighbor        2.0 bin
neigh_modify    every 10 delay 0 check no

thermo          ${out_freq}
thermo          500
thermo_style 	custom step temp pe etotal epair emol press lx ly lz vol pxx pyy pzz pxy pxz pyz
#thermo_modify	flush yes
restart 	${out_freq} restart.lmp.${pid} restart2.lmp.${pid}
restart 	500 restart.lmp.${pid} restart2.lmp.${pid}
restart 	500 restart.lmp.0 restart2.lmp.${pid}
restart 	500 restart.lmp.0 restart2.lmp.0

include		in.dump
dump            myDump all atom ${out_freq3} dump.water.${pid}
dump            myDump all atom 5000 dump.water.${pid}
dump            myDump all atom 5000 dump.water.0
dump            myDump2 all dcd ${out_freq2} dump.dcd.${pid}
dump            myDump2 all dcd 1000 dump.dcd.${pid}
dump            myDump2 all dcd 1000 dump.dcd.0
dump_modify     myDump append yes
dump_modify     myDump2 append yes


timer           timeout 23:50:00 every 1000
New timer settings: style=normal  mode=nosync  timeout=23:50:00

fix             1 all plumed plumedfile plumed.dat outfile plumed.out
fix             3 all nph x ${pressure} ${pressure} ${pressureDamp}
fix             3 all nph x 6079.5 ${pressure} ${pressureDamp}
fix             3 all nph x 6079.5 6079.5 ${pressureDamp}
fix             3 all nph x 6079.5 6079.5 1
Resetting global fix info from restart file:
  fix style: nph, fix ID: 3
fix             4 all temp/csvr ${temperature} ${temperature} ${tempDamp} ${seed}
fix             4 all temp/csvr 250 ${temperature} ${tempDamp} ${seed}
fix             4 all temp/csvr 250 250 ${tempDamp} ${seed}
fix             4 all temp/csvr 250 250 0.1 ${seed}
fix             4 all temp/csvr 250 250 0.1 745823
Resetting global fix info from restart file:
  fix style: temp/csvr, fix ID: 4

run             40000000 upto

CITE-CITE-CITE-CITE-CITE-CITE-CITE-CITE-CITE-CITE-CITE-CITE-CITE

Your simulation uses code contributions which should be cited:

- USER-DEEPMD package:

@article{Wang_ComputPhysCommun_2018_v228_p178,
  author = {Wang, Han and Zhang, Linfeng and Han, Jiequn and E, Weinan},
  doi = {10.1016/j.cpc.2018.03.016},
  url = {https://doi.org/10.1016/j.cpc.2018.03.016},
  year = 2018,
  month = {jul},
  publisher = {Elsevier {BV}},
  volume = 228,
  journal = {Comput. Phys. Commun.},
  title = {{DeePMD-kit: A deep learning package for many-body potential energy representation and molecular dynamics}},
  pages = {178--184}
}

CITE-CITE-CITE-CITE-CITE-CITE-CITE-CITE-CITE-CITE-CITE-CITE-CITE

Generated 0 of 1 mixed pair_coeff terms from geometric mixing rule
All restart file global fix info was re-assigned
Neighbor list info ...
  update every 10 steps, delay 0 steps, check no
  max neighbors/atom: 2000, page size: 100000
  master list distance cutoff = 8
  ghost atom cutoff = 8
  binsize = 4, bins = 12 6 6
  1 neighbor lists, perpetual/occasional/extra = 1 0 0
  (1) pair deepmd, perpetual
      attributes: full, newton on
      pair build: full/bin
      stencil: full/bin/3d
      bin: standard
Per MPI rank memory allocation (min/avg/max) = 6.149 | 6.153 | 6.156 Mbytes
   Step          Temp          PotEng         TotEng         E_pair         E_mol          Press            Lx             Ly             Lz           Volume          Pxx            Pyy            Pzz            Pxy            Pxz            Pyz      
  21748500   253.60474     -358.85108     -284.53659     -358.85108      0              5366.4607      45.448284      20.047001      20.857         19002.85       7438.508       3544.3621      5116.5119     -1720.595       723.61404     -33.291281    
  21749000   254.19455     -357.35793     -282.8706      -357.35202      0              6292.9071      45.424753      20.047001      20.857         18993.011      3265.591       9592.1839      6020.9463     -525.44008      417.87576      674.31452    
  21749500   255.69836     -360.88628     -285.95828     -360.87968      0              4087.5236      45.529282      20.047001      20.857         19036.717      4465.4234      3495.9737      4301.1737      544.43162     -339.25514     -832.26052    
  21750000   253.58596     -358.95297     -284.64398     -358.95196      0              7313.0611      45.477857      20.047001      20.857         19015.215      8891.2708      6711.0526      6336.8599     -525.23751      345.58805      343.79939    
  21750500   254.62371     -359.43676     -284.82367     -359.43376      0              3836.6675      45.477612      20.047001      20.857         19015.113      2997.1627      4600.2846      3912.5553      108.48679      675.63982      208.56829    
  21751000   245.29345     -358.68736     -286.80834     -358.67448      0              6402.5899      45.180363      20.047001      20.857         18890.827      8320.5545      6055.878       4831.3371     -72.498489     -1939.5132      1678.893     
  21751500   254.87251     -358.7922      -284.10621     -358.78154      0              3665.5341      45.191512      20.047001      20.857         18895.489      4470.3731      3133.6119      3392.6173      294.50255      575.97788      842.86453    
  21752000   250.62066     -359.57979     -286.13973     -359.57355      0              3452.2196      45.522228      20.047001      20.857         19033.768      5515.58        1501.4411      3339.6375     -1626.014      -1452.7636     -534.58763    
  21752500   250.74755     -358.6252      -285.14795     -358.61487      0              5687.2502      45.389965      20.047001      20.857         18978.466      7484.2638      5385.1704      4192.3163     -1290.3956      514.39254      942.95155    
  21753000   258.83069     -358.27936     -282.43349     -358.27621      0              5389.0843      45.223594      20.047001      20.857         18908.903      6053.3953      5486.0052      4627.8524      404.77288     -1299.1165      1228.3509    
  21753500   252.55173     -358.36976     -284.36383     -358.37427      0              5195.296       45.369729      20.047001      20.857         18970.005      4269.2504      5558.9581      5757.6796      545.9978       1442.5123      848.95044    
  21754000   251.93103     -359.10629     -285.28225     -359.10911      0              5339.8793      45.559829      20.047001      20.857         19049.489      5671.8729      5223.0074      5124.7575     -269.91773     -171.42149     -1973.3098    
  21754500   248.68908     -359.14785     -286.2738      -359.15328      0              6337.0169      45.544973      20.047001      20.857         19043.278      5418.4579      6146.5304      7446.0624     -87.879404      160.71173      214.96828    
  21755000   244.00152     -356.65352     -285.15309     -356.64966      0              4261.5205      45.491936      20.047001      20.857         19021.102      4740.4105      5203.2179      2840.9332     -628.63319      770.77449     -1293.4231    
  21755500   247.89363     -355.77402     -283.13306     -355.77067      0              6394.6301      45.345889      20.047001      20.857         18960.037      4499.9721      7070.4703      7613.4479     -873.92588     -133.56971      309.68559    
  21756000   250.52458     -360.57751     -287.1656      -360.57965      0              4524.0025      45.28714       20.047001      20.857         18935.473      5158.3724      2492.405       5921.2299      362.10268      1422.0401     -1856.3024    
  21756500   259.56675     -358.4953      -282.43374     -358.50264      0              3648.3986      45.291295      20.047001      20.857         18937.21       2947.1684      4929.2542      3068.7731      788.94987     -40.682913      632.90602    
  21757000   252.47506     -359.08789     -285.10443     -359.08653      0              5778.0539      45.313903      20.047001      20.857         18946.663      5736.7526      7408.4916      4188.9175      562.63304      306.61407     -1111.162     
  21757500   244.12442     -359.01656     -287.48011     -359.01964      0              6199.4482      45.374907      20.047001      20.857         18972.17       8219.628       5392.8616      4985.855      -561.12181     -2309.4354     -335.6486     
  21758000   254.33811     -362.16053     -287.63113     -362.16534      0              3798.8327      45.492035      20.047001      20.857         19021.143      3327.7694      5446.6646      2622.0642     -211.07344     -571.67381      1189.6845    
  21758500   249.36954     -359.83548     -286.76204     -359.84377      0              4239.6677      45.146772      20.047001      20.857         18876.782      5385.8326      2662.5543      4670.6161      325.95548      231.05635     -567.55123    
  21759000   244.94059     -357.66167     -285.88606     -357.66979      0              6219.7773      44.953011      20.047001      20.857         18795.766      6222.8975      5979.4147      6457.0197      358.12489     -447.08516     -542.55505    
  21759500   241.91863     -359.80791     -288.91783     -359.80258      0              2704.2757      45.25234       20.047001      20.857         18920.922      3058.7781      4149.0876      904.96155     -829.06536     -883.44253     -499.9403     
  21760000   244.54114     -358.64199     -286.98343     -358.63581      0              4532.7431      45.428078      20.047001      20.857         18994.402      3724.9507      4790.1981      5083.0804     -935.38952     -1543.8118     -1119.3095    
  21760500   250.67421     -359.15238     -285.69663     -359.14381      0              7301.3814      45.228105      20.047001      20.857         18910.789      10128.907      7657.0123      4118.2248      1226.6395      193.81964     -82.14731     
  21761000   255.13803     -358.14444     -283.38064     -358.15196      0              7422.1924      45.305566      20.047001      20.857         18943.177      8741.3627      6808.2773      6716.9373     -129.89425     -650.39794      789.33333    
  21761500   242.34456     -357.82063     -286.80574     -357.82332      0              5134.1963      45.355538      20.047001      20.857         18964.071      4985.5167      6795.6131      3621.4593     -9.1264435      1133.1113      428.89706    
  21762000   251.74714     -360.49908     -286.72892     -360.49838      0              5136.7971      45.309005      20.047001      20.857         18944.615      5429.5601      5386.7582      4594.073      -585.09874      324.26539     -438.0393     
  21762500   246.34097     -355.97629     -283.79032     -355.98476      0              5189.8557      45.240847      20.047001      20.857         18916.116      6260.9788      4242.5778      5066.0104      76.292326      172.82229      1118.8221    
  21763000   252.57182     -359.77028     -285.75846     -359.774        0              4343.3443      45.309659      20.047001      20.857         18944.888      4281.4772      5642.0771      3106.4785      86.978648     -824.72041     -966.87565    
  21763500   252.47223     -358.97736     -284.99473     -358.97753      0              3919.6436      45.4461        20.047001      20.857         19001.937      3989.3735      1848.0814      5921.4759      278.44343      92.407328      1055.0949    
  21764000   250.81219     -358.90891     -285.41272     -358.90353      0              7029.1283      45.316627      20.047001      20.857         18947.802      7185.2616      6950.2953      6951.828      -390.62115      860.02886      705.3948     
  21764500   248.10799     -360.22736     -287.52359     -360.22315      0              4418.0476      45.445463      20.047001      20.857         19001.671      7713.7111      2115.7844      3424.6472     -992.25508      132.28591     -1133.7887    
  21765000   250.98776     -360.44043     -286.89279     -360.44242      0              6221.8406      45.493651      20.047001      20.857         19021.819      5238.7455      6456.8607      6969.9157      471.98784     -1161.478       878.01925    
  21765500   243.84362     -354.20791     -282.75375     -354.21623      0              2211.2392      45.372018      20.047001      20.857         18970.962      3755.5749     -216.60561      3094.7485      855.32172      564.01001      261.32388    
  21766000   247.24539     -358.51587     -286.06487     -358.50806      0              7501.0507      45.217834      20.047001      20.857         18906.494      8579.1262      5855.5544      8068.4714     -1036.5563     -342.99484     -420.02947    
  21766500   251.46503     -356.78995     -283.10246     -356.79112      0              4246.8373      45.32488       20.047001      20.857         18951.252      6318.1084      3455.7072      2966.6963      614.57319     -1605.8193      1136.7234    
  21767000   251.97662     -358.93242     -285.09502     -358.93358      0              5878.8299      45.618689      20.047001      20.857         19074.1        7543.3662      4101.8227      5991.3008      543.03044      42.162611      842.49758    
  21767500   251.32547     -358.22117     -284.57458     -358.21888      0              4444.8007      45.557127      20.047001      20.857         19048.359      5657.9524      3773.3979      3903.0517      1292.2708     -808.85766     -1385.2811    
  21768000   255.7746      -358.62072     -283.67038     -358.61854      0              6463.9777      45.140757      20.047001      20.857         18874.267      6893.4237      5386.0248      7112.4847     -212.40905     -392.93993     -570.82322    
  21768500   250.45518     -356.74133     -283.34976     -356.7472       0              5335.9101      45.147342      20.047001      20.857         18877.02       5137.3315      4068.6378      6801.7609      773.14621     -303.4204       68.764325    
  21769000   252.61293     -357.58571     -283.56185     -357.5885       0              6877.1003      45.464629      20.047001      20.857         19009.684      6458.5765      6435.9344      7736.7901      445.40634      1196.6397     -108.31412    
  21769500   251.17999     -359.47634     -285.87238     -359.48378      0              5631.2447      45.605979      20.047001      20.857         19068.786      5115.201       7092.4817      4686.0513      531.59398      1113.3659      724.31441    
  21770000   246.12687     -358.27888     -286.15564     -358.28805      0              5504.2383      45.122326      20.047001      20.857         18866.56       4400.5808      5857.7879      6254.346      -440.16003      154.71523     -821.58894    
  21770500   246.12764     -359.4243      -287.30084     -359.42372      0              7583.859       44.927349      20.047001      20.857         18785.037      8195.5647      9465.5468      5090.4656      1097.3261      1349.7915     -218.73146    
  21771000   240.43515     -358.57261     -288.11723     -358.56197      0              3708.6002      45.488285      20.047001      20.857         19019.575      4318.9991      4354.8339      2451.9677      640.0959       588.97179      898.84232    
  21771500   251.231       -362.39189     -288.77298     -362.39211      0              5272.6855      45.485731      20.047001      20.857         19018.507      6701.9345      3258.3156      5857.8065      727.36189     -148.96111      21.141412    
  21772000   249.20173     -358.35647     -285.3322      -358.35973      0              3967.9736      45.226839      20.047001      20.857         18910.26       3736.1409      3817.2027      4350.5773     -399.59482     -630.6738      -1204.0153    
  21772500   245.03738     -357.7405      -285.93652     -357.74288      0              6486.2813      45.315644      20.047001      20.857         18947.391      6814.0807      6956.2987      5688.4646      1002.5629      351.56616      770.29935    
  21773000   245.48686     -358.43782     -286.50213     -358.4409       0              4921.8655      45.46963       20.047001      20.857         19011.775      4805.2677      6223.2585      3737.0702      177.11797      616.33444     -1844.8743    
  21773500   255.56284     -357.86362     -282.97534     -357.86419      0              5867.9163      45.429955      20.047001      20.857         18995.186      9597.1664      4159.7557      3846.8267     -968.60352     -460.13819     -2713.572     
  21774000   245.70087     -356.25346     -284.25506     -356.25625      0              4982.529       45.514359      20.047001      20.857         19030.477      4464.9666      4275.9937      6206.6267      20.050717     -5.4960981      956.65173    
  21774500   245.72743     -357.79595     -285.78977     -357.79497      0              5704.9186      45.588578      20.047001      20.857         19061.51       5369.5653      7062.2758      4682.9148      298.12913     -79.469771      300.306      
  21775000   254.77073     -358.55601     -283.89984     -358.55884      0              7928.7941      45.327172      20.047001      20.857         18952.211      8963.8025      7852.9722      6969.6077      811.40505      525.85745     -822.03196    
  21775500   243.92364     -358.11235     -286.63473     -358.11191      0              3073.9906      45.260402      20.047001      20.857         18924.293      4946.3038      2168.0308      2107.6371     -572.87372      67.122534      180.39912    
  21776000   249.46868     -357.80058     -284.69809     -357.80187      0              5096.78        45.402317      20.047001      20.857         18983.63       6322.6736      4301.4309      4666.2353     -646.4692       217.07394      601.33958    
  21776500   251.70981     -359.82932     -286.0701      -359.82626      0              4459.0136      45.543692      20.047001      20.857         19042.742      5091.7669      4686.4339      3598.8399     -603.92224      690.62677     -619.53773    
  21777000   247.54455     -357.41264     -284.87398     -357.40082      0              5852.9216      45.200393      20.047001      20.857         18899.202      7113.7212      6187.2837      4257.7598     -1565.1686     -732.66209      2541.313     
  21777500   242.16086     -357.6717      -286.71064     -357.67588      0              5246.0211      45.395884      20.047001      20.857         18980.941      3498.2529      6965.8312      5273.9793     -2360.7413      420.97482     -373.07272    
  21778000   253.52514     -360.94198     -286.65081     -360.93653      0              5565.1549      45.479894      20.047001      20.857         19016.067      4128.0177      6383.7531      6183.6937      933.14466      1263.7026     -371.8585     
  21778500   249.65773     -359.48818     -286.33029     -359.49037      0              4356.3393      45.282921      20.047001      20.857         18933.709      6371.7432      2855.0018      3842.2729      1146.5425      466.26158     -1551.6702    
  21779000   240.79702     -357.49105     -286.92964     -357.49387      0              7249.7317      44.970671      20.047001      20.857         18803.151      7193.8949      8684.5594      5870.7407      392.23962      38.856333      2000.1991    
  21779500   249.70129     -358.4997      -285.32905     -358.49314      0              4926.7413      45.127107      20.047001      20.857         18868.559      4750.8628      5567.4388      4461.9222      276.59033     -1649.6024      1415.5566    
  21780000   246.25872     -357.05161     -284.88974     -357.05414      0              6702.2653      45.593218      20.047001      20.857         19063.45       7038.3903      6298.7408      6769.665      -1305.9168     -745.64232     -432.02073    
  21780500   248.70307     -359.32775     -286.4496      -359.32886      0              6852.3203      45.309162      20.047001      20.857         18944.68       7790.6624      7678.3617      5087.9369     -9.1405444      1583.2584     -483.05957    
  21781000   251.98305     -360.19458     -286.3553      -360.19087      0              5288.908       45.130829      20.047001      20.857         18870.116      5857.2811      6293.177       3716.2659      950.80529      951.8899      -342.94945    
  21781500   244.23004     -358.19563     -286.62823     -358.18367      0              5154.6614      45.427208      20.047001      20.857         18994.038      6431.7551      5462.0245      3570.2046      295.62831     -1553.1501     -1419.0205    
  21782000   247.04665     -357.27015     -284.87739     -357.27089      0              2738.8382      45.677357      20.047001      20.857         19098.63       3313.2203      4334.595       568.6992       229.29165      1272.2897     -1681.3138    
  21782500   242.93036     -357.23547     -286.04891     -357.23396      0              5155.2767      45.257092      20.047001      20.857         18922.909      6554.234       5288.863       3622.733      -2203.1773      449.55507      2955.6078    
  21783000   252.16864     -357.97289     -284.07922     -357.96089      0              5790.8125      44.849293      20.047001      20.857         18752.4        10170.546      3677.4743      3524.4168      222.27699     -1323.928      -252.69401    
  21783500   247.5019      -358.20248     -285.67631     -358.20146      0              4456.0895      45.364342      20.047001      20.857         18967.752      3663.8712      4963.8351      4740.5621     -1849.1705     -331.28767      997.63085    
  21784000   245.22089     -357.84023     -285.98248     -357.82434      0              4024.4143      45.615364      20.047001      20.857         19072.71       5009.1717      2948.6742      4115.397      -320.45766      559.13033     -367.01753    
  21784500   252.52385     -356.73133     -282.73357     -356.71725      0              4695.0684      45.432118      20.047001      20.857         18996.091      5755.8182      4550.1151      3779.272       835.28765      231.71131     -256.90641    
  21785000   248.56106     -358.26189     -285.42535     -358.24391      0              6897.1747      45.288419      20.047001      20.857         18936.007      9792.5137      2971.9869      7927.0233     -929.73631     -1105.7205     -223.88249    
  21785500   249.03875     -356.76226     -283.78575     -356.75691      0              5064.03        45.310668      20.047001      20.857         18945.31       4690.1892      6351.2812      4150.6197      162.27299      2333.7051      55.533655    
  21786000   248.15644     -360.13153     -287.41356     -360.1324       0              7016.1893      45.497712      20.047001      20.857         19023.517      5593.5872      7919.1407      7535.8399      214.82917      1767.1786      2022.1593    
  21786500   248.15572     -357.8198      -285.10205     -357.81373      0              4578.6924      45.500599      20.047001      20.857         19024.724      5753.7312      4939.593       3042.7529      30.270037     -457.15594      1449.2447    
  21787000   255.25952     -355.56394     -280.76454     -355.55238      0              6892.9397      45.302294      20.047001      20.857         18941.809      8488.1963      7168.7614      5021.8613     -1090.6913      1054.7844      151.10885    
  21787500   253.41048     -356.48485     -282.22728     -356.48555      0              5526.2307      45.352943      20.047001      20.857         18962.986      6393.933       5601.1029      4583.6561     -798.34848      497.06002     -822.66978    
  21788000   254.27019     -357.48099     -282.9715      -357.48656      0              4382.749       45.614809      20.047001      20.857         19072.478      5819.4579      3697.3527      3631.4365     -1627.6726      710.70207      623.58564    
  21788500   253.1994      -356.45627     -282.26055     -356.45476      0              5129.7088      45.739674      20.047001      20.857         19124.686      4479.1915      5634.3397      5275.5952     -219.62475      271.63309     -308.90344    
  21789000   254.13079     -358.5353      -284.06666     -358.52802      0              5090.0899      45.147541      20.047001      20.857         18877.103      6459.0613      6339.2825      2471.926      -471.64802      2484.6577      958.22144    
  21789500   254.47867     -357.18538     -282.61479     -357.18418      0              3846.7029      45.203008      20.047001      20.857         18900.295      2121.7703      4779.1983      4639.1401      511.44824     -114.23495      65.028083    
  21790000   254.67094     -357.01775     -282.39083     -357.01691      0              6038.5755      45.498414      20.047001      20.857         19023.81       5459.6825      6843.6804      5812.3637     -785.07365      257.94527      1711.757     
  21790500   255.18387     -356.60937     -281.83214     -356.61293      0              4230.0673      45.52099       20.047001      20.857         19033.25       4515.6926      2860.6482      5313.861      -870.81966     -114.82541     -122.66151    
  21791000   250.32899     -355.85957     -282.50498     -355.85919      0              4389.8051      45.556321      20.047001      20.857         19048.023      7246.1531      3204.9565      2718.3056      786.82102      2126.6187     -420.01819    
  21791500   246.83917     -359.62929     -287.29733     -359.62909      0              5522.528       45.440192      20.047001      20.857         18999.467      7168.4487      5018.2841      4380.8511      679.3579       157.415       -813.58031    
  21792000   246.6117      -359.06504     -286.79974     -359.06804      0              6816.7281      45.49842       20.047001      20.857         19023.813      5373.6716      7446.6091      7629.9036      240.36892      469.72797     -861.53974    
  21792500   250.24313     -358.12825     -284.79882     -358.12943      0              4807.3956      45.515198      20.047001      20.857         19030.828      3959.3236      5408.478       5054.3851     -505.32301      1349.7633      334.61633    
  21793000   246.77815     -360.32649     -288.01241     -360.32395      0              4999.9961      45.664813      20.047001      20.857         19093.385      4723.0391      4942.9301      5334.0192      348.93387     -127.757       -114.2872     
  21793500   254.72889     -358.47992     -283.83601     -358.47374      0              4883.8265      45.672669      20.047001      20.857         19096.67       5008.0429      5083.6842      4559.7523      925.47867      848.98341      617.79175    
  21794000   252.73361     -357.78249     -283.72327     -357.78448      0              5599.2159      45.424913      20.047001      20.857         18993.078      7011.9512      5380.5894      4405.1072     -1113.7787      424.71293     -324.46875    
  21794500   245.04914     -359.45496     -287.64753     -359.45785      0              4880.3577      45.405916      20.047001      20.857         18985.135      4338.6863      5358.6671      4943.7199      610.83701      683.90633      355.97356    
  21795000   253.46704     -357.01797     -282.74382     -357.02682      0              6959.1796      45.709768      20.047001      20.857         19112.182      6557.6013      7331.1633      6988.7743     -744.95782     -425.06123     -707.3608     
  21795500   250.32093     -359.98501     -286.63278     -359.98048      0              6560.1422      45.616575      20.047001      20.857         19073.216      8074.8983      7499.3436      4106.1848     -576.43148      1031.1897      830.37938    
  21796000   252.71246     -358.93151     -284.87849     -358.93082      0              6294.0891      45.280563      20.047001      20.857         18932.723      7719.9827      6834.49        4327.7948      670.36978     -1005.326       327.78718    
  21796500   250.87467     -358.01797     -284.50348     -358.01923      0              4222.87        45.500907      20.047001      20.857         19024.853      5844.215       2323.0819      4501.3131      417.32456      425.38506      860.10311    
  21797000   243.75163     -357.29645     -285.86924     -357.29617      0              3999.0531      45.669031      20.047001      20.857         19095.149      3700.2625      5298.0463      2998.8506      690.30813      1477.6994     -712.3952     
  21797500   246.52493     -357.97313     -285.73325     -357.97508      0              5369.8243      45.437325      20.047001      20.857         18998.268      5432.5807      6874.039       3802.853      -125.97882     -1283.7223     -240.0207     
ERROR on proc 0: Cannot open restart file restart.lmp.0: Permission denied (../write_restart.cpp:233)
Last command: run             40000000 upto
