LAMMPS (23 Jun 2022)
echo both

include		in.partitions
variable        pid world 0
include		in.temp
variable	temperature equal 250.0
variable        tempDamp equal 0.100 # this is 0.1 ps
include		in.pressure
variable        pressure equal 6079.5
variable        pressureDamp equal 1.0 #this is 1ps
include		in.seed
variable        seed world 745823

units           metal
atom_style	full
read_restart	restart.lmp.${pid}
read_restart	restart.lmp.0
Reading restart file ...
  restart file = 23 Jun 2022, LAMMPS = 23 Jun 2022
  restoring atom style full from restart
  orthogonal box = (0.99851737 0 0) to (46.452182 20.047001 20.857)
  4 by 1 by 1 MPI processor grid
Summary of lammps deepmd module ...
  >>> Info of deepmd-kit:
  installed to:       /u/sigbjobo/software/DEEPMD_FROM_SOURCE/deepmd-kit/install
  source:             v2.1.3
  source branch:       master
  source commit:      5a32c49
  source commit at:   2022-07-01 09:52:58 +0800
  surpport model ver.:1.1 
  build float prec:   double
  build with tf inc:  /u/sigbjobo/software/DEEPMD_FROM_SOURCE/tensorflow/install/include;/u/sigbjobo/software/DEEPMD_FROM_SOURCE/tensorflow/install/include
  build with tf lib:  /u/sigbjobo/software/DEEPMD_FROM_SOURCE/tensorflow/install/lib/libtensorflow_cc.so;/u/sigbjobo/software/DEEPMD_FROM_SOURCE/tensorflow/install/lib/libtensorflow_framework.so
  set tf intra_op_parallelism_threads: 0
  set tf inter_op_parallelism_threads: 0
  >>> Info of lammps module:
  use deepmd-kit at:  /u/sigbjobo/software/DEEPMD_FROM_SOURCE/deepmd-kit/install
  source:             v2.1.3
  source branch:      master
  source commit:      5a32c49
  source commit at:   2022-07-01 09:52:58 +0800
  build float prec:   double
  build with tf inc:  /u/sigbjobo/software/DEEPMD_FROM_SOURCE/tensorflow/install/include;/u/sigbjobo/software/DEEPMD_FROM_SOURCE/tensorflow/install/include
  build with tf lib:  /u/sigbjobo/software/DEEPMD_FROM_SOURCE/tensorflow/install/lib/libtensorflow_cc.so;/u/sigbjobo/software/DEEPMD_FROM_SOURCE/tensorflow/install/lib/libtensorflow_framework.so
  restoring pair style deepmd from restart
  2268 atoms
Finding 1-2 1-3 1-4 neighbors ...
  special bond factors lj:    0        0        0       
  special bond factors coul:  0        0        0       
     0 = max # of 1-2 neighbors
     0 = max # of 1-3 neighbors
     0 = max # of 1-4 neighbors
     1 = max # of special neighbors
  special bonds CPU = 0.000 seconds
  read_restart CPU = 0.112 seconds
include 	in.setup
variable	out_freq equal 500
variable	out_freq2 equal 1000
variable	out_freq3 equal 5000

timestep        0.0005

neigh_modify    delay 7 every 1

include         in.deepmd
# This is deepMD model

# create groups ###
#group ox type 2
#group hy type 1

mass 2 15.999
mass 1 1.008

pair_style      deepmd ../graph.pb
pair_coeff      * *

bond_style      none
angle_style     none
dihedral_style  none
improper_style  none
neigh_modify exclude none


neighbor        2.0 bin
neigh_modify    every 10 delay 0 check no

thermo          ${out_freq}
thermo          500
thermo_style 	custom step temp pe etotal epair emol press lx ly lz vol pxx pyy pzz pxy pxz pyz
#thermo_modify	flush yes
restart 	${out_freq} restart.lmp.${pid} restart2.lmp.${pid}
restart 	500 restart.lmp.${pid} restart2.lmp.${pid}
restart 	500 restart.lmp.0 restart2.lmp.${pid}
restart 	500 restart.lmp.0 restart2.lmp.0

include		in.dump
dump            myDump all atom ${out_freq3} dump.water.${pid}
dump            myDump all atom 5000 dump.water.${pid}
dump            myDump all atom 5000 dump.water.0
dump            myDump2 all dcd ${out_freq2} dump.dcd.${pid}
dump            myDump2 all dcd 1000 dump.dcd.${pid}
dump            myDump2 all dcd 1000 dump.dcd.0
dump_modify     myDump append yes
dump_modify     myDump2 append yes


timer           timeout 23:50:00 every 1000
New timer settings: style=normal  mode=nosync  timeout=23:50:00

fix             1 all plumed plumedfile plumed.dat outfile plumed.out
fix             3 all nph x ${pressure} ${pressure} ${pressureDamp}
fix             3 all nph x 6079.5 ${pressure} ${pressureDamp}
fix             3 all nph x 6079.5 6079.5 ${pressureDamp}
fix             3 all nph x 6079.5 6079.5 1
Resetting global fix info from restart file:
  fix style: nph, fix ID: 3
fix             4 all temp/csvr ${temperature} ${temperature} ${tempDamp} ${seed}
fix             4 all temp/csvr 250 ${temperature} ${tempDamp} ${seed}
fix             4 all temp/csvr 250 250 ${tempDamp} ${seed}
fix             4 all temp/csvr 250 250 0.1 ${seed}
fix             4 all temp/csvr 250 250 0.1 745823
Resetting global fix info from restart file:
  fix style: temp/csvr, fix ID: 4

run             40000000 upto

CITE-CITE-CITE-CITE-CITE-CITE-CITE-CITE-CITE-CITE-CITE-CITE-CITE

Your simulation uses code contributions which should be cited:

- USER-DEEPMD package:

@article{Wang_ComputPhysCommun_2018_v228_p178,
  author = {Wang, Han and Zhang, Linfeng and Han, Jiequn and E, Weinan},
  doi = {10.1016/j.cpc.2018.03.016},
  url = {https://doi.org/10.1016/j.cpc.2018.03.016},
  year = 2018,
  month = {jul},
  publisher = {Elsevier {BV}},
  volume = 228,
  journal = {Comput. Phys. Commun.},
  title = {{DeePMD-kit: A deep learning package for many-body potential energy representation and molecular dynamics}},
  pages = {178--184}
}

CITE-CITE-CITE-CITE-CITE-CITE-CITE-CITE-CITE-CITE-CITE-CITE-CITE

Generated 0 of 1 mixed pair_coeff terms from geometric mixing rule
All restart file global fix info was re-assigned
Neighbor list info ...
  update every 10 steps, delay 0 steps, check no
  max neighbors/atom: 2000, page size: 100000
  master list distance cutoff = 8
  ghost atom cutoff = 8
  binsize = 4, bins = 12 6 6
  1 neighbor lists, perpetual/occasional/extra = 1 0 0
  (1) pair deepmd, perpetual
      attributes: full, newton on
      pair build: full/bin
      stencil: full/bin/3d
      bin: standard
Per MPI rank memory allocation (min/avg/max) = 6.186 | 6.191 | 6.196 Mbytes
   Step          Temp          PotEng         TotEng         E_pair         E_mol          Press            Lx             Ly             Lz           Volume          Pxx            Pyy            Pzz            Pxy            Pxz            Pyz      
  21898000   256.63209     -356.95525     -281.75364     -356.95525      0              4803.6877      45.453664      20.047001      20.857         19005.1        4127.2711      4576.9672      5706.8248     -507.26331     -1334.6714      349.66448    
  21898500   249.49371     -357.45231     -284.34248     -357.46006      0              6372.1635      45.603484      20.047001      20.857         19067.742      9826.7601      2148.8282      7140.9021      85.099758      1122.1482      733.74857    
  21899000   251.90865     -359.10272     -285.28524     -359.11041      0              4928.913       45.548805      20.047001      20.857         19044.88       5763.8793      4379.3181      4643.5416      721.89884      39.426832      1640.4922    
  21899500   248.13758     -358.46102     -285.74858     -358.47007      0              3546.55        45.854994      20.047001      20.857         19172.904      3565.7816      4122.3588      2951.5096      1062.5953     -524.35228     -766.26899    
  21900000   251.15658     -357.84212     -284.24502     -357.84495      0              6560.449       45.870839      20.047001      20.857         19179.529      6238.2741      6384.5433      7058.5297     -263.60744      554.80306      362.21014    
  21900500   252.0596      -357.03727     -283.17555     -357.03978      0              8783.2578      45.430878      20.047001      20.857         18995.572      7738.2047      7538.0401      11073.529      259.78957      1407.5192      601.96198    
  21901000   255.50907     -354.98883     -280.1163      -354.9965       0              5104.9785      45.565256      20.047001      20.857         19051.759      5777.8258      3444.4208      6092.6889     -697.64466     -641.80222      1813.4918    
  21901500   255.62293     -355.5622      -280.65631     -355.5699       0              6986.2063      45.741952      20.047001      20.857         19125.639      8945.7064      5220.831       6792.0816      14.570619     -378.60257     -554.4794     
  21902000   250.24662     -358.10191     -284.77145     -358.10835      0              5998.5444      45.744887      20.047001      20.857         19126.866      6141.1993      6416.898       5437.5358     -396.1776       1171.6945      764.67098    
  21902500   247.78282     -356.88211     -284.27363     -356.8899       0              5324.2727      45.650872      20.047001      20.857         19087.556      5428.816       5352.2262      5191.7759      703.06284      16.860411     -396.09969    
  21903000   250.69928     -356.46601     -283.00291     -356.47521      0              4355.9708      45.851574      20.047001      20.857         19171.474      5377.6569      5297.9264      2392.329      -754.25669      364.72844      1963.0019    
  21903500   249.16498     -357.38299     -284.36949     -357.38844      0              4707.7053      45.871584      20.047001      20.857         19179.84       5214.0761      5045.5427      3863.4971      1405.7821      1318.9517     -1574.5524    
  21904000   252.16694     -357.76125     -283.86808     -357.76618      0              6246.7064      45.617228      20.047001      20.857         19073.489      7545.2056      4222.1636      6972.7501      1176.8245      1271.4701     -1597.8732    
  21904500   246.81727     -354.93301     -282.60746     -354.93928      0              3380.2677      45.652396      20.047001      20.857         19088.193      5097.5579      2050.5571      2992.6882      555.0363      -1630.7219     -415.26712    
  21905000   253.34515     -356.87175     -282.63332     -356.87925      0              6236.4062      45.873235      20.047001      20.857         19180.531      6747.114       6526.966       5435.1385      418.10443      666.38199      14.362047    
  21905500   250.43929     -357.10473     -283.71782     -357.11011      0              5360.5615      45.811982      20.047001      20.857         19154.92       5937.4759      4553.1039      5591.1048      1820.3176     -1248.8714     -252.95598    
  21906000   249.55467     -356.26638     -283.13869     -356.27412      0              6152.9339      45.55926       20.047001      20.857         19049.252      8122.0214      7536.3934      2800.3869     -323.31245     -1525.2407     -2180.1307    
  21906500   243.26355     -355.70764     -284.42346     -355.71047      0              4164.7828      45.638278      20.047001      20.857         19082.29       4360.7485      3415.0376      4718.5624     -204.72009      408.784       -743.52523    
  21907000   251.75834     -356.40516     -282.63172     -356.40801      0              6048.5099      45.734499      20.047001      20.857         19122.523      6496.1317      6294.1341      5355.2639      232.40492     -1208.7208     -316.16151    
  21907500   249.2808      -356.13705     -283.08961     -356.14029      0              5117.7607      45.863847      20.047001      20.857         19176.605      5887.8191      4776.5952      4688.8679      43.135738      1516.4103     -168.87864    
  21908000   250.60849     -353.54554     -280.10905     -353.55405      0              4464.3269      45.586117      20.047001      20.857         19060.481      4443.9395      5198.7855      3750.2558     -629.71964      35.038902     -67.551035    
  21908500   248.50177     -355.91365     -283.09449     -355.92108      0              5131.6705      45.153374      20.047001      20.857         18879.542      5968.9859      5389.2351      4036.7906      610.37163      300.03308      1082.1198    
  21909000   250.23655     -359.78267     -286.45516     -359.78474      0              4567.1783      45.425294      20.047001      20.857         18993.238      7822.8568      3629.4259      2249.2521      450.74512      663.00995      1021.2092    
  21909500   246.46245     -357.3245      -285.10294     -357.32626      0              3810.1059      45.857167      20.047001      20.857         19173.812      3944.6393      4176.4869      3309.1914     -94.326324      518.85881     -1920.7263    
  21910000   247.42715     -354.01274     -281.50849     -354.01598      0              3490.6058      45.66088       20.047001      20.857         19091.741      1838.4106      6447.3101      2186.0967     -1026.4387     -1228.425       769.0786     
  21910500   251.06682     -355.60094     -282.03014     -355.60118      0              5772.6787      45.550636      20.047001      20.857         19045.646      4626.2229      6518.2069      6173.6064      417.02162      1331.298      -1364.6611    
  21911000   248.62038     -356.97699     -284.12307     -356.98296      0              5024.8308      45.611278      20.047001      20.857         19071.001      7169.5907      5598.3395      2306.5622     -541.10571     -58.172837     -1375.1129    
  21911500   252.4931      -358.87571     -284.88697     -358.87779      0              5969.0595      45.677772      20.047001      20.857         19098.804      7407.2651      5521.4638      4978.4496      569.71764     -267.59011      375.45519    
  21912000   246.66726     -354.28545     -282.00387     -354.29246      0              4254.513       45.833656      20.047001      20.857         19163.982      7029.2391      2665.9558      3068.344      -1570.0144      676.97195      396.15858    
  21912500   255.85745     -356.00726     -281.03265     -356.01132      0              3456.5447      45.844151      20.047001      20.857         19168.37       5036.3749      3678.2911      1654.9679      536.81358     -98.862465      130.43987    
  21913000   252.65482     -355.96063     -281.9245      -355.96642      0              7514.2592      45.595889      20.047001      20.857         19064.567      6105.0823      9508.7724      6928.923      -776.8245       829.1556       173.63613    
  21913500   254.5225      -357.13502     -282.55159     -357.13306      0              6714.6425      45.61878       20.047001      20.857         19074.138      7038.809       6777.8433      6327.2753      1025.8555      1890.0931      2059.8621    
  21914000   250.09266     -357.3116      -284.02626     -357.30059      0              6403.3528      45.766814      20.047001      20.857         19136.034      7233.6398      7189.7028      4786.7159      1255.5148     -899.9137       248.52929    
  21914500   254.6001      -357.1601      -282.55393     -357.15285      0              5914.2499      45.727651      20.047001      20.857         19119.659      4197.7067      7644.2126      5900.8305      844.80486      2057.5191     -382.91745    
  21915000   248.87817     -356.91435     -283.98489     -356.91622      0              5094.3568      45.548091      20.047001      20.857         19044.581      4049.5762      5278.9804      5954.5138      1511.4973      385.59467     -2702.3642    
  21915500   245.95102     -353.02307     -280.95137     -353.03099      0              3267.3418      45.716444      20.047001      20.857         19114.973      4187.8926      2408.4693      3205.6634      616.23015      2438.1223      1239.6398    
  21916000   244.31271     -357.34355     -285.75193     -357.34203      0              5697.0159      45.887106      20.047001      20.857         19186.331      7046.6779      4015.7972      6028.5725     -457.80103      2121.9206     -1663.9527    
  21916500   254.58918     -357.54632     -282.94335     -357.54272      0              4055.265       46.029709      20.047001      20.857         19245.956      4924.4282      5066.5847      2174.7821     -307.28899      2964.5519     -249.17804    
  21917000   248.85793     -354.6417      -281.71818     -354.64136      0              5080.1536      45.743445      20.047001      20.857         19126.263      5299.4457      4509.5482      5431.4669      1179.7655      1959.4654      852.30864    
  21917500   248.9602      -353.39074     -280.43724     -353.38245      0              3387.1688      45.555501      20.047001      20.857         19047.68       2912.893       6318.2868      930.32666     -62.315554      198.677       -964.99059    
  21918000   246.55864     -350.5962      -278.34644     -350.60305      0              5003.6547      45.836783      20.047001      20.857         19165.289      5589.8655      4847.3929      4573.7058      373.35151      1847.1592     -416.70505    
  21918500   249.46023     -353.90425     -280.80423     -353.91272      0              6020.8746      45.746852      20.047001      20.857         19127.688      7185.3835      6435.1136      4442.1267     -119.13816      1898.5297     -1605.4007    
  21919000   247.55418     -356.02822     -283.48674     -356.02879      0              7096.0003      45.430594      20.047001      20.857         18995.454      7774.6984      6477.3733      7035.9291      1072.0765      1062.3945      809.42553    
  21919500   245.83939     -357.86128     -285.82229     -357.86244      0              7054.3661      45.330158      20.047001      20.857         18953.459      5256.0339      8494.0712      7412.9932     -825.78187     -669.73397     -81.551399    
  21920000   237.70018     -358.02822     -288.37428     -358.03119      0              5522.6671      45.569307      20.047001      20.857         19053.452      4991.8731      6374.2378      5201.8904      1890.5616     -445.0691      -835.21149    
  21920500   248.98676     -355.52694     -282.56567     -355.53487      0              4557.2146      45.684219      20.047001      20.857         19101.499      3255.9488      7728.2082      2687.4866     -55.187697     -219.85654      57.422932    
  21921000   250.78405     -356.91065     -283.42271     -356.90209      0              4640.7563      45.50069       20.047001      20.857         19024.762      6655.547       5275.2268      1991.4949      51.963513      347.91851     -1963.9325    
  21921500   247.036       -355.14515     -282.75551     -355.14613      0              5116.0137      45.619916      20.047001      20.857         19074.613      3547.002       6894.9847      4906.0542     -33.932743      810.34778      1171.8324    
  21922000   254.42175     -356.13859     -281.58469     -356.14148      0              6146.5264      45.707817      20.047001      20.857         19111.366      6597.5789      6420.238       5421.7623      901.84771      167.51412      1067.9991    
  21922500   246.59876     -355.77082     -283.50931     -355.77631      0              4998.626       45.705145      20.047001      20.857         19110.249      4203.5618      7445.9508      3346.3654      580.25701      1487.4549     -31.078962    
  21923000   244.16388     -355.13804     -283.59002     -355.13056      0              4830.118       45.618348      20.047001      20.857         19073.957      4752.5848      5213.2216      4524.5477     -181.59726     -124.6881       740.04103    
  21923500   250.21484     -357.7272      -284.40606     -357.73312      0              4629.0267      45.586283      20.047001      20.857         19060.55       5873.0014      4883.38        3130.6988      312.92643     -282.22562      231.2518     
  21924000   250.33357     -357.69586     -284.33993     -357.70368      0              6149.2207      45.567094      20.047001      20.857         19052.527      7046.3644      5513.3905      5887.9071      1101.5085     -853.06579     -542.25652    
  21924500   247.12037     -355.39777     -282.98341     -355.40415      0              3793.5217      45.433482      20.047001      20.857         18996.661      4016.3662      3724.1109      3640.0882     -95.656368      1005.8031     -583.54485    
  21925000   250.19202     -356.22404     -282.90958     -356.2326       0              5953.8622      45.264566      20.047001      20.857         18926.034      6375.9324      6452.9715      5032.6828     -33.720688      1407.2584      837.20461    
  21925500   245.80493     -356.96448     -284.93559     -356.96741      0              6247.0439      45.513266      20.047001      20.857         19030.02       7194.1753      4790.7273      6756.2292      684.37905      1525.3557      117.21742    
  21926000   247.38817     -354.37235     -281.87952     -354.37047      0              2766.6838      45.681209      20.047001      20.857         19100.241      2251.8639      1996.9859      4051.2015      333.77264      1498.1476     -820.3934     
  21926500   247.98196     -355.83958     -283.17274     -355.84636      0              4034.5941      45.677431      20.047001      20.857         19098.661      5414.8164      4681.4425      2007.5234      840.9638      -369.37206      879.22878    
  21927000   245.83781     -356.57528     -284.53675     -356.57891      0              6429.3694      45.702758      20.047001      20.857         19109.251      4591.039       7295.4163      7401.653       2116.0298      1418.2403      370.69034    
  21927500   251.5421      -357.03546     -283.32539     -357.03202      0              6353.6709      45.350302      20.047001      20.857         18961.882      6601.1189      6090.9426      6368.9513      167.27119      269.98926      1124.3437    
  21928000   256.53103     -352.8753      -277.70331     -352.87832      0              5550.3186      45.522203      20.047001      20.857         19033.757      6051.7431      5989.0045      4610.2081      194.14103     -110.21203      2771.2621    
  21928500   253.26338     -355.10272     -280.88826     -355.10781      0              6271.0176      45.856548      20.047001      20.857         19173.554      7373.5679      5306.0678      6133.4173      421.05208      906.12034      185.24344    
  21929000   254.80161     -353.2627      -278.59749     -353.2656       0              4707.7213      45.564413      20.047001      20.857         19051.406      4530.8599      3962.4843      5629.8196      515.26333     -952.6157      -64.866589    
  21929500   247.06803     -355.87936     -283.48034     -355.86389      0              7192.4915      45.431401      20.047001      20.857         18995.791      6992.6956      10316.701      4268.0784      1755.2425      455.89278     -583.92389    
  21930000   248.48938     -358.29556     -285.48003     -358.28932      0              3624.374       45.630784      20.047001      20.857         19079.157      5369.6088      2567.0985      2936.4148     -158.40012      1928.9643      18.499873    
  21930500   251.6177      -355.34071     -281.60849     -355.34844      0              4463.1856      45.547973      20.047001      20.857         19044.532      6731.8534      3165.5837      3492.1197      320.72466      569.80532      1218.8072    
  21931000   247.84227     -357.72201     -285.0961      -357.72982      0              4964.8195      45.392016      20.047001      20.857         18979.323      6491.4496      4695.4708      3707.5383      1641.2652      1255.6372      222.04396    
  21931500   249.49486     -357.82733     -284.71717     -357.83636      0              4132.743       45.686823      20.047001      20.857         19102.588      3609.1114      6261.1554      2527.9622      1409.9301      1113.934      -609.21587    
  21932000   247.53411     -358.39998     -285.86438     -358.40852      0              4413.6349      45.769219      20.047001      20.857         19137.039      6309.2335      2412.4943      4519.1768      508.18073      373.53899      248.33401    
  21932500   257.4296      -357.03954     -281.60423     -357.04754      0              3804.2749      45.572408      20.047001      20.857         19054.749      2811.5729      5606.4629      2994.789       899.3249      -1569.0561      581.91472    
  21933000   256.8966      -357.16828     -281.88916     -357.17682      0              4812.0979      45.571072      20.047001      20.857         19054.19       4182.0842      6937.1042      3317.1051      1827.6732      445.69318     -1956.8486    
  21933500   255.06117     -357.2298      -282.48853     -357.23875      0              4318.9524      45.588569      20.047001      20.857         19061.506      2295.028       7021.1081      3640.7211     -144.28172      1027.0837      148.78911    
  21934000   245.85385     -356.9019      -284.85867     -356.90962      0              6662.5319      45.536771      20.047001      20.857         19039.848      8205.0367      6378.9018      5403.6572      841.74281     -1041.6089     -1068.2004    
  21934500   251.97727     -355.03426     -281.19667     -355.04126      0              5452.0968      45.65143       20.047001      20.857         19087.789      7470.0476      5108.0003      3778.2426      601.97104     -979.53043     -2300.3148    
  21935000   256.75331     -355.21278     -279.97565     -355.20945      0              6273.502       45.517217      20.047001      20.857         19031.672      6867.9667      5122.586       6829.9532      754.30669      1530.8384      501.54596    
  21935500   260.81704     -355.2666      -278.83866     -355.27166      0              7324.8676      45.456797      20.047001      20.857         19006.41       7141.5753      8361.7181      6471.3095     -2191.6826     -1635.3151     -1295.2071    
  21936000   255.70896     -354.52583     -279.59473     -354.529        0              5529.1303      45.439378      20.047001      20.857         18999.126      5117.3073      5998.9573      5471.1263      1261.6527      467.42561      701.54129    
  21936500   253.40538     -354.94254     -280.68647     -354.94229      0              6878.4936      45.362947      20.047001      20.857         18967.169      6374.6338      6513.3825      7747.4646      986.24779      613.18361     -1866.4456    
  21937000   247.43723     -356.99109     -284.48388     -356.99472      0              6416.267       45.552887      20.047001      20.857         19046.587      6828.3297      5895.3383      6525.133      -1073.3775     -1982.5273      15.133199    
  21937500   260.81524     -355.63852     -279.21111     -355.64396      0              6428.5997      45.444326      20.047001      20.857         19001.195      8568.6153      5529.456       5187.7277      2025.8748      1603.2789     -1938.8805    
  21938000   252.83475     -354.07859     -279.98973     -354.08712      0              7506.658       45.27609       20.047001      20.857         18930.852      7531.5395      7348.7658      7639.6686     -366.76072      329.65809      632.73431    
  21938500   257.76227     -355.5917      -280.05892     -355.60011      0              5064.1583      45.434582      20.047001      20.857         18997.121      4839.2761      4669.1834      5684.0154     -360.67864     -1729.7218      1326.3628    
  21939000   254.64382     -354.46762     -279.84864     -354.47609      0              4837.8861      45.747371      20.047001      20.857         19127.905      6803.8811      5129.0002      2580.7769     -708.48745      2153.4492     -1949.085     
  21939500   253.96391     -355.44255     -281.02281     -355.45135      0              5810.1877      45.715778      20.047001      20.857         19114.695      7554.0424      4947.9463      4928.5744     -779.56051      360.0122       162.81978    
  21940000   255.52758     -354.56531     -279.68736     -354.57313      0              5243.0441      45.215877      20.047001      20.857         18905.676      5260.8811      4995.2088      5473.0425     -278.0213       1114.8747     -291.40694    
  21940500   244.87364     -355.65007     -283.89407     -355.65923      0              7888.604       45.36429       20.047001      20.857         18967.731      8747.2783      6747.8536      8170.6802      1518.7         1566.1428     -481.34777    
  21941000   247.68766     -355.42777     -282.84717     -355.43542      0              3484.137       45.875798      20.047001      20.857         19181.603      3366.4155      4997.183       2088.8125      753.76956      1171.5863     -216.49507    
  21941500   251.87248     -355.55256     -281.74568     -355.55574      0              5087.6299      45.764212      20.047001      20.857         19134.946      4607.0693      6881.9311      3773.8892     -967.21905      545.01117     -461.00852    
  21942000   255.25432     -355.48395     -280.68607     -355.48909      0              3134.0445      45.323364      20.047001      20.857         18950.618      2382.0725      5140.6689      1879.3921     -119.69082      686.64601     -1224.2077    
  21942500   249.36108     -356.98686     -283.9159      -356.99463      0              4141.9875      45.431331      20.047001      20.857         18995.762      4383.5734      4792.5446      3249.8445      973.23297     -385.45514      1366.2915    
  21943000   247.17211     -356.58589     -284.15637     -356.59328      0              5296.3519      45.887051      20.047001      20.857         19186.308      5659.7553      6745.1041      3484.1965     -182.41093     -226.09118      911.26263    
  21943500   252.41102     -356.38093     -282.41624     -356.38904      0              7204.1667      45.614257      20.047001      20.857         19072.247      7896.1251      7569.3003      6147.0747     -495.40087     -2119.0799      486.25212    
  21944000   249.38803     -356.70147     -283.62261     -356.70375      0              5458.023       45.202617      20.047001      20.857         18900.132      7397.6246      5549.0396      3427.4049      606.87175      784.71842     -220.66574    
  21944500   248.15781     -357.69016     -284.9718      -357.69312      0              4117.5417      45.402534      20.047001      20.857         18983.721      4228.425       5245.4185      2878.7815      1244.8152     -197.65346      470.8536     
  21945000   250.24131     -354.51533     -281.18643     -354.52225      0              7652.1034      45.610412      20.047001      20.857         19070.639      8822.0066      6389.1209      7745.1828      328.20012     -207.63471     -2013.1261    
  21945500   261.02819     -354.39525     -277.90544     -354.39571      0              3902.0909      45.489606      20.047001      20.857         19020.128      5025.9071      2000.7334      4679.6323      1039.1754      487.15679     -326.28866    
  21946000   249.99107     -355.1105      -281.85493     -355.11515      0              5627.6589      45.174432      20.047001      20.857         18888.347      6800.5339      4063.4579      6018.9849     -692.90265      348.70243     -145.29355    
  21946500   247.80866     -355.82277     -283.20672     -355.83168      0              6293.2035      45.376274      20.047001      20.857         18972.741      6226.0625      6963.3045      5690.2436     -507.01645      255.79216     -404.13539    
  21947000   245.5258      -355.00648     -283.05938     -355.01549      0              3619.9089      45.641281      20.047001      20.857         19083.546      4439.4602      3628.665       2791.6014      711.20226     -214.63106     -779.96276    
  21947500   248.54348     -355.49121     -282.65983     -355.49945      0              5690.1882      45.345307      20.047001      20.857         18959.793      5944.8376      5461.8289      5663.898       1307.6918      1027.117      -808.73048    
  21948000   252.90342     -355.5279      -281.41891     -355.53575      0              7454.0691      45.336856      20.047001      20.857         18956.26       8300.9294      7242.5045      6818.7735      1658.7389     -296.70578     -1663.2778    
  21948500   244.39134     -356.17863     -284.56397     -356.18571      0              3455.3869      45.625308      20.047001      20.857         19076.868      3583.0592      2739.6575      4043.4439      295.09276     -588.19761     -1701.7243    
  21949000   249.98452     -355.2457      -281.99205     -355.25377      0              4155.9692      45.625367      20.047001      20.857         19076.892      5205.5569      4598.5175      2663.8333      1210.159      -660.35802      547.96583    
  21949500   253.66544     -353.60251     -279.27023     -353.60902      0              6583.0424      45.259482      20.047001      20.857         18923.908      6861.4832      7396.7345      5490.9096      431.91924     -1463.2653      350.0602     
  21950000   251.59108     -355.8229      -282.09848     -355.83142      0              3866.9868      45.511472      20.047001      20.857         19029.27       4709.7084      3687.7761      3203.4759      879.30759      1279.3474     -838.5263     
  21950500   246.41992     -354.56505     -282.35594     -354.57411      0              3787.2102      45.643009      20.047001      20.857         19084.268      2908.1872      4779.4323      3674.011      -1364.8144     -339.22092      245.56449    
  21951000   256.15918     -356.9596      -281.89658     -356.96243      0              5732.805       45.202511      20.047001      20.857         18900.087      6934.4528      4349.9089      5914.0532      809.87384      418.42246     -875.16104    
  21951500   246.03196     -353.11385     -281.01843     -353.12042      0              3571.0364      45.15844       20.047001      20.857         18881.66       5861.8819      1852.4938      2998.7335      415.16082      1167.3786      1677.973     
  21952000   250.2815      -353.45042     -280.10975     -353.45947      0              4422.4522      45.603732      20.047001      20.857         19067.846      4254.5948      5363.9716      3648.7902      457.68751     -408.96365     -2191.4402    
  21952500   256.7689      -355.09947     -279.85777     -355.10451      0              4755.3973      45.659099      20.047001      20.857         19090.996      6856.396       2550.2029      4859.5929     -127.49212     -289.25963      1016.5139    
  21953000   252.02181     -356.31922     -282.46858     -356.32198      0              7581.9021      45.362307      20.047001      20.857         18966.901      8961.0415      7574.4611      6210.2038      149.21674      1660.9945      171.18706    
  21953500   252.31891     -355.24573     -281.30803     -355.25273      0              3666.9052      45.46856       20.047001      20.857         19011.328      4625.4059      2254.695       4120.6148      638.7419      -3313.7738     -231.73439    
  21954000   250.06174     -355.46149     -282.18521     -355.46959      0              4420.1636      45.484915      20.047001      20.857         19018.166      5036.3025      4065.9483      4158.2399      142.83206      728.45567      654.65056    
  21954500   253.80933     -356.31987     -281.94542     -356.32888      0              4711.9216      45.441346      20.047001      20.857         18999.949      6932.9392      3814.8517      3387.974       1692.1924     -599.72254     -1640.6653    
  21955000   252.5301      -354.07904     -280.07945     -354.08089      0              6163.1961      45.452871      20.047001      20.857         19004.768      7164.9745      5583.9167      5740.697      -95.303689     -404.89103      286.3119     
  21955500   255.4508      -355.03007     -280.17462     -355.03312      0              3707.9121      45.436288      20.047001      20.857         18997.834      3258.5182      2517.7273      5347.4908      299.43029     -616.8171       629.69931    
  21956000   249.4699      -355.5911      -282.48825     -355.59965      0              3400.0114      45.220872      20.047001      20.857         18907.765      4657.4534      3087.3296      2455.2513     -545.3745      -107.12198     -22.052751    
  21956500   248.38621     -355.38333     -282.59803     -355.39131      0              5002.182       45.377         20.047001      20.857         18973.045      3306.4411      6835.2631      4864.8417      133.24889     -1430.5197     -1015.0129    
  21957000   257.1329      -358.50231     -283.15395     -358.51038      0              5156.9787      45.495871      20.047001      20.857         19022.747      6685.4969      3340.06        5445.3793     -268.68194      862.65744      959.68584    
  21957500   253.39471     -356.48962     -282.23667     -356.49746      0              3051.9119      45.571051      20.047001      20.857         19054.182      2880.607       3536.969       2738.1596     -125.57005     -1405.3096      73.084812    
  21958000   253.98284     -357.73196     -283.30667     -357.73608      0              4979.6192      45.447705      20.047001      20.857         19002.608      6567.5524      4650.2721      3721.0329      1478.9185      1956.3744     -406.79309    
  21958500   253.49788     -358.2488      -283.96562     -358.2517       0              6219.2954      45.192475      20.047001      20.857         18895.891      7106.5149      7400.7455      4150.6259      857.7225       6.7700558      195.68427    
  21959000   239.63177     -355.86684     -285.64689     -355.87465      0              5945.8459      45.376273      20.047001      20.857         18972.741      6598.5032      5033.6363      6205.3981      1945.8577      751.52727     -803.95631    
  21959500   247.24975     -358.03656     -285.58428     -358.04523      0              6400.3795      45.581356      20.047001      20.857         19058.49       7647.6529      6657.7754      4895.7103     -686.64659      262.49067      1198.3629    
  21960000   260.72775     -359.78622     -283.38445     -359.78953      0              6205.14        45.374277      20.047001      20.857         18971.906      7124.8684      6245.3798      5245.1718      751.98271     -482.38964      68.393021    
  21960500   250.87979     -356.93784     -283.42185     -356.94558      0              4336.3047      45.40167       20.047001      20.857         18983.36       5300.0361      4262.3139      3446.5639     -703.61033     -42.772788      422.5884     
  21961000   246.58939     -356.57393     -284.31516     -356.58306      0              3585.3397      45.586436      20.047001      20.857         19060.614      5172.4839      2320.9083      3262.6268      249.62356      266.96409      276.04879    
  21961500   246.90629     -358.01429     -285.66266     -358.02281      0              3543.5065      45.700766      20.047001      20.857         19108.418      4056.7216      2959.3167      3614.4812     -375.29959     -887.61788      113.17726    
  21962000   249.04548     -357.47688     -284.4984      -357.48597      0              7068.5615      45.458476      20.047001      20.857         19007.111      6146.8601      7409.6967      7649.1276     -1126.2825     -728.83947      221.45458    
  21962500   249.15807     -358.2507      -285.23922     -358.25926      0              5988.0807      45.530588      20.047001      20.857         19037.263      9278.3446      3994.9499      4690.9475     -411.77329      1588.9751     -1252.1968    
  21963000   248.34649     -356.20561     -283.43196     -356.2142       0              4331.6875      45.867305      20.047001      20.857         19178.051      2997.6406      3996.6562      6000.7657     -772.19462      294.71064     -430.28535    
  21963500   258.79661     -356.73198     -280.8961      -356.74099      0              6433.9514      45.758301      20.047001      20.857         19132.475      8586.9138      3087.3769      7627.5637      1444.3921     -537.95541      1208.897     
  21964000   254.38488     -356.39002     -281.84692     -356.39871      0              5364.7323      45.642453      20.047001      20.857         19084.036      7248.9996      3436.4846      5408.7126     -403.12383      81.67273       1343.2017    
  21964500   252.78442     -357.94325     -283.86913     -357.95236      0              6719.6239      45.569603      20.047001      20.857         19053.576      10575.843      6622.4994      2960.5289     -647.18553     -399.45754     -792.19159    
  21965000   250.14589     -354.70941     -281.40847     -354.71752      0              6745.1177      45.449265      20.047001      20.857         19003.26       6834.7255      5529.5292      7871.0984      55.482355     -380.51042      921.62442    
  21965500   258.00444     -355.87348     -280.26973     -355.88217      0              5971.3977      45.601695      20.047001      20.857         19066.994      7882.2271      5450.0078      4581.9584      327.50849     -616.62539     -179.32654    
  21966000   250.6655      -357.3172      -283.864       -357.32422      0              5062.0708      45.697401      20.047001      20.857         19107.011      6511.3516      4258.3842      4416.4766     -120.41447     -1076.1498     -216.36138    
  21966500   249.30071     -356.87722     -283.82394     -356.88588      0              5152.7686      45.702885      20.047001      20.857         19109.304      4926.0441      6187.9         4344.3618     -176.02502     -16.934475     -760.69573    
  21967000   248.3324      -355.28622     -282.51669     -355.29493      0              5283.9102      45.794757      20.047001      20.857         19147.718      4708.28        6307.3502      4836.1003      271.78997      626.10534     -476.69574    
  21967500   252.61258     -356.34625     -282.32249     -356.35468      0              4899.2694      45.772296      20.047001      20.857         19138.326      5635.0301      3796.5553      5266.2229      336.54915     -1782.4882     -375.45806    
  21968000   247.87831     -356.97423     -284.33777     -356.97861      0              5232.5058      45.39798       20.047001      20.857         18981.817      6884.4716      5387.6264      3425.4193      168.86187      605.75058     -135.69221    
  21968500   242.66996     -354.69562     -283.58537     -354.69825      0              5573.1553      45.40175       20.047001      20.857         18983.393      7162.4638      5837.8481      3719.1541      605.23955      104.18646      480.26275    
  21969000   246.6406      -356.8264      -284.55263     -356.83261      0              4542.0207      45.713023      20.047001      20.857         19113.543      5913.9644      6776.1911      935.90656     -801.87645     -434.36543      471.33031    
  21969500   254.93965     -356.75414     -282.04847     -356.76211      0              4905.9909      45.900105      20.047001      20.857         19191.766      3209.569       6083.1192      5425.2846      598.95641      1127.4825     -1558.6514    
  21970000   255.32955     -356.86768     -282.04776     -356.87635      0              4594.2213      45.874408      20.047001      20.857         19181.021      6783.65        2680.0918      4318.9222     -204.05128     -2356.4558     -1893.5752    
  21970500   255.63751     -354.59125     -279.68109     -354.6          0              6847.4638      45.69257       20.047001      20.857         19104.991      7964.3008      6011.0517      6567.0387     -449.74642      888.25773      1628.4001    
  21971000   256.4775      -355.96787     -280.81157     -355.97531      0              5353.5721      45.828324      20.047001      20.857         19161.752      5932.5804      7363.7289      2764.407       831.25274      1404.3876     -118.80421    
  21971500   262.72433     -356.98864     -280.0018      -356.99235      0              5359.7225      45.868109      20.047001      20.857         19178.388      7331.3577      4276.5457      4471.2641     -89.677852     -368.59044     -27.868073    
  21972000   253.51722     -357.34843     -283.05958     -357.35637      0              6782.8441      45.844254      20.047001      20.857         19168.413      6922.844       6516.4627      6909.2257      1008.8014      347.10478      617.46837    
  21972500   247.7161      -357.89194     -285.30301     -357.89456      0              5339.3076      45.77101       20.047001      20.857         19137.788      6404.0019      5505.836       4108.0848     -736.63251      40.893491     -1570.8678    
  21973000   254.8595      -357.0217      -282.33952     -357.03004      0              5957.5627      45.56208       20.047001      20.857         19050.431      7528.7588      3178.8899      7165.0393      1458.7658      1294.1586     -73.206218    
  21973500   247.53273     -355.37654     -282.84134     -355.38398      0              6079.2804      45.787184      20.047001      20.857         19144.551      6198.8137      6818.2073      5220.8203     -1990.1711      886.43407      741.08793    
  21974000   246.55234     -353.37794     -281.13003     -353.38652      0              5449.8223      46.055092      20.047001      20.857         19256.569      5536.3687      6880.4485      3932.6498     -604.68572     -149.96159      1492.7403    
  21974500   252.89186     -356.22763     -282.12204     -356.2357       0              6077.4333      45.817587      20.047001      20.857         19157.263      7216.0343      6805.3571      4210.9084      913.97178     -726.40914      825.0071     
  21975000   251.9578      -356.70712     -282.87523     -356.71632      0              4955.4525      45.754469      20.047001      20.857         19130.872      4947.6953      5015.4174      4903.2449     -588.46468      1373.2396     -543.08719    
  21975500   253.49784     -357.38141     -283.09825     -357.39019      0              2580.9         45.957423      20.047001      20.857         19215.731      2103.2832      2201.5162      3437.9005     -639.41709      891.41239     -1997.8526    
  21976000   242.4526      -356.4678      -285.42125     -356.49094      0              2559.5945      46.238609      20.047001      20.857         19333.301      3716.3236      2454.3065      1508.1534     -463.83392      614.35364      742.77513    
  21976500   259.16428     -357.73837     -281.79475     -357.74626      0              6469.472       45.899329      20.047001      20.857         19191.441      7401.8388      6340.4566      5666.1205     -888.62652     -53.031733     -1246.8027    
  21977000   243.7196      -356.44203     -285.02421     -356.4508       0              5106.9701      45.577         20.047001      20.857         19056.669      6932.564       3745.431       4642.9154      947.0443       559.10004     -239.39219    
  21977500   252.20711     -356.76294     -282.85799     -356.76879      0              5451.1113      45.715438      20.047001      20.857         19114.552      5236.1961      4755.0672      6362.0707      1263.6979      22.473557     -871.6129     
  21978000   248.56856     -356.78263     -283.9439      -356.7882       0              5508.0865      45.945382      20.047001      20.857         19210.697      8533.0844      4667.036       3324.1391      981.5011       1388.9264      715.65552    
  21978500   257.38369     -357.69736     -282.27551     -357.70485      0              4550.4801      45.78736       20.047001      20.857         19144.625      5473.3638      3110.1457      5067.9308     -1437.1616      0.74126186    -739.90462    
  21979000   254.76664     -356.49743     -281.84246     -356.50079      0              6596.7973      45.509555      20.047001      20.857         19028.469      6533.7829      7499.4196      5757.1894      449.7268       2894.1324      2331.7774    
  21979500   247.98827     -355.82463     -283.15594     -355.8326       0              5295.5255      45.867339      20.047001      20.857         19178.066      5815.8819      4770.8675      5299.8271      548.63905     -1275.2143      1068.8957    
  21980000   255.48913     -358.53558     -283.6689      -358.5435       0              2944.6773      45.970582      20.047001      20.857         19221.234      3990.6899      3767.6512      1075.6906      114.84647      1965.3326     -1037.2131    
  21980500   246.80351     -354.05631     -281.7348      -354.06453      0              6584.8582      45.598323      20.047001      20.857         19065.585      7239.0316      6127.5978      6387.9453     -1567.7906      1741.5413      544.13598    
  21981000   254.7782      -358.71119     -284.05283     -358.7139       0              5949.3987      45.841218      20.047001      20.857         19167.144      5478.8607      5805.4252      6563.9103      5.4097062      2850.2142      1181.5055    
  21981500   246.73718     -359.91491     -287.61284     -359.91303      0              4836.2923      46.087751      20.047001      20.857         19270.224      3701.0282      5847.937       4959.9116      100.55043      1906.0437      979.60686    
  21982000   242.56131     -357.73211     -286.6537      -357.73743      0              4885.753       45.907836      20.047001      20.857         19194.998      6320.775       4084.8129      4251.6712     -144.52202      1189.5786     -1102.4487    
  21982500   245.93715     -356.19131     -284.12367     -356.19526      0              5517.7187      45.468126      20.047001      20.857         19011.147      8252.487       2604.2336      5696.4354     -188.55044     -249.24288     -19.269968    
  21983000   251.77738     -357.48934     -283.71032     -357.4922       0              7991.7122      45.345284      20.047001      20.857         18959.784      10710.76       8655.9828      4608.3942      2704.2717     -2081.3654      789.36854    
  21983500   249.98491     -355.75514     -282.50138     -355.76332      0              4350.5471      45.932429      20.047001      20.857         19205.281      4798.8353      3870.9205      4381.8855     -746.0703      -191.83635     -847.02065    
  21984000   247.28458     -358.09648     -285.634       -358.10525      0              5994.3531      45.895169      20.047001      20.857         19189.702      7096.5647      6546.6455      4339.8489      716.56373     -573.06529      775.0599     
  21984500   247.42378     -359.92216     -287.41889     -359.9303       0              4702.5454      45.648936      20.047001      20.857         19086.747      6498.8184      4164.4759      3444.3419     -32.941349      1614.799      -719.72227    
  21985000   253.68615     -356.39237     -282.05402     -356.39784      0              5165.6792      45.759552      20.047001      20.857         19132.998      6703.0403      4068.7125      4725.2847      334.45971     -235.5101      -1118.8894    
  21985500   250.23013     -358.13282     -284.8072      -358.14084      0              5341.0565      45.716118      20.047001      20.857         19114.837      7951.1617      3543.7301      4528.2778      501.06801      555.61172      1096.8106    
  21986000   246.48636     -356.93461     -284.70603     -356.94274      0              6678.5005      45.528329      20.047001      20.857         19036.318      6967.2573      7144.6211      5923.6231      304.40413      2852.1311     -1228.91      
  21986500   244.55127     -358.34935     -286.68782     -358.35809      0              4540.1466      45.573237      20.047001      20.857         19055.095      4782.9512      4055.9195      4781.5692      2.1493375      766.03082      19.583074    
  21987000   254.12761     -358.82458     -284.35686     -358.83287      0              5802.0955      45.683846      20.047001      20.857         19101.343      7873.5371      5451.9999      4080.7495      818.05975     -1606.891       676.84822    
  21987500   256.89144     -357.4575      -282.1799      -357.46481      0              5045.9158      45.707379      20.047001      20.857         19111.183      6276.6075      5754.8575      3106.2824      852.09717      1330.747       430.41729    
  21988000   252.31445     -355.11535     -281.17895     -355.12452      0              6046.5282      45.58487       20.047001      20.857         19059.959      6162.7921      5568.796       6407.9964     -364.93683      2565.7334      1130.8657    
  21988500   247.60948     -356.53758     -283.97989     -356.54678      0              6161.4155      45.628354      20.047001      20.857         19078.141      4223.3976      6928.5946      7332.2542     -889.89652     -790.74926      350.17693    
  21989000   246.49578     -357.14049     -284.90915     -357.14927      0              2077.2248      45.587662      20.047001      20.857         19061.127      3801.6083      275.52221      2154.5439     -647.07242     -544.93928     -778.22911    
  21989500   251.3983      -357.14076     -283.47282     -357.13419      0              5659.4003      45.412018      20.047001      20.857         18987.686      6121.4456      4912.3903      5944.365       708.88325      176.99993     -1499.9461    
  21990000   252.54493     -354.96548     -280.96154     -354.97413      0              3610.3286      45.450335      20.047001      20.857         19003.708      6063.1791      1935.0088      2832.7979     -132.74027     -305.52364      937.18806    
  21990500   247.18079     -354.62996     -282.19789     -354.63875      0              3327.9118      45.508201      20.047001      20.857         19027.903      2449.5643      2972.5649      4561.6061      387.26176      138.29838     -2608.1141    
  21991000   254.07173     -356.55071     -282.09937     -356.55769      0              6306.8382      45.602149      20.047001      20.857         19067.184      6153.2822      6728.996       6038.2364     -670.30045      1461.805       691.96188    
  21991500   248.76196     -354.30047     -281.40507     -354.30311      0              3644.0292      45.56268       20.047001      20.857         19050.681      5255.894       3931.776       1744.4176      426.76044      625.32421     -740.98514    
  21992000   248.50053     -358.08454     -285.26575     -358.09257      0              4537.2443      45.636877      20.047001      20.857         19081.705      4145.3396      3951.2465      5515.1468      561.52508     -1165.082      -1221.5825    
  21992500   252.28218     -358.78215     -284.85521     -358.79004      0              6291.2128      45.56108       20.047001      20.857         19050.012      6829.2824      5697.6637      6346.6923      1429.8484     -437.89282      740.05889    
  21993000   254.90946     -357.47345     -282.77663     -357.47574      0              4957.4211      45.363349      20.047001      20.857         18967.337      6592.7114      5017.7865      3261.7654     -194.95207     -1426.0372     -375.93257    
  21993500   255.45713     -358.71588     -283.85858     -358.71691      0              5406.6775      45.40385       20.047001      20.857         18984.272      7734.4168      4266.7268      4218.8888      1922.4652     -1444.3452     -302.35669    
  21994000   246.29922     -358.5531      -286.37936     -358.56171      0              2962.5466      45.7381        20.047001      20.857         19124.028      3335.9605      2191.5004      3360.1789      943.15274     -1391.3796     -604.3374     
  21994500   241.35463     -358.75435     -288.02954     -358.76313      0              4736.7153      45.586988      20.047001      20.857         19060.845      5621.0283      3704.6304      4884.4871      716.77221     -952.52006      545.06091    
  21995000   243.11401     -359.08435     -287.84398     -359.09352      0              4164.0583      45.229154      20.047001      20.857         18911.227      3035.8907      5137.48        4318.8041      1235.0968      74.36673      -1154.8168    
  21995500   248.51652     -355.864       -283.04052     -355.87299      0              4547.9131      45.461808      20.047001      20.857         19008.505      4413.0259      5805.5326      3425.1809      1263.1794     -695.25858      447.58372    
  21996000   248.44964     -359.78041     -286.97653     -359.78827      0              4050.8024      45.741109      20.047001      20.857         19125.286      4067.8599      3772.9817      4311.5654     -417.57945     -779.32784     -889.97484    
  21996500   255.08766     -357.24133     -282.49229     -357.24866      0              5707.4441      45.569056      20.047001      20.857         19053.347      4584.4346      6477.3405      6060.5573      1307.9901     -8.886625       2265.3672    
  21997000   255.65688     -355.47285     -280.55701     -355.48054      0              6317.1594      45.358985      20.047001      20.857         18965.512      6159.4677      6664.5265      6127.4841     -250.55279      764.09163      1426.0113    
  21997500   258.75445     -354.87082     -279.04729     -354.87821      0              2974.3688      45.55749       20.047001      20.857         19048.511      3379.7357      2634.9716      2908.399      -760.51373     -323.86034      2488.5744    
  21998000   254.62755     -357.9378      -283.32359     -357.94017      0              3803.676       45.830442      20.047001      20.857         19162.638      6007.3233      2759.435       2644.2696      870.05568      360.96803      313.15991    
  21998500   249.99276     -357.61543     -284.35936     -357.62227      0              5377.6515      45.7062        20.047001      20.857         19110.69       5196.1608      5853.3947      5083.3988      352.18905      771.10814      865.02344    
  21999000   255.07002     -355.91739     -281.17352     -355.92561      0              3271.0056      45.269684      20.047001      20.857         18928.174      5395.3825      3494.1541      923.48028     -1004.1222     -358.99055      360.63498    
  21999500   251.67633     -355.69558     -281.94617     -355.70438      0              3938.848       45.429553      20.047001      20.857         18995.018      4850.8713      4325.2541      2640.4186     -320.87979     -1635.4524      276.71226    
  22000000   247.62514     -356.1042      -283.54193     -356.10699      0              4817.8096      45.747912      20.047001      20.857         19128.131      4613.7086      4014.5792      5825.141       1655.3521      843.11253      416.98558    
  22000500   246.32903     -357.98765     -285.80517     -357.98873      0              4351.8154      45.614783      20.047001      20.857         19072.467      5071.5278      4465.0867      3518.8316     -843.50576     -787.5074      -1080.2301    
  22001000   255.10082     -358.09106     -283.33817     -358.09393      0              4260.6277      45.364861      20.047001      20.857         18967.969      4990.4561      4776.9194      3014.5077      1102.9807      826.23206      499.43419    
  22001500   249.7596      -356.20076     -283.01302     -356.20949      0              6186.4206      45.46663       20.047001      20.857         19010.521      7097.5441      4603.5763      6858.1415      451.28427      534.95342     -1226.1598    
  22002000   251.02177     -357.12274     -283.56515     -357.12912      0              5040.7613      45.685196      20.047001      20.857         19101.908      7553.8596      4599.6909      2968.7335      763.45316     -447.8092       123.02677    
  22002500   244.04046     -359.11772     -287.60587     -359.12573      0              5837.582       45.571438      20.047001      20.857         19054.343      5936.0215      7118.028       4458.6967      108.71728     -1400.6985      612.12362    
  22003000   248.84429     -358.20307     -285.28354     -358.21113      0              4873.7053      45.568537      20.047001      20.857         19053.13       8546.776       2186.4634      3887.8764     -1216.3874      282.16313      869.6261     
  22003500   249.55493     -357.90872     -284.78095     -357.91649      0              5528.5924      45.863044      20.047001      20.857         19176.27       2589.4019      6219.7316      7776.6438      267.04809     -309.86702      467.47639    
  22004000   246.53851     -355.93651     -283.69265     -355.9423       0              6282.3775      45.825406      20.047001      20.857         19160.532      9062.3511      4348.4952      5436.2863     -373.10521     -2256.7411      86.424574    
  22004500   247.44966     -356.56468     -284.05382     -356.57293      0              4224.3593      45.661695      20.047001      20.857         19092.082      3922.5289      4942.9694      3807.5795     -1093.5152      1732.9337      346.15115    
  22005000   248.341       -356.90741     -284.13536     -356.91623      0              5004.5044      45.554005      20.047001      20.857         19047.054      7137.5706      4680.1797      3195.7628      526.99027     -304.67981      853.23142    
  22005500   253.98234     -357.94713     -283.52199     -357.95341      0              5569.5528      45.544449      20.047001      20.857         19043.059      6858.6379      4851.0816      4998.9389      286.93419      981.67745     -974.9521     
  22006000   250.20762     -359.20432     -285.88529     -359.2055       0              6325.4686      45.565473      20.047001      20.857         19051.849      5959.8429      7576.3947      5440.1681     -478.49569      336.19039      908.25593    
  22006500   251.69868     -355.66517     -281.90922     -355.66498      0              3275.805       45.567568      20.047001      20.857         19052.725      5909.4223      731.22004      3186.7727     -1376.3549      569.65854      470.92225    
  22007000   256.62716     -358.56732     -283.36716     -358.57215      0              2403.6743      45.625773      20.047001      20.857         19077.062      2396.9837      1432.1877      3381.8516     -280.86824     -452.47636      709.43987    
  22007500   247.68788     -357.60326     -285.0226      -357.60551      0              7001.9391      45.371466      20.047001      20.857         18970.731      6530.5113      8765.491       5709.8151     -291.72182     -442.55584     -1659.9997    
  22008000   247.20494     -357.32199     -284.88285     -357.3253       0              4797.394       45.471541      20.047001      20.857         19012.574      3399.5849      5612.5534      5380.0436      1482.8041      375.52017      954.52924    
  22008500   245.03722     -357.50614     -285.7022      -357.51407      0              4981.3419      46.00879       20.047001      20.857         19237.209      6232.1163      4901.4809      3810.4286     -96.573793      1471.7412     -1377.6669    
  22009000   242.33431     -358.01832     -287.00643     -358.02578      0              4480.2027      45.724315      20.047001      20.857         19118.264      4791.6051      5064.4344      3584.5686     -1335.9434      555.88704      965.88219    
  22009500   248.56712     -356.1089      -283.27059     -356.11143      0              5728.4294      45.219828      20.047001      20.857         18907.328      7753.607       3920.5513      5511.1298      188.07183     -92.925212      179.87149    
  22010000   252.24545     -357.77323     -283.85705     -357.77521      0              4911.6999      45.61731       20.047001      20.857         19073.523      5756.976       6827.052       2151.0718     -273.20898     -1238.5929     -40.397421    
  22010500   256.36024     -357.57098     -282.44904     -357.57959      0              5181.7299      45.991399      20.047001      20.857         19229.937      6092.9037      4384.3273      5067.9588      381.31042     -511.42236      644.90367    
  22011000   249.50674     -356.00431     -282.89066     -356.00745      0              6714.399       45.564164      20.047001      20.857         19051.302      5422.7651      10041.18       4679.2516     -853.14756     -287.9152      -1326.2951    
  22011500   249.13969     -357.78286     -284.77677     -357.78657      0              5808.9839      45.232467      20.047001      20.857         18912.612      7028.6376      5107.2861      5291.028      -446.90484      66.928771      871.52719    
  22012000   241.44179     -357.47916     -286.72881     -357.47546      0              2352.9292      45.338621      20.047001      20.857         18956.998      4469.5193      52.042207      2537.2262     -638.6286       253.56783      524.38001    
  22012500   250.56931     -356.71908     -283.29407     -356.71668      0              6755.5252      45.498955      20.047001      20.857         19024.037      8588.7923      7222.5839      4455.1993      126.26203      223.9655      -759.81332    
  22013000   251.15759     -357.29794     -283.70054     -357.29961      0              6061.0463      45.704779      20.047001      20.857         19110.096      8283.6416      3731.055       6168.4423     -1754.2815     -1515.9893      463.39166    
  22013500   256.4203      -354.2006      -279.06105     -354.19351      0              5413.2606      45.719194      20.047001      20.857         19116.123      4079.6515      5611.9858      6548.1447      384.40627      104.23944     -142.10621    
  22014000   256.25958     -355.42884     -280.33639     -355.41385      0              5819.1902      45.748804      20.047001      20.857         19128.504      6904.9669      5605.5524      4947.0513     -727.35394      1676.7169      1533.7674    
  22014500   248.89935     -355.4378      -282.50213     -355.44088      0              6004.3749      45.866886      20.047001      20.857         19177.876      6726.2358      4927.0367      6359.8522     -69.115449      1120.672      -942.14212    
  22015000   248.58979     -355.35951     -282.51456     -355.35724      0              6113.8737      45.818582      20.047001      20.857         19157.679      5443.1521      6110.443       6788.0261     -1713.6586      581.76441     -1166.2356    
  22015500   253.3982      -356.18059     -281.92662     -356.16592      0              7063.0013      45.713091      20.047001      20.857         19113.572      7146.3943      7745.9278      6296.6817      618.68621      659.75928      2299.5735    
  22016000   246.84498     -353.22563     -280.89197     -353.22316      0              3371.9935      45.595173      20.047001      20.857         19064.267      2245.037       4604.3704      3266.5733     -1926.7628     -248.65323      851.33587    
  22016500   254.42047     -356.55572     -282.00219     -356.55318      0              6477.461       45.516834      20.047001      20.857         19031.512      7500.4324      5913.2242      6018.7264      1389.117       1392.9252      576.05982    
  22017000   244.03419     -354.86222     -283.35221     -354.84868      0              5428.1514      45.648438      20.047001      20.857         19086.539      6265.7182      5594.0658      4424.6704      718.38307      1908.6447      653.52949    
  22017500   247.84539     -355.47297     -282.84615     -355.47043      0              3569.6692      45.884134      20.047001      20.857         19185.088      5859.3282      1569.6679      3280.0115     -575.43619      1238.3666      1289.2261    
  22018000   248.80124     -356.87194     -283.96503     -356.87089      0              6825.8468      45.538622      20.047001      20.857         19040.622      7411.1176      7140.945       5925.4779     -341.82413      1328.9598      558.89573    
  22018500   251.22817     -356.63295     -283.01487     -356.63126      0              5519.4841      45.545147      20.047001      20.857         19043.35       6966.6667      6159.8742      3431.9114      1593.9812      494.05169     -429.02803    
  22019000   239.51726     -356.11323     -285.92683     -356.11694      0              3288.4459      45.724035      20.047001      20.857         19118.147      3934.3876      3971.5817      1959.3684     -1457.1636      323.48211      3.7949601    
  22019500   255.37756     -357.27015     -282.43616     -357.27837      0              4934.4612      45.761264      20.047001      20.857         19133.713      6704.841       4188.9358      3909.6068     -495.80208     -885.19901     -1396.5608    
  22020000   250.76        -353.36152     -279.88063     -353.37043      0              5690.8251      45.794505      20.047001      20.857         19147.612      6602.4068      4377.801       6092.2674     -430.12303     -361.5107      -1404.0882    
  22020500   250.83066     -356.75203     -283.25043     -356.7599       0              3812.7688      45.7396        20.047001      20.857         19124.655      4076.857       3576.5241      3784.9253      256.36614      607.70059     -61.587509    
  22021000   246.39044     -354.85075     -282.65029     -354.8596       0              6514.4648      45.606576      20.047001      20.857         19069.035      7446.3736      5480.509       6616.5116      127.84422      207.32874     -891.973      
  22021500   246.61042     -355.87056     -283.60563     -355.87783      0              4596.9386      45.710703      20.047001      20.857         19112.573      3583.0719      4737.8217      5469.922       259.96859     -829.99842     -1038.4121    
  22022000   257.01375     -356.19698     -280.88354     -356.20609      0              4875.6772      45.714236      20.047001      20.857         19114.05       5226.7852      6258.5245      3141.7219     -882.14826      1257.8164      1238.9673    
  22022500   253.74207     -357.89892     -283.54418     -357.90776      0              6301.781       45.850289      20.047001      20.857         19170.937      4143.0233      9007.5523      5754.7672      1309.4401     -1278.0343      982.29959    
  22023000   247.71225     -355.67108     -283.08328     -355.67908      0              6953.3152      45.539652      20.047001      20.857         19041.053      5693.7309      8203.9731      6962.2416     -869.85078     -357.29632     -838.08077    
  22023500   256.01112     -360.31103     -285.29139     -360.31941      0              3790.5669      45.551424      20.047001      20.857         19045.975      7519.8816      3264.9698      586.84927     -1476.6548      816.46419      1977.1897    
  22024000   239.90012     -356.1732      -285.87461     -356.18188      0              4365.6592      45.843684      20.047001      20.857         19168.175      4610.0455      4597.1027      3889.8293      447.39309      414.58876     -363.43097    
  22024500   253.64571     -358.24274     -283.91624     -358.25087      0              4306.4693      45.901972      20.047001      20.857         19192.546      5868.2704      4447.8566      2603.2808     -1380.4246     -2408.3254      1413.4719    
  22025000   254.91515     -356.61615     -281.91767     -356.62515      0              5667.6192      45.614372      20.047001      20.857         19072.295      8001.1815      4176.6783      4824.998      -2115.0867      1031.9927      1501.5154    
  22025500   247.5402      -356.03248     -283.49509     -356.04071      0              3534.6286      45.883677      20.047001      20.857         19184.897      5336.7269      4121.63        1145.5289     -349.23868     -284.81351     -1159.4009    
  22026000   253.69734     -355.63955     -281.29792     -355.64252      0              5263.2593      45.693274      20.047001      20.857         19105.285      8913.7547      4096.4655      2779.5578     -51.885362     -640.45513      1334.3209    
  22026500   249.59995     -356.2793      -283.13834     -356.28429      0              5849.5553      45.516275      20.047001      20.857         19031.278      6926.3793      6709.6754      3912.6112     -11.188397      709.1307       1596.4142    
  22027000   250.96931     -359.62382     -286.08159     -359.62372      0              4718.2916      45.744777      20.047001      20.857         19126.82       5730.9888      6581.7818      1842.104      -1539.5241     -504.10688     -736.50373    
  22027500   242.70868     -357.50312     -286.38153     -357.51107      0              2115.3121      45.803305      20.047001      20.857         19151.291      2363.5157      1956.8707      2025.55       -2623.7702     -916.22281      861.73018    
  22028000   252.46857     -357.81208     -283.83052     -357.82037      0              4258.7998      45.589511      20.047001      20.857         19061.9        5894.2001      3689.9027      3192.2966      227.02589      1669.4923      751.03883    
  22028500   254.86253     -357.91438     -283.23131     -357.92242      0              5533.7289      45.532907      20.047001      20.857         19038.233      8743.6997      5349.3658      2508.1213     -168.37912     -939.42199      1710.1975    
  22029000   252.57513     -354.31703     -280.30425     -354.31908      0              3910.859       45.653649      20.047001      20.857         19088.718      5549.9784      4104.9143      2077.6843     -630.06166     -402.86845      1338.1487    
  22029500   255.594       -355.69582     -280.79841     -355.70295      0              5712.7886      45.69167       20.047001      20.857         19104.615      5751.9839      5445.5264      5940.8555      1642.5103      170.21874     -382.86415    
  22030000   245.27609     -356.2782      -284.40427     -356.27933      0              5704.8754      45.7435        20.047001      20.857         19126.286      5302.8463      5375.483       6436.297       714.42376     -374.06791      217.67221    
  22030500   245.08323     -356.98257     -285.16516     -356.99044      0              4823.1711      45.818568      20.047001      20.857         19157.673      5096.9571      5666.2705      3706.2858      901.87414     -1365.0214     -41.101043    
  22031000   254.30859     -353.49894     -278.97819     -353.50811      0              6679.7944      45.641806      20.047001      20.857         19083.765      6787.2064      6274.7041      6977.4728     -22.949865      174.72757     -603.24022    
  22031500   252.94957     -354.04824     -279.92573     -354.05614      0              7473.8506      45.461424      20.047001      20.857         19008.344      6103.53        8439.084       7878.9378     -368.70151     -2133.6347      293.35797    
  22032000   252.11903     -356.03992     -282.16079     -356.04326      0              3002.1072      45.623302      20.047001      20.857         19076.029      2207.2039      3467.8625      3331.2551      305.9461       392.49123      1823.4013    
  22032500   250.41778     -356.12857     -282.74796     -356.13664      0              5740.1343      45.787891      20.047001      20.857         19144.847      7180.4658      5621.0562      4418.881       7.2384108     -66.320286      1637.0287    
  22033000   247.48954     -355.46871     -282.94617     -355.47108      0              5456.8216      45.786703      20.047001      20.857         19144.35       6944.0457      5743.9976      3682.4216     -298.40599      787.66794      201.82867    
  22033500   250.76924     -357.43087     -283.94727     -357.43425      0              4670.6193      45.654349      20.047001      20.857         19089.01       8241.0864      3609.8839      2160.8876     -1462.8908      1304.865       867.51977    
  22034000   250.35563     -356.89204     -283.52964     -356.89587      0              5987.1101      45.680172      20.047001      20.857         19099.807      8683.8411      3205.0162      6072.473      -145.15853     -682.56795     -1544.9731    
  22034500   249.11164     -356.81719     -283.81932     -356.82521      0              6151.8064      45.775774      20.047001      20.857         19139.78       4995.7869      6016.4015      7443.2309      1450.2117     -480.87015      1869.2942    
  22035000   254.12247     -356.92251     -282.45631     -356.93155      0              5627.5643      45.728531      20.047001      20.857         19120.027      7392.4606      4562.2436      4927.9887     -131.52795     -412.61027     -147.51063    
  22035500   249.98852     -357.55004     -284.29522     -357.55856      0              4184.0225      45.668243      20.047001      20.857         19094.82       4411.1329      3103.1216      5037.8129      1432.8083      466.9728      -230.8248     
  22036000   259.32699     -356.56782     -280.57652     -356.56969      0              6087.543       45.634266      20.047001      20.857         19080.613      6207.5134      6358.6616      5696.4539      695.2844      -75.04907      -2128.6315    
  22036500   246.45301     -355.88886     -283.67006     -355.89609      0              5929.4107      45.83376       20.047001      20.857         19164.025      6742.3004      6242.9307      4803.0009      102.68276     -1620.4683     -997.4873     
  22037000   250.65491     -354.0946      -280.64451     -354.10365      0              4585.0526      45.977923      20.047001      20.857         19224.303      7998.6859      593.59846      5162.8736     -1834.6649      855.46474      1063.1754    
  22037500   254.82559     -355.84556     -281.17331     -355.85372      0              3651.3534      45.817869      20.047001      20.857         19157.381      4237.6754      4188.6673      2527.7176     -1145.0196     -174.11188      504.03951    
  22038000   252.56855     -357.07521     -283.06435     -357.08386      0              4882.7356      45.572479      20.047001      20.857         19054.779      7937.3945      3359.6889      3351.1236      646.86824     -1040.5081      1778.8128    
  22038500   249.49201     -356.76933     -283.66        -356.77742      0              6540.2156      45.726478      20.047001      20.857         19119.169      7624.8506      3959.2613      8036.535      -40.224902      1252.5785     -863.83393    
  22039000   249.13216     -355.8667      -282.86282     -355.87589      0              5655.0462      45.899237      20.047001      20.857         19191.403      7949.9204      5069.6577      3945.5605     -1823.1411     -687.41915      931.06402    
  22039500   250.19707     -355.49463     -282.1787      -355.50269      0              3329.1767      46.034872      20.047001      20.857         19248.114      4749.7422      1975.8991      3261.8888      503.0071       1094.8814      339.09412    
  22040000   252.47959     -355.91507     -281.93028     -355.92397      0              6498.2455      45.756478      20.047001      20.857         19131.712      8790.457       6395.3778      4308.9019      152.43188     -417.7165      -641.74818    
  22040500   250.14799     -357.16192     -283.86037     -357.16805      0              5225.7984      45.783028      20.047001      20.857         19142.813      4856.1458      7406.026       3415.2233     -314.21715     -875.88552      88.552282    
  22041000   245.18617     -355.2634      -283.41582     -355.2723       0              4747.4867      45.987454      20.047001      20.857         19228.288      6519.0445      2545.1095      5178.3061     -852.65961     -914.26381      576.95496    
  22041500   247.72701     -355.59746     -283.00533     -355.60092      0              3975.7808      45.646579      20.047001      20.857         19085.761      4162.1382      5529.8604      2235.3438      316.93027      1169.3289      1304.6337    
  22042000   255.60644     -356.89867     -281.99761     -356.90246      0              5660.6776      45.549496      20.047001      20.857         19045.169      7488.8735      4948.2729      4544.8865     -139.72193      582.79973     -1224.1229    
  22042500   252.17664     -356.7739      -282.87789     -356.78112      0              4060.7045      45.831249      20.047001      20.857         19162.975      5293.4383      4515.8421      2372.8332     -507.88855      1155.544       567.28417    
  22043000   244.23098     -356.59844     -285.03077     -356.60315      0              4584.8715      45.781726      20.047001      20.857         19142.269      5796.8346      2872.7574      5085.0225     -107.86698     -1047.7479     -1969.4383    
  22043500   259.73136     -354.20337     -278.09358     -354.21038      0              4350.2737      45.670544      20.047001      20.857         19095.782      5529.9629      3318.2904      4202.5676      1338.5767     -248.20807      1543.7305    
[...]
  24939500   253.76989     -352.73382     -278.37093     -352.74318      0              5349.4751      45.322411      20.047001      20.857         18950.22       6865.8981      4041.183       5141.3442      1946.8977      867.32891     -1390.027     
  24940000   262.29261     -352.5566      -275.69628     -352.56685      0              3014.2867      45.551479      20.047001      20.857         19045.998      2739.5654      2957.194       3346.1009      1779.8484     -431.03766      1015.5825    
  24940500   262.02224     -353.24961     -276.46851     -353.25895      0              3433.6202      45.738688      20.047001      20.857         19124.274      3883.1861      5478.3642      939.31016      290.45188     -298.83734      517.4753     
  24941000   245.02077     -353.88977     -282.09066     -353.90103      0              5745.1724      45.386954      20.047001      20.857         18977.207      6818.1067      4199.6857      6217.7249      816.51471      1673.2183     -666.39936    
  24941500   258.37125     -356.552       -280.84076     -356.56226      0              6096.3976      45.308813      20.047001      20.857         18944.535      6727.7749      6575.4098      4986.0082      18.450512     -1260.7162      2118.2528    
  24942000   253.08938     -356.77326     -282.60979     -356.78351      0              4276.0856      45.49395       20.047001      20.857         19021.944      5756.2063      3321.7777      3750.2728     -502.77503     -1132.5104      381.31259    
  24942500   250.1513      -356.46299     -283.16046     -356.47363      0              5452.849       45.519032      20.047001      20.857         19032.431      3230.8005      7760.1485      5367.5979      207.44307     -186.44102      1356.0482    
  24943000   248.68617     -355.28663     -282.41344     -355.29783      0              3093.9314      45.610254      20.047001      20.857         19070.573      1178.9195      5173.0514      2929.8234     -487.50059     -2290.2335     -494.17741    
  24943500   241.02578     -358.07352     -287.44507     -358.08298      0              3916.9129      45.296006      20.047001      20.857         18939.18       3323.117       5014.894       3412.7276      112.24015     -716.75919     -2149.5961    
  24944000   257.52774     -358.97091     -283.50684     -358.98106      0              6020.8385      45.132916      20.047001      20.857         18870.988      4504.685       7631.5795      5926.2509     -1380.9173      881.99626     -523.80034    
  24944500   248.33124     -356.55981     -283.79063     -356.56923      0              5244.4114      45.422022      20.047001      20.857         18991.869      5270.5954      3811.7802      6650.8586      1465.9307      1503.4887     -651.98946    
  24945000   248.25147     -356.65889     -283.91308     -356.66559      0              5638.9787      45.522883      20.047001      20.857         19034.041      5796.8514      4636.5035      6483.5814     -552.44793      553.73825     -118.80841    
  24945500   247.06515     -355.40744     -283.00926     -355.41789      0              4813.1351      45.40736       20.047001      20.857         18985.739      2974.042       7994.6681      3470.6951     -1987.2949      275.62234      929.65998    
  24946000   248.7618      -358.88563     -285.99028     -358.89577      0              4689.8359      45.306024      20.047001      20.857         18943.368      5354.0991      4093.7801      4621.6285      604.51789     -1499.88        135.28166    
  24946500   242.9502      -358.46187     -287.2695      -358.47233      0              5713.8337      45.300666      20.047001      20.857         18941.128      6525.6974      5263.3041      5352.4995     -637.6584      -72.570481     -1001.8822    
  24947000   243.23886     -356.82365     -285.5467      -356.83354      0              5826.012       45.591843      20.047001      20.857         19062.875      6835.5687      6033.0911      4609.3761      72.43747       1102.6195      1464.7418    
  24947500   244.57874     -357.41397     -285.74439     -357.42524      0              5812.6825      45.716494      20.047001      20.857         19114.994      8249.3236      2983.8959      6204.8282     -468.28969      1432.2021      2209.5718    
  24948000   253.88749     -355.65838     -281.26103     -355.66773      0              4605.9157      45.440306      20.047001      20.857         18999.514      5035.7804      3908.7365      4873.2303     -612.74565     -563.60546     -572.74782    
  24948500   253.41446     -355.04793     -280.78919     -355.0579       0              7276.4254      45.446942      20.047001      20.857         19002.289      8342.1089      8148.8637      5338.3036     -93.830928      1036.426       1574.3468    
  24949000   248.66406     -355.48454     -282.61783     -355.492        0              5054.5923      45.506072      20.047001      20.857         19027.013      5967.629       5758.2375      3437.9105      126.57335      850.4841       1871.8108    
  24949500   258.47092     -357.97449     -282.23405     -357.9856       0              4324.241       45.415211      20.047001      20.857         18989.022      3878.0577      5213.8497      3880.8155      121.91491      490.46988      571.56482    
  24950000   249.5023      -358.29845     -285.18611     -358.30506      0              6294.3541      45.209534      20.047001      20.857         18903.024      7437.636       4398.6226      7046.8037     -76.529048      183.44989      1206.5765    
  24950500   251.51004     -355.87194     -282.17126     -355.88078      0              3279.4431      45.377014      20.047001      20.857         18973.051      2358.2605      3638.1571      3841.9117     -219.86321     -803.91278     -3203.5672    
  24951000   252.28099     -356.46667     -282.54008     -356.47653      0              5707.5797      45.482891      20.047001      20.857         19017.32       6855.7924      5636.1354      4630.8112     -842.53536      82.456314      1340.3655    
  24951500   255.58714     -356.67801     -281.78261     -356.68738      0              7586.6532      45.172845      20.047001      20.857         18887.684      7421.3277      8047.3815      7291.2503      892.16905     -1632.2369     -80.546079    
  24952000   251.06691     -355.28502     -281.71419     -355.29579      0              5608.6499      45.116392      20.047001      20.857         18864.079      5364.9717      5182.2281      6278.7499     -221.1948       473.91969     -127.26478    
  24952500   248.87375     -356.5445      -283.61634     -356.55561      0              5667.4988      45.225296      20.047001      20.857         18909.614      6687.7928      4072.5948      6242.1087     -1363.175      -523.16772     -811.69306    
  24953000   251.27927     -355.59103     -281.95798     -355.60045      0              7179.3201      45.300356      20.047001      20.857         18940.998      7904.0209      7486.6306      6147.3087      68.814948     -88.79771      -18.182593    
  24953500   247.25496     -355.59743     -283.14364     -355.60678      0              5824.5057      45.559276      20.047001      20.857         19049.258      7081.5657      5012.4172      5379.5342     -96.236177      560.01058     -1417.2957    
  24954000   252.15564     -355.65895     -281.76909     -355.66929      0              6156.8079      45.657816      20.047001      20.857         19090.46       5320.9172      8279.3439      4870.1626      794.28396      478.71073     -91.446755    
  24954500   248.88737     -355.05061     -282.11846     -355.05377      0              6798.2095      45.24473       20.047001      20.857         18917.74       8463.3583      5378.3625      6552.9078      33.918126      432.13616     -1120.6228    
  24955000   255.19139     -356.35272     -281.57329     -356.36307      0              5947.3414      45.196539      20.047001      20.857         18897.591      7654.7947      5604.7042      4582.5253     -633.55831     -137.67958      74.798616    
  24955500   247.0729      -357.01461     -284.61416     -357.0258       0              4026.168       45.824311      20.047001      20.857         19160.075      2615.5877      4939.883       4523.0334      280.80074      372.32181      830.87595    
  24956000   250.50358     -358.66432     -285.25857     -358.67437      0              4859.7736      45.667568      20.047001      20.857         19094.537      4103.5952      5738.0278      4737.6977      657.77034     -2394.3574      2768.3793    
  24956500   246.11992     -356.20599     -284.0848      -356.20426      0              9042.2241      45.207227      20.047001      20.857         18902.059      7580.0993      9869.0491      9677.5238      29.854808     -1342.4583     -617.26386    
  24957000   248.59785     -357.57642     -284.72911     -357.57946      0              5057.7862      45.388904      20.047001      20.857         18978.022      6941.2165      2645.9232      5586.2189      204.84631      759.09977     -231.00682    
  24957500   246.88195     -356.70398     -284.35948     -356.71342      0              5426.3311      45.544746      20.047001      20.857         19043.183      8398.0142      4030.4591      3850.5201     -553.48978     -2961.2077      267.88545    
  24958000   246.5306      -354.91316     -282.67162     -354.92172      0              4702.4153      45.451924      20.047001      20.857         19004.372      7053.5309      4640.6258      2413.0891     -239.96194      74.887774      771.9978     
  24958500   250.22679     -355.45989     -282.13525     -355.45782      0              6291.056       45.172358      20.047001      20.857         18887.48       8612.7633      6876.75        3383.6547     -1035.4657      120.63342      1846.542     
  24959000   257.37745     -356.16173     -280.74171     -356.16812      0              4068.1485      45.42779       20.047001      20.857         18994.281      5506.3741      3852.6811      2845.3904      561.37842      153.45888     -2790.9772    
  24959500   253.922       -354.89496     -280.4875      -354.90435      0              5827.3023      45.723323      20.047001      20.857         19117.85       7172.0857      4955.1192      5354.702       1209.9342      1492.1865      106.14606    
  24960000   242.53782     -359.43309     -288.36156     -359.43512      0              4596.4247      45.639988      20.047001      20.857         19083.006      6010.9001      4658.5384      3119.8354      773.30456     -41.712236     -2140.1315    
  24960500   252.58597     -359.02728     -285.01132     -359.03709      0              4695.4206      45.489007      20.047001      20.857         19019.877      5529.72        3365.2372      5191.3046      248.55735     -627.29022     -256.167      
  24961000   250.19409     -357.35698     -284.04192     -357.3666       0              6135.9441      45.623173      20.047001      20.857         19075.975      6596.1044      8404.2125      3407.5152      140.86481     -1188.5531     -1297.4074    
  24961500   249.0589      -358.46158     -285.47917     -358.47088      0              6636.6559      45.413141      20.047001      20.857         18988.156      7311.3044      6273.9014      6324.7619      1181.7489     -273.53197     -651.20767    
  24962000   256.85826     -358.37761     -283.10973     -358.38315      0              6097.7109      45.093453      20.047001      20.857         18854.488      9096.4562      4590.7765      4605.9         93.50961      -1712.6312     -492.95965    
  24962500   252.7686      -355.63199     -281.56251     -355.6357       0              5842.75        45.218367      20.047001      20.857         18906.717      7023.6404      7613.0454      2891.5642     -1234.3968      71.888088      606.9209     
  24963000   257.19814     -357.18373     -281.81625     -357.18736      0              4453.5845      45.435435      20.047001      20.857         18997.478      8119.5248      2767.3251      2473.9037      1671.5522     -412.57269     -1304.9854    
  24963500   245.44151     -356.35654     -284.43414     -356.36739      0              5189.322       45.543294      20.047001      20.857         19042.576      3033.8121      8288.7814      4245.3725     -491.32032      459.66197      233.90015    
  24964000   252.98357     -355.40013     -281.26766     -355.41131      0              5341.0651      45.464381      20.047001      20.857         19009.58       5324.068       4553.7347      6145.3927      515.14429     -1229.1172      272.73532    
  24964500   245.48004     -357.37294     -285.43924     -357.38424      0              5228.0462      45.410387      20.047001      20.857         18987.005      5468.9642      5045.6494      5169.525       1144.914       64.008396      931.09629    
  24965000   253.40867     -356.59257     -282.33553     -356.602        0              6208.6595      45.233112      20.047001      20.857         18912.882      7000.1416      5844.6017      5781.2353      675.72409      448.10108     -1895.7021    
  24965500   248.73162     -357.21022     -284.32371     -357.21855      0              4693.6723      45.197493      20.047001      20.857         18897.989      6142.4797      5110.8226      2827.7145      1355.1454      901.25981     -492.79465    
  24966000   245.4566      -354.95985     -283.03303     -354.96455      0              4171.9016      45.447494      20.047001      20.857         19002.52       2915.855       5982.063       3617.7868      1510.8437      195.4859       166.40424    
  24966500   251.23506     -356.8174      -283.1973      -356.82487      0              5438.1446      45.348306      20.047001      20.857         18961.047      5996.0839      7255.7009      3062.649      -97.207185     -767.1704      -1222.7813    
  24967000   249.63567     -357.48876     -284.33733     -357.4863       0              4984.3237      45.268033      20.047001      20.857         18927.483      4926.6449      4926.251       5100.0752     -47.04075       389.82815     -395.50654    
  24967500   243.26478     -355.91706     -284.63251     -355.92293      0              5347.5858      45.565931      20.047001      20.857         19052.041      5007.9463      6887.0197      4147.7914     -692.69446      2333.168      -761.66247    
  24968000   252.03269     -357.61988     -283.76604     -357.62929      0              6988.0307      45.42614       20.047001      20.857         18993.591      8956.4688      6435.6708      5571.9526      590.19229     -1580.3625     -1066.7906    
  24968500   255.33997     -359.19755     -284.37457     -359.19967      0              4840.348       45.422893      20.047001      20.857         18992.234      3728.3108      5027.9845      5764.7487      759.30159      1199.1332     -1194.7854    
  24969000   252.07745     -355.81284     -281.9459      -355.81537      0              7635.0144      45.606933      20.047001      20.857         19069.185      8147.0541      8615.0086      6142.9806      1262.8338      48.108443     -1047.0182    
  24969500   259.0669      -356.78692     -280.87184     -356.79044      0              5581.714       45.687323      20.047001      20.857         19102.797      6011.2242      6583.2689      4150.649      -241.65402     -166.78104      11.161807    
  24970000   260.21035     -356.27602     -280.02587     -356.28606      0              5685.245       45.375703      20.047001      20.857         18972.503      4450.9069      6443.2936      6161.5346      1267.8858      36.581466     -383.62459    
  24970500   252.98672     -356.77656     -282.64316     -356.78654      0              4736.5438      45.281863      20.047001      20.857         18933.266      4837.9551      4468.9123      4902.764       586.74989      255.12477      1220.9086    
  24971000   243.23375     -358.08274     -286.80728     -358.08318      0              5987.966       45.324443      20.047001      20.857         18951.07       7374.7586      6787.6065      3801.5329      328.12254      608.0918      -1537.673     
  24971500   245.65016     -359.59622     -287.61267     -359.59597      0              4662.1526      45.403428      20.047001      20.857         18984.095      4135.7817      5291.8634      4558.8128     -85.451614     -330.57741     -702.20425    
  24972000   245.12983     -358.22165     -286.39058     -358.22722      0              5427.8968      45.321492      20.047001      20.857         18949.836      9113.6141      3455.4581      3714.6182     -812.1236       432.1307      -1744.1411    
  24972500   253.84846     -360.66224     -286.27633     -360.66163      0              5694.6781      45.095212      20.047001      20.857         18855.224      6647.1224      5491.8986      4945.0134     -1045.1525     -284.21458      1038.5536    
  24973000   251.47531     -359.76386     -286.07336     -359.76608      0              7581.2062      45.497362      20.047001      20.857         19023.371      8598.5628      7297.6784      6847.3775     -394.67001     -1030.4902     -156.4767     
  24973500   260.48188     -358.42474     -282.09502     -358.4242       0              4463.9872      45.577066      20.047001      20.857         19056.696      4590.3583      3064.7477      5736.8557      1300.5573     -246.13826      333.89068    
  24974000   254.98098     -356.18781     -281.47003     -356.18016      0              6800.0951      45.232664      20.047001      20.857         18912.695      7769.6369      6134.1338      6496.5146     -371.92972      1155.4803      144.73894    
  24974500   252.50061     -355.54353     -281.55258     -355.5529       0              6439.3372      45.037845      20.047001      20.857         18831.237      8825.8715      5267.1213      5225.0188      1088.766      -2125.3451      1600.911     
  24975000   254.16637     -356.74745     -282.26838     -356.75325      0              5328.2711      45.342311      20.047001      20.857         18958.54       5362.6818      5004.696       5617.4354      675.02306     -533.37686      208.33739    
  24975500   247.48069     -358.47131     -285.95137     -358.46336      0              5807.6574      45.55662       20.047001      20.857         19048.148      7235.8625      4867.0264      5320.0832     -537.37294      1023.6921     -428.31644    
  24976000   249.42481     -356.84132     -283.75169     -356.84293      0              8158.6632      45.36447       20.047001      20.857         18967.806      8230.688       6291.8159      9953.4858      517.14863      452.21753     -666.57477    
  24976500   251.1656      -356.87152     -283.27177     -356.88101      0              3172.2642      45.345432      20.047001      20.857         18959.846      4997.2494      1491.2566      3028.2867      720.74517      1609.0077      3561.1315    
  24977000   253.00647     -355.07755     -280.93837     -355.08391      0              5890.6481      45.56265       20.047001      20.857         19050.669      6521.8308      5414.2161      5735.8975     -867.54448     -1236.4597     -1568.0769    
  24977500   252.42553     -356.2411      -282.27215     -356.24878      0              5329.9273      45.470744      20.047001      20.857         19012.241      8571.2619      3489.6419      3928.8781     -357.53804     -583.20988     -308.51644    
  24978000   250.68255     -358.8021      -285.3439      -358.80655      0              4012.5224      45.250071      20.047001      20.857         18919.973      5373.2139      3761.9428      2902.4105     -945.15653      2140.461      -683.81403    
ERROR on proc 0: Cannot open restart file restart.lmp.0: Permission denied (../write_restart.cpp:233)
Last command: run             40000000 upto
