LAMMPS data file via write_data, version 29 Sep 2021, timestep = 400000

972 atoms
2 atom types

-0.18512380196779432 20.176176801969206 xlo xhi
-0.10940938430140612 20.100462384302283 ylo yhi
0.26381357776865855 20.536958422230775 zlo zhi

Masses

1 1.008
2 15.999

Atoms # full

2 0 2 0 1.5953369235118438 2.4557528675772193 0.8692976319086294 0 0 0
31 0 1 0 0.38007919759955955 2.0828513792569963 2.3865549788389546 0 0 0
32 0 2 0 0.7155086193216531 1.1893985192014151 2.5209994003090834 0 0 0
33 0 2 0 0.5829033057806517 2.658228129699811 3.1297860705161353 0 0 0
5 0 2 0 3.203903555728847 0.9354573329070284 3.8342878672253855 0 0 0
18 0 2 0 3.949487982235655 3.1264545868459113 3.4777425994500413 0 0 0
4 0 1 0 3.969754981442758 1.0376361518663328 3.2505850208172307 0 0 0
35 0 2 0 4.126635967109401 2.4120617351926215 0.8270774258291672 0 0 0
6 0 2 0 4.760777984243576 0.9783571358287115 3.8364136565868776 0 0 0
36 0 2 0 5.471477556392071 2.1056217427165094 1.5051590039790363 0 0 0
67 0 1 0 7.026147190846392 2.022159510375579 2.615659929866466 0 0 0
34 0 1 0 5.091346451167066 2.3196283612844506 0.675586394613426 0 0 0
68 0 2 0 7.277904588745002 2.6299039065139 3.317495807728611 0 0 0
69 0 2 0 7.635612076844538 2.2412213012531623 1.9368850404144542 0 0 0
40 0 1 0 10.786607640390818 1.0643093421181138 3.476706573320191 0 0 0
54 0 2 0 10.960407054834263 2.999054714275573 3.777231082225221 0 0 0
41 0 2 0 10.072483467391724 0.9146697088573401 4.123953001243679 0 0 0
42 0 2 0 11.553408001594313 0.7322067971329274 3.9358596639847065 0 0 0
39 0 2 0 9.737876964503956 2.4672333084488383 0.7566096736322827 0 0 0
37 0 1 0 8.8273031166861 2.534016049574605 0.40252152120597073 0 0 0
70 0 1 0 11.528025929752076 2.6154381360571164 0.7172372357879964 0 0 0
266 0 2 0 11.077012242589554 0.047495924153200725 2.2796114407051604 0 1 0
72 0 2 0 12.200535058123876 2.42316870860989 1.3992506302049823 0 0 0
84 0 2 0 14.45381983938214 3.4351615452666557 3.3155719597803195 0 0 0
103 0 1 0 14.021749643727498 1.836892931567007 2.4152558055795255 0 0 0
105 0 2 0 14.126147020167961 0.907951476536272 2.272999932315205 0 0 0
104 0 2 0 14.49849816408803 2.23844780127998 1.6816395710132794 0 0 0
73 0 1 0 15.818239800181349 3.1294586836987253 0.516877218482431 0 0 0
76 0 1 0 18.046320424289245 1.1659900216012669 3.339775311246129 0 0 0
77 0 2 0 18.01060585858906 0.4507003726423108 2.7158300138205056 0 0 0
89 0 2 0 17.533499195969036 2.8925114075150806 3.3609740783747135 0 0 0
108 0 2 0 19.275041833073054 2.32162764584617 1.3238996814296395 0 0 0
107 0 2 0 17.815971333294087 2.5439851503584685 0.7538615304426195 0 0 0
106 0 1 0 18.747696447853922 2.3820722282773183 0.5053810831840871 0 0 0
78 0 2 0 18.75917656616527 0.8840299197062703 4.01505844819274 0 0 0
88 0 1 0 17.398083606347015 3.823400483186467 3.5753049787337536 0 0 0
90 0 2 0 16.440488094384776 3.8271183247239433 3.7883896273421485 0 0 0
10 0 1 0 1.1957584731029551 4.017324532366016 4.205506263521424 0 0 0
20 0 2 0 1.1079618617834075 5.452440111191377 2.93611975723423 0 0 0
19 0 1 0 0.8989023656423227 5.889321515529458 2.07319488701381 0 0 0
21 0 2 0 0.7574432087061762 6.799988965917312 2.349629170957803 0 0 0
675 0 2 0 2.107950983881076 5.458628519416905 0.6217181053039464 0 0 1
14 0 2 0 4.239884026032997 5.921925343531576 1.0295046102102061 0 0 0
16 0 1 0 4.00102874492572 4.037394926820347 3.685598944905425 0 0 0
17 0 2 0 4.092952330640345 4.518673780304012 2.8564975266286896 0 0 0
114 0 2 0 4.156059989444155 7.334948599831065 3.0424571646587752 0 0 0
13 0 1 0 4.628963700072444 5.8568124453904575 1.9228591582273091 0 0 0
15 0 2 0 5.584969523597951 5.807615713818049 1.8108534818284114 0 0 0
55 0 1 0 7.625322067147299 5.44954271810998 2.242164943689957 0 0 0
56 0 2 0 7.948369446939523 4.844746624433747 2.946948317063771 0 0 0
177 0 2 0 7.676481355394537 7.216553131053179 2.4701621322349383 0 0 0
112 0 1 0 4.003763974757825 7.776309609927754 3.9179837068912398 0 0 0
52 0 1 0 10.899894898774702 3.9510186213859733 4.065254993606281 0 0 0
57 0 2 0 8.251238433306195 5.4447298767625245 1.5135331625176571 0 0 0
51 0 2 0 11.073338151562929 5.138956172003537 2.5700597440726933 0 0 0
49 0 1 0 11.2884816677453 5.8061708862910955 1.8776398725291426 0 0 0
50 0 2 0 10.730142924054867 5.673477795076809 1.094601576762218 0 0 0
150 0 2 0 10.808375463432817 7.454316612043778 2.785198848574174 0 0 0
149 0 2 0 9.71549834092713 7.779787866129184 3.8555166033618935 0 0 0
82 0 1 0 14.784778058728225 4.269585919603395 3.635617548964602 0 0 0
83 0 2 0 14.769607165214703 4.858130157267224 2.823928918413006 0 0 0
91 0 1 0 14.16734862923318 5.9584638697966 1.6717041741089727 0 0 0
92 0 2 0 14.034674676427784 6.855097862957306 2.0279908251337284 0 0 0
93 0 2 0 13.263345198188283 5.687683872582234 1.5853177156605607 0 0 0
747 0 2 0 15.738744617230306 5.70424682257041 0.8267831274880547 0 0 1
204 0 2 0 15.877944801618874 7.8635912932628305 4.266886148579487 0 0 0
86 0 2 0 17.983418557813664 5.2031118009830415 2.561140838898683 0 0 0
85 0 1 0 18.406722232684793 5.904847903674336 2.096473648313169 0 0 0
87 0 2 0 19.33360698179491 5.694435339780501 1.9564870388919708 0 0 0
746 0 2 0 17.20487701328148 5.914586740409848 0.5279749058994139 0 0 1
185 0 2 0 17.907148563723233 7.381574155949609 2.721755742694347 0 0 0
139 0 1 0 0.8447514690414615 8.605397404065474 2.4748886774676104 0 0 0
141 0 2 0 1.5312805859081047 8.670167248435364 1.7771653126889753 0 0 0
119 0 2 0 1.1356950012045082 10.036145883137419 3.2602865349179533 0 0 0
118 0 1 0 1.2012026765188233 10.83023364177349 3.8538015089006694 0 0 0
120 0 2 0 2.115365589133756 11.114297926515183 3.834684260423183 0 0 0
110 0 2 0 3.451619250681297 9.062387659466863 0.3695284363367104 0 0 0
140 0 2 0 0.006527105562862706 8.656732073695926 1.908678311591108 0 0 0
129 0 2 0 0.34372708034783883 11.915919708287362 2.6290999217512736 0 0 0
124 0 1 0 4.1293816050935455 10.652835672851054 3.531309492434387 0 0 0
126 0 2 0 4.278499726122499 9.68743844850114 3.6353690041516975 0 0 0
122 0 2 0 4.34012398717436 11.68286680050905 2.2977542174622627 0 0 0
175 0 1 0 7.499690919835785 8.149474062198323 2.556934580770186 0 0 0
176 0 2 0 6.725141727708702 8.280680140202012 2.0398958211152856 0 0 0
142 0 1 0 5.687512002326685 9.006183690918643 0.7493192615874711 0 0 0
155 0 2 0 7.7945473531340275 9.535467060937222 3.5493763462809373 0 0 0
156 0 2 0 7.592200326330873 11.035371728800415 3.1766198049153287 0 0 0
125 0 2 0 4.679129923886523 11.019862525802237 4.251186223083273 0 0 0
143 0 2 0 5.771858908039191 9.899776307661703 0.3210559944624831 0 0 0
148 0 1 0 10.49532467381493 8.161933321343751 3.3506684727681555 0 0 0
154 0 1 0 7.991945771730446 10.432840114026213 3.83601833689935 0 0 0
147 0 2 0 8.574061106951586 9.194444499566776 1.2924378637410054 0 0 0
145 0 1 0 9.05709876536107 9.392876534284232 0.46783738774798034 0 0 0
162 0 2 0 10.739539305751043 9.909432046817283 3.5757605079421757 0 0 0
179 0 2 0 11.08715571670677 9.129436902867306 0.5151629649861037 0 0 0
160 0 1 0 10.68085741931544 10.850547225039252 3.6472719402031637 0 0 0
161 0 2 0 9.69523612398086 10.882165387580462 3.8138526464275926 0 0 0
146 0 2 0 8.956644434376157 10.345377046210789 0.26743392174277364 0 0 0
158 0 2 0 11.303287831285953 11.865262988547093 2.231150425821916 0 0 0
178 0 1 0 12.032127575715968 9.031644940127304 0.340296657463912 0 0 0
211 0 1 0 14.163663660001564 8.600621444577637 2.2178458601847963 0 0 0
212 0 2 0 14.4474203049454 9.272510653960634 2.890697580937504 0 0 0
213 0 2 0 13.36716873105817 8.965176163953302 1.756370083469017 0 0 0
191 0 2 0 14.868232797144868 11.799087722654022 3.1037753155821775 0 0 0
190 0 1 0 15.244965007507437 11.096528387720104 3.657089005145973 0 0 0
183 0 2 0 15.419335721292255 9.055723565622122 0.8630054430703591 0 0 0
184 0 1 0 17.497953723486397 8.11420508622248 3.260031981643842 0 0 0
192 0 2 0 16.180208914008304 10.989779537348841 3.4627111508487207 0 0 0
186 0 2 0 17.72360472695652 8.977636722204142 2.8794796741848367 0 0 0
216 0 2 0 18.0533732035754 8.836442125954443 0.6013806483516184 0 0 0
196 0 1 0 18.031396864905453 10.896828920297386 3.27946118977189 0 0 0
197 0 2 0 18.149733462492595 11.644929246904837 2.6339261043249915 0 0 0
214 0 1 0 18.981276860290254 9.02311996319405 0.7269255126534322 0 0 0
198 0 2 0 18.51519946180907 11.197913512650741 4.064466616245821 0 0 0
782 0 2 0 1.618287560272419 12.16447501617489 0.891475098520486 0 0 1
127 0 1 0 0.30503520705478815 12.760994982108475 2.107915862632958 0 0 0
249 0 2 0 0.5307777438497526 14.51627892017296 2.286670862421172 0 0 0
221 0 2 0 3.0155820404958695 14.384252373123452 4.010523452158757 0 0 0
247 0 1 0 0.3707656589762418 15.446262569128569 2.1873897990572817 0 0 0
218 0 2 0 1.9885966450293302 15.583449223605282 0.876954743429618 0 0 0
123 0 2 0 3.8207401300832036 12.316317977376096 0.9775673804962765 0 0 0
220 0 1 0 3.8186171289967037 14.5915477084937 3.5120185757429057 0 0 0
222 0 2 0 3.887817679085252 13.967660408035787 2.8130183444375794 0 0 0
121 0 1 0 4.371800489204983 12.485991844573423 1.7570404489014984 0 0 0
165 0 2 0 6.337470616172688 12.644521939280857 1.7993668116359016 0 0 0
163 0 1 0 7.247732424825396 12.526124599817244 2.151305703274751 0 0 0
164 0 2 0 7.633428630620281 13.439484927651987 2.153195483185903 0 0 0
283 0 1 0 7.534825292656439 15.28603606327222 1.959273685762593 0 0 0
284 0 2 0 6.772114671418531 15.6917115641218 1.5354166164040155 0 0 0
285 0 2 0 8.344985930255627 15.636148508762439 1.5058387595112053 0 0 0
819 0 2 0 8.351024994445634 12.350645681357781 0.833453253947765 0 0 1
258 0 2 0 9.868996807755122 14.615951552799022 3.5067277903555305 0 0 0
157 0 1 0 11.465758752419099 12.559692166886496 1.5362543526614454 0 0 0
159 0 2 0 11.040126479011855 13.390099842610423 1.8470291780466401 0 0 0
256 0 1 0 10.800051919802431 14.655301651459574 3.127671248637726 0 0 0
257 0 2 0 11.179221116884149 15.50895236875169 3.3420391211198424 0 0 0
818 0 2 0 9.922472424566392 12.384414088184219 0.6168536119967571 0 0 1
855 0 2 0 15.373585345925413 12.485817134026583 0.8722150207781417 0 0 1
199 0 1 0 14.144887697264982 12.934621260311554 2.0189739087164704 0 0 0
200 0 2 0 13.232342162086825 12.725099404982267 1.7928163884701116 0 0 0
201 0 2 0 14.13597452064766 13.844902415000085 2.347499196546171 0 0 0
319 0 1 0 13.671867518068266 15.667617065707788 2.576339752595671 0 0 0
320 0 2 0 12.943664907688042 15.791850788816726 1.9125102979949435 0 0 0
248 0 2 0 19.90504279344545 15.564107396143365 1.6502733671106677 -1 0 0
193 0 1 0 17.970017254826484 12.732383169110344 1.4466235083854793 0 0 0
195 0 2 0 17.267655261582536 12.601124445924619 0.7675745008056695 0 0 0
128 0 2 0 19.778892197046435 12.890359492722686 1.7769832204123093 -1 0 0
194 0 2 0 17.723700324898918 13.545243644134814 1.9004726711871849 0 0 0
292 0 1 0 17.437820371133263 14.644320362638116 3.261940690190256 0 0 0
294 0 2 0 16.69708328316572 14.36826633870379 3.801882822969769 0 0 0
293 0 2 0 17.42663433994704 15.58348024871137 3.1981792302947594 0 0 0
290 0 2 0 16.6853675279266 15.876442191363013 0.8647215095093659 0 0 0
322 0 1 0 18.453804872043875 15.868472344335117 0.7226530093266585 0 0 0
227 0 2 0 1.0410521320110975 16.652337562576434 3.2343324880198154 0 0 0
235 0 1 0 0.6744649554161485 19.55952166065409 1.968208620152051 0 0 0
236 0 2 0 0.6682598439331965 18.902148325632012 2.677364675509104 0 0 0
237 0 2 0 1.2400421615113655 19.09753153322152 1.2829044765411155 0 0 0
228 0 2 0 2.162778268727005 17.50659718740748 3.77656719163767 0 0 0
226 0 1 0 1.209692233642418 17.45346813641875 3.734816899373161 0 0 0
272 0 2 0 7.365215937130803 20.095044916899685 2.368585304663361 0 0 0
230 0 2 0 4.30200120489545 19.731900555022335 2.300171150584164 0 0 0
251 0 2 0 4.40773785766408 16.091388191489138 0.6918319678943444 0 0 0
250 0 1 0 5.367016934368513 16.142171667272727 0.6138043773403639 0 0 0
232 0 1 0 4.030209817386247 17.13303174756556 3.6512505093583045 0 0 0
233 0 2 0 3.8900719334634886 16.11541593272073 3.4397854858827897 0 0 0
234 0 2 0 4.171635806647474 17.620547031334212 2.804948655560901 0 0 0
229 0 1 0 4.4943047118776 19.104735969687916 1.6250661630105967 0 0 0
231 0 2 0 5.460885699059362 19.101571270551517 1.5231595332360996 0 0 0
271 0 1 0 7.305977405080861 19.15600502806602 2.110419149388083 0 0 0
273 0 2 0 7.753506998542297 18.64060863487863 2.77323014863959 0 0 0
263 0 2 0 7.886354657662366 16.614029368558064 3.3272125561507884 0 0 0
255 0 2 0 10.277204581197152 16.17338783720251 0.31185083821194115 0 0 0
262 0 1 0 8.106343970530471 17.280299645021067 4.0022895127779785 0 0 0
927 0 2 0 8.414106728411657 18.99508858779366 0.83736362579908 0 0 1
264 0 2 0 9.002088834284695 16.995003451383603 4.252795277882221 0 0 0
265 0 1 0 11.248909043772635 19.374292700992008 1.8609597298123801 0 0 0
267 0 2 0 10.53341171139419 19.239497568802662 1.2974122965993298 0 0 0
268 0 1 0 11.22473823952241 17.321472428877932 3.704105424210809 0 0 0
269 0 2 0 11.195697056461494 18.12013069831741 3.0966461598230803 0 0 0
286 0 1 0 11.972272712806094 16.10584228609219 0.40560111636351814 0 0 0
291 0 2 0 15.120570605560756 16.19473961067412 1.332253991130583 0 0 0
289 0 1 0 15.734902325012154 16.059393263789353 0.5880798399172558 0 0 0
321 0 2 0 13.675086283592657 16.36606480499679 3.2005830834367366 0 0 0
307 0 1 0 13.97257218857259 19.480894247206393 1.4670420898601475 0 0 0
308 0 2 0 13.037720249157884 19.23542963088621 1.3078885417783934 0 0 0
309 0 2 0 14.239908297281803 18.88654225398401 2.224130094566697 0 0 0
298 0 1 0 14.729446419409513 17.93421406274303 3.9480455908857204 0 0 0
300 0 2 0 15.657614650581255 17.6803333157332 4.087391583351838 0 0 0
301 0 1 0 18.04957893974513 19.3285756005451 1.4904556123191275 0 0 0
302 0 2 0 17.61839216805776 18.979326388241283 0.6700322944469046 0 0 0
303 0 2 0 19.043784694084618 19.292442041508203 1.4136192313286045 0 0 0
306 0 2 0 17.418763409811024 18.102120556771787 2.826909213360264 0 0 0
304 0 1 0 17.344081192753436 17.48013128246832 3.5479187174550075 0 0 0
305 0 2 0 18.143460743564454 17.593887265672166 4.157535441679634 0 0 0
22 0 1 0 1.9974062036475386 0.9399942606810452 5.108099450557416 0 0 0
23 0 2 0 2.106107068124238 1.7252729635812138 5.654388282718014 0 0 0
325 0 1 0 2.5979791722174013 2.7261583790631154 7.142096298760453 0 0 0
101 0 2 0 0.128423328994054 0.5166541005350241 5.21948228872827 1 0 0
326 0 2 0 3.5081072376472333 2.5243399883819224 7.4934680137481795 0 0 0
327 0 2 0 2.5846677067721493 3.7144752297503745 7.070330032061557 0 0 0
356 0 2 0 1.6732459009456149 2.0845188908234844 8.266355783888983 0 0 0
24 0 2 0 2.3149740216654564 0.18676700518199518 5.582097545403074 0 0 0
358 0 1 0 5.316339048236365 2.4602022933774776 7.2356586753904235 0 0 0
28 0 1 0 5.665362051200876 0.4534638648668997 5.401677646831852 0 0 0
29 0 2 0 6.703976840243328 0.5604593657794125 5.281015591024625 0 0 0
359 0 2 0 5.340756076365466 1.5565900072754237 6.876098139407233 0 0 0
360 0 2 0 5.664130203222776 2.3872646004542397 8.165782881149319 0 0 0
8 0 2 0 5.5785499754292545 3.9109235561764484 6.197435509739836 0 0 0
46 0 1 0 8.192328214267082 3.9033906402772995 4.3827862015101235 0 0 0
58 0 1 0 8.514218360364422 0.6998263490393581 4.997022075996766 0 0 0
59 0 2 0 8.812406321601404 1.477432989220837 5.531219832346652 0 0 0
361 0 1 0 9.817608796495616 2.5348319332069993 6.817585669388655 0 0 0
363 0 2 0 9.80589082916387 3.513636455791859 6.75034221828113 0 0 0
362 0 2 0 10.779568077246237 2.4514628087863812 6.9495984492486915 0 0 0
60 0 2 0 8.771182035388318 -0.0657199652119734 5.560147580438715 0 0 0
392 0 2 0 8.661836233490103 2.073884560344296 8.172427040497169 0 0 0
394 0 1 0 12.65171720823011 2.630877606671467 6.894502322758705 0 0 0
396 0 2 0 12.92977314073113 3.565876672177825 6.765560049827798 0 0 0
65 0 2 0 14.045294173687289 0.43344822649012715 4.900762878105978 0 0 0
66 0 2 0 13.137163766664589 1.1909812224378669 5.782562444984923 0 0 0
64 0 1 0 13.144736929469175 0.36873792419650614 5.260926450028299 0 0 0
395 0 2 0 13.112073533537066 2.3687243703547223 7.7083829702419875 0 0 0
94 0 1 0 15.905206073074677 0.8796462135695269 5.104892170821889 0 0 0
95 0 2 0 16.052468536268282 1.591823257406207 5.679258651645915 0 0 0
429 0 2 0 15.16214903725871 2.175219525056795 8.297713457480773 0 0 0
397 0 1 0 16.18841862390435 2.9295837199706574 7.032597373667511 0 0 0
399 0 2 0 16.169163120198892 3.902340596295069 6.859625930707767 0 0 0
96 0 2 0 16.55734344819806 0.8373802389677902 4.410984763661357 0 0 0
100 0 1 0 19.566670655569336 0.4789251909743205 5.29428134846807 0 0 0
398 0 2 0 17.12611410434629 2.609672675275703 7.091093990923488 0 0 0
430 0 1 0 18.925467082323202 2.4488698527443926 7.1260870347470995 0 0 0
431 0 2 0 18.801885053390876 1.9090581374075049 6.302441254569319 0 0 0
432 0 2 0 19.29974491363895 3.258295632774665 6.766983298345987 0 0 0
131 0 2 0 2.2191313630787803 7.619533415361271 4.544236236534798 0 0 0
12 0 2 0 2.1056958477668672 4.0695794638603395 4.515019383350133 0 0 0
11 0 2 0 0.6016617609562577 4.298852879587855 4.913259301470758 0 0 0
25 0 1 0 2.628341047926335 5.452877412566182 6.7124421719706175 0 0 0
26 0 2 0 2.203597240788134 6.154546560478651 6.175068488691177 0 0 0
27 0 2 0 3.4775294882778773 5.754184340921162 7.028303312310811 0 0 0
130 0 1 0 1.6428810051869875 7.4740900916936575 5.285750928990321 0 0 0
132 0 2 0 0.7084629578749313 7.56299441042172 5.079200338020775 0 0 0
344 0 2 0 1.245393427522044 6.051534091163088 7.945601285416523 0 0 0
113 0 2 0 4.767057921009669 7.486780724721659 4.479100646668954 0 0 0
9 0 2 0 5.2857240775737315 4.518405939153622 4.87391663557083 0 0 0
48 0 2 0 7.521755104362617 4.2892367402550615 4.973821328572846 0 0 0
7 0 1 0 5.8791148852033706 4.65023124030111 5.603210624851026 0 0 0
136 0 1 0 6.036386717161992 7.332371184974852 5.755390791553986 0 0 0
137 0 2 0 6.100275570295926 6.369972264459529 5.849576298034176 0 0 0
138 0 2 0 6.814283057627574 7.529727272306337 5.230814922912988 0 0 0
379 0 1 0 7.254736132291486 5.566524947002621 8.372212648814394 0 0 0
47 0 2 0 9.082159216123088 4.122750998218056 4.681330972707907 0 0 0
63 0 2 0 8.792166887579297 5.340959724433606 7.482350319062203 0 0 0
61 0 1 0 9.479808315587128 5.29085361528915 6.75162580979057 0 0 0
167 0 2 0 8.95910135877807 6.482184282387035 5.516151142073905 0 0 0
62 0 2 0 10.314744665761816 5.488138681282031 7.112263833526955 0 0 0
166 0 1 0 8.671686779465114 7.288366723623547 5.050907312291477 0 0 0
53 0 2 0 11.64429971754709 4.18605049507952 4.695672357269133 0 0 0
173 0 2 0 11.918226005712182 7.855845878837181 4.4748262744288185 0 0 0
44 0 2 0 13.631275196881997 4.940211885226901 4.8740156276551785 0 0 0
43 0 1 0 13.041993453093788 4.942916451735268 5.658448855309189 0 0 0
45 0 2 0 12.796150191636112 5.834679789035474 5.834966289956766 0 0 0
172 0 1 0 12.547038693728963 7.759269391944619 5.184618901219369 0 0 0
416 0 2 0 14.659207577624704 5.796669243687237 7.9980156592704255 0 0 0
99 0 2 0 15.668512715389538 6.252967550922852 5.926596111085069 0 0 0
202 0 1 0 15.317273168102336 7.846384960507157 5.044437893156718 0 0 0
97 0 1 0 15.742577255007381 5.6851836329016185 6.677763847704768 0 0 0
81 0 2 0 18.557227324746602 4.387898404708038 4.844507346702158 0 0 0
79 0 1 0 19.21616662629343 4.681195362518037 5.498749611272219 0 0 0
98 0 2 0 16.605860257137138 5.955999202770087 7.04182123550053 0 0 0
80 0 2 0 19.253780542562097 5.6301505189396925 5.609794791087469 0 0 0
208 0 1 0 19.281944538462742 7.439324689188772 5.461682485985942 0 0 0
209 0 2 0 18.568329523842216 7.657474294303141 4.87433066797752 0 0 0
410 0 2 0 19.222364159547542 6.141558886945254 8.189309509834118 0 0 0
409 0 1 0 18.25435451085745 6.163137929611595 8.159058062062606 0 0 0
435 0 2 0 2.307003377808246 8.560691008520175 6.542609760508691 0 0 0
433 0 1 0 2.662269898851751 9.246973091745827 7.105479507237649 0 0 0
135 0 2 0 2.5895485446596753 10.955077067484185 6.680539867620789 0 0 0
434 0 2 0 3.4801427706793047 8.786286752025735 7.416327173287818 0 0 0
189 0 2 0 0.12286653918203844 11.391414568526974 5.133138201437085 1 0 0
133 0 1 0 2.378395760179039 11.919440484407582 6.67666833532269 0 0 0
468 0 2 0 5.533938124779142 8.400137756006783 7.161297297222935 0 0 0
466 0 1 0 5.22799642565448 9.089690512624525 7.747722311110565 0 0 0
467 0 2 0 5.399035639013028 9.885131074540755 7.258763548778126 0 0 0
115 0 1 0 5.888137351846706 11.043562784149382 5.708732766150916 0 0 0
116 0 2 0 6.708106235664483 10.655311655289246 5.3857931896364315 0 0 0
117 0 2 0 6.106365222509501 11.959344829555105 5.799725426763503 0 0 0
168 0 2 0 8.97642933063411 7.978460609145941 5.685992913923705 0 0 0
469 0 1 0 9.480258726967689 9.149318263859495 6.904778511256932 0 0 0
470 0 2 0 9.148677221382473 10.051435821981265 6.771879526912779 0 0 0
471 0 2 0 10.390600125940201 9.212718329071699 7.273656583379042 0 0 0
500 0 2 0 8.304154686505669 8.520842309819937 8.119615283420792 0 0 0
169 0 1 0 9.081115469639878 11.899081192905314 6.9523699338968505 0 0 0
174 0 2 0 13.438594779727609 8.04670925387724 4.943272902758192 0 0 0
152 0 2 0 12.643363375914722 10.784726213092345 4.806125589348551 0 0 0
502 0 1 0 12.241546276039081 9.013887711000667 7.389522649298385 0 0 0
503 0 2 0 12.179756220068288 8.424946299713785 6.611588931085323 0 0 0
203 0 2 0 15.749067668842752 8.420422282449877 5.7286729259561655 0 0 0
504 0 2 0 12.594965492907312 9.884674222571366 6.977958756095182 0 0 0
151 0 1 0 13.019870387513006 11.193339550510123 5.581255576748494 0 0 0
153 0 2 0 13.931077629675029 11.08453247441021 5.3989995877060295 0 0 0
507 0 2 0 15.849798669702391 9.177717029402649 7.936244022585793 0 0 0
207 0 2 0 16.009014828567484 11.283167713260635 6.637493763810752 0 0 0
505 0 1 0 16.28931937611018 9.302987876427084 7.095349955467344 0 0 0
210 0 2 0 19.263664365522835 8.111331198912188 6.1379461715923815 0 0 0
506 0 2 0 17.266403222396058 9.289422121391175 7.239011834377262 0 0 0
538 0 1 0 19.102662477116624 9.372598690749413 7.388410393870373 0 0 0
540 0 2 0 19.405397094863 10.13760136856946 6.8768984225127 0 0 0
187 0 1 0 19.591082440312043 11.490657844027726 5.5758425179562465 0 0 0
539 0 2 0 19.692898284600247 9.139156436596226 8.099772938116722 0 0 0
134 0 2 0 3.2226330414952407 12.31465256824156 7.012344925906501 0 0 0
238 0 1 0 1.7335501370115347 14.279062976527605 5.385939165822321 0 0 0
239 0 2 0 0.7909380401638528 14.489153986477062 5.199054941296376 0 0 0
240 0 2 0 1.6937915172373066 13.396408482924098 5.816556411356228 0 0 0
453 0 2 0 1.2421490629355723 12.500165542791278 8.146614150477777 0 0 0
542 0 2 0 2.2328183071778565 15.548949566616926 6.7696617517329 0 0 0
246 0 2 0 5.125238860364226 14.162357732192163 4.781567310684674 0 0 0
244 0 1 0 5.792673729148616 13.894510222991059 5.428211048867673 0 0 0
245 0 2 0 5.667437223216718 14.375778742285876 6.224617564805656 0 0 0
575 0 2 0 6.006675898465222 15.763916376267208 8.000832874348442 0 0 0
276 0 2 0 7.538050328002548 13.673626845058925 4.767055008853554 0 0 0
489 0 2 0 7.734560339765269 12.186180198056995 8.285953508019746 0 0 0
574 0 1 0 5.273333276848001 16.03435481040851 7.39679266345327 0 0 0
170 0 2 0 8.96289097616772 12.516749023383802 6.210284395131825 0 0 0
274 0 1 0 8.532892137042714 13.786122546906844 4.806794812424222 0 0 0
275 0 2 0 8.549179960898062 14.531200656877834 5.425711693901467 0 0 0
171 0 2 0 9.921575678560783 12.089057593375989 7.367599010950461 0 0 0
281 0 2 0 11.873870311676084 13.902752740559404 4.759206096032613 0 0 0
612 0 2 0 11.922875273902836 15.128602279889218 6.901351184040789 0 0 0
611 0 2 0 10.702107981456656 16.00036986394762 7.2563341693638685 0 0 0
578 0 2 0 8.475588407875437 15.760753273463056 7.423571378200152 0 0 0
610 0 1 0 11.672860852182868 15.89510286616951 7.462732496865213 0 0 0
206 0 2 0 15.668289163588035 12.464078871762187 7.502662943791386 0 0 0
282 0 2 0 12.585679930516113 12.82612338214001 5.591903351262436 0 0 0
280 0 1 0 12.425759704776867 13.801781977917825 5.581460791532122 0 0 0
311 0 2 0 14.528510960113296 14.124838558506164 4.823509427882472 0 0 0
310 0 1 0 15.479891059915138 14.1532621298484 5.010295819387023 0 0 0
312 0 2 0 15.692488232345072 13.388959588776043 5.613102310003114 0 0 0
614 0 2 0 15.736048903571456 15.641371392843181 6.650223273552762 0 0 0
205 0 1 0 16.2628860145609 12.19906122853315 6.829342333522291 0 0 0
188 0 2 0 19.4766595850482 12.433545009556243 5.710065577461811 0 0 0
318 0 2 0 18.815351205449865 14.398402208545242 4.442727383378598 0 0 0
518 0 2 0 17.796803005729007 12.662641566183302 7.681313364453325 0 0 0
316 0 1 0 19.373245534491836 14.383257104687749 5.258935242967451 0 0 0
317 0 2 0 18.91602751978824 14.941085316916457 5.898363644841772 0 0 0
648 0 2 0 19.33413389743812 15.96105461819547 7.974031157046939 0 0 0
543 0 2 0 3.4522913618377724 16.07560467588675 7.5238575884717855 0 0 0
541 0 1 0 2.4533948956937857 16.16928899668467 7.498466258271346 0 0 0
241 0 1 0 2.527525412254595 18.810602182447816 6.6826693817510865 0 0 0
242 0 2 0 2.3325271578759432 17.848947771327317 6.630854198284211 0 0 0
243 0 2 0 3.463857858578306 18.869080816113822 6.976592349768818 0 0 0
560 0 2 0 1.3390700617724525 19.33888160773828 8.04424288228849 0 0 0
30 0 2 0 5.528774999847524 19.733790584414308 5.37758620217212 0 -1 0
224 0 2 0 5.324335490999842 17.473220141452295 4.823535133424559 0 0 0
223 0 1 0 5.953561855038872 17.801962120058406 5.478722263711233 0 0 0
225 0 2 0 6.823399338242479 17.526013042107195 5.124294672032327 0 0 0
576 0 2 0 5.587510952828087 16.781426717161793 6.851379663491634 0 0 0
577 0 1 0 9.004869062585035 16.16415277801179 6.7410808004470875 0 0 0
270 0 2 0 11.81562788204944 17.49713473993002 4.447181865856781 0 0 0
278 0 2 0 8.50862139865869 19.26410784211984 7.6090752599472955 0 0 0
277 0 1 0 9.103488128322164 19.03685185100042 6.85863313097155 0 0 0
579 0 2 0 8.921484778266711 17.104924832500124 6.8985069500682386 0 0 0
279 0 2 0 9.969636445540528 19.05632274214328 7.25114202648005 0 0 0
613 0 1 0 16.02184196543126 16.253712462264353 7.340473102549697 0 0 0
261 0 2 0 12.217562271794225 17.5396278862671 6.691685936085604 0 0 0
299 0 2 0 14.352731954807876 18.04270260755633 4.812438807775565 0 0 0
259 0 1 0 12.711599113328873 17.93902532706722 5.949045732411781 0 0 0
260 0 2 0 12.633837791457097 18.886174443425652 5.981466962530918 0 0 0
315 0 2 0 15.36336729570874 19.089733430737247 7.3708271730510395 0 0 0
615 0 2 0 15.944188760087727 17.135713493793205 6.969866851207423 0 0 0
297 0 2 0 20.16056104062039 17.657813446439754 5.027161998316199 0 0 0
314 0 2 0 16.29519713894261 19.741907262833685 6.201526253457074 0 0 0
313 0 1 0 16.253986155236632 19.130681742955375 6.952578981683027 0 0 0
647 0 2 0 17.79315785214657 16.293051957876834 7.69974425094801 0 0 0
646 0 1 0 18.684480477414773 16.24916865099337 7.317674986874966 0 0 0
102 0 2 0 19.304505487204832 19.738670512722777 5.356603235437246 0 -1 0
295 0 1 0 19.2812612978035 17.94714738840422 5.336550500490169 0 0 0
296 0 2 0 19.014256610660652 17.356803426104754 6.0369326407836015 0 0 0
627 0 2 0 17.55624168481262 19.458305786170598 7.849841723253091 0 0 0
357 0 2 0 0.07598571014506833 2.2056095048352313 8.478620356629461 0 0 0
355 0 1 0 0.9061485049644791 2.012233961379517 8.934027734398123 0 0 0
335 0 2 0 1.1679439108996355 3.5364755557366627 9.957904029378808 0 0 0
347 0 2 0 2.8084532654355807 0.8473978459261903 11.137811537089922 0 0 0
348 0 2 0 1.244502221720996 0.7033480708291463 11.331775867268625 0 0 0
346 0 1 0 2.1531154642524655 0.6390880122170195 11.738884006642074 0 0 0
561 0 2 0 0.630818127043545 0.28706593870768027 8.833656141656064 0 1 0
329 0 2 0 4.379128503621294 2.3664601875952243 10.354541550366829 0 0 0
328 0 1 0 4.697021242895025 1.46554071725231 10.136303393770577 0 0 0
330 0 2 0 5.206389866690706 1.0814966892121305 10.85401597860909 0 0 0
391 0 1 0 7.947452401905505 1.963368549893492 8.819388876130729 0 0 0
393 0 2 0 7.735506411920661 1.066603883628472 9.004560375693206 0 0 0
353 0 2 0 7.007941084709439 0.4964240338576186 11.933236360422509 0 0 0
352 0 1 0 6.096428627092511 0.27828166747993527 12.183400902967291 0 0 0
554 0 2 0 4.707635540071682 -0.05692530159958361 9.045143477442329 0 1 0
372 0 2 0 8.024064492367886 3.101239518815231 10.12100963679799 0 0 0
382 0 1 0 8.540721547118325 0.8426445631090319 11.767738410485043 0 0 0
366 0 2 0 10.128568114024436 0.8818071194105327 10.754971505350001 0 0 0
364 0 1 0 10.951417297937246 0.8325901148472707 10.202094832459073 0 0 0
378 0 2 0 10.986729202674248 2.7567908923658853 10.195096449060118 0 0 0
365 0 2 0 11.582910918754541 0.8918134812891245 10.88558966678123 0 0 0
376 0 1 0 10.885573480051821 3.678761982620848 10.492763842036297 0 0 0
377 0 2 0 11.53037169061086 3.824180488442414 11.193980876703584 0 0 0
384 0 2 0 8.93402551862528 1.5922549286635714 12.2352602739827 0 0 0
383 0 2 0 8.84588416938836 0.052057358615698074 12.208711217824236 0 0 0
427 0 1 0 14.463177572309489 1.987255485226783 8.940955371954534 0 0 0
428 0 2 0 14.647484623991641 2.594761960698573 9.666357979242989 0 0 0
389 0 2 0 13.632661540548156 0.804669588978448 11.732585368118757 0 0 0
632 0 2 0 14.048242158480983 0.13227624996207954 8.967765360164009 0 1 0
418 0 1 0 15.629012069186345 1.3482400410044153 11.9539887600762 0 0 0
388 0 1 0 12.802040290136837 0.5409382687609385 12.160293089384446 0 0 0
402 0 2 0 16.754053848041835 1.4127151459198675 10.668575753128293 0 0 0
400 0 1 0 17.560641536724493 1.5548646029153155 10.059774216387186 0 0 0
414 0 2 0 17.77829832310539 3.4246866433022967 10.28990812508043 0 0 0
426 0 2 0 19.173074093139245 0.9016325176347135 11.111117388007855 0 0 0
401 0 2 0 17.801770640283205 0.8715788752563223 9.46887740004982 0 0 0
424 0 1 0 19.907892850209297 0.5627521004217904 11.688604309790458 0 0 0
334 0 1 0 1.2461083787687741 4.307315182581739 10.563626885207267 0 0 0
336 0 2 0 2.1910481228439784 4.456418381559626 10.765254621092815 0 0 0
343 0 1 0 0.7024045934230906 6.235086344438383 8.683147413099475 0 0 0