LAMMPS (29 Sep 2021 - Update 2)
  using 1 OpenMP thread(s) per MPI task
echo both

include		in.partitions
variable        pid world 0
include		in.temp
variable        temperature equal 245
variable	tempDamp equal 0.1
include		in.pressure
variable        pressure equal 2026.5
variable        pressureDamp equal 1.0 # This is 1 ps
include		in.seed
variable        seed world 745823

units           metal
atom_style	full
include		in.box
read_data       iceIII.data
Reading data file ...
  orthogonal box = (0.0000000 0.0000000 0.0000000) to (19.991053 19.991053 20.800772)
  1 by 1 by 1 MPI processor grid
  reading atoms ...
  972 atoms
Finding 1-2 1-3 1-4 neighbors ...
  special bond factors lj:    0        0        0       
  special bond factors coul:  0        0        0       
     0 = max # of 1-2 neighbors
     0 = max # of 1-3 neighbors
     0 = max # of 1-4 neighbors
     1 = max # of special neighbors
  special bonds CPU = 0.000 seconds
  read_data CPU = 0.013 seconds
include 	in.setup
variable	out_freq equal 500
variable	out_freq2 equal 500

timestep        0.0005

neigh_modify    delay 7 every 1

include         in.deepmd
# This is deepMD model

# create groups ###
#group ox type 2
#group hy type 1

mass 2 15.999
mass 1 1.008

pair_style      deepmd ../graph.pb
pair_coeff      * *

bond_style      none
angle_style     none
dihedral_style  none
improper_style  none
neigh_modify exclude none


neighbor        2.0 bin
neigh_modify    every 10 delay 0 check no

thermo          ${out_freq}
thermo          500
thermo_style 	custom step temp pe etotal epair emol press lx ly lz xy xz yz vol pxx pyy pzz pxy pxz pyz cella cellb cellc cellalpha cellbeta cellgamma

restart 	${out_freq} restart.lmp.${pid} restart2.lmp.${pid}
restart 	500 restart.lmp.${pid} restart2.lmp.${pid}
restart 	500 restart.lmp.0 restart2.lmp.${pid}
restart 	500 restart.lmp.0 restart2.lmp.0


include         in.dump
dump            myDump all atom ${out_freq2} dump.water.${pid}
dump            myDump all atom 500 dump.water.${pid}
dump            myDump all atom 500 dump.water.0
dump            myDump2 all dcd ${out_freq2} dump.dcd
dump            myDump2 all dcd 500 dump.dcd
dump_modify     myDump append yes
dump_modify     myDump2 append yes


timer           timeout 04:55:00 every 1000
New timer settings: style=normal  mode=nosync  timeout=04:55:00

fix             2 all nph aniso ${pressure} ${pressure} ${pressureDamp}
fix             2 all nph aniso 2026.5 ${pressure} ${pressureDamp}
fix             2 all nph aniso 2026.5 2026.5 ${pressureDamp}
fix             2 all nph aniso 2026.5 2026.5 1
fix             3 all temp/csvr ${temperature} ${temperature} ${tempDamp} ${seed}
fix             3 all temp/csvr 245 ${temperature} ${tempDamp} ${seed}
fix             3 all temp/csvr 245 245 ${tempDamp} ${seed}
fix             3 all temp/csvr 245 245 0.1 ${seed}
fix             3 all temp/csvr 245 245 0.1 745823
velocity 	all create ${temperature} ${seed} dist gaussian
velocity 	all create 245 ${seed} dist gaussian
velocity 	all create 245 745823 dist gaussian

run             400000

CITE-CITE-CITE-CITE-CITE-CITE-CITE-CITE-CITE-CITE-CITE-CITE-CITE

Your simulation uses code contributions which should be cited:

- USER-DEEPMD package:

@article{Wang_ComputPhysCommun_2018_v228_p178,
  author = {Wang, Han and Zhang, Linfeng and Han, Jiequn and E, Weinan},
  doi = {10.1016/j.cpc.2018.03.016},
  url = {https://doi.org/10.1016/j.cpc.2018.03.016},
  year = 2018,
  month = {jul},
  publisher = {Elsevier {BV}},
  volume = 228,
  journal = {Comput. Phys. Commun.},
  title = {{DeePMD-kit: A deep learning package for many-body potential energy representation and molecular dynamics}},
  pages = {178--184}
}

CITE-CITE-CITE-CITE-CITE-CITE-CITE-CITE-CITE-CITE-CITE-CITE-CITE

Neighbor list info ...
  update every 10 steps, delay 0 steps, check no
  max neighbors/atom: 2000, page size: 100000
  master list distance cutoff = 8
  ghost atom cutoff = 8
  binsize = 4, bins = 5 5 6
  1 neighbor lists, perpetual/occasional/extra = 1 0 0
  (1) pair deepmd, perpetual
      attributes: full, newton on
      pair build: full/bin
      stencil: full/bin/3d
      bin: standard
Per MPI rank memory allocation (min/avg/max) = 7.648 | 7.648 | 7.648 Mbytes
Step Temp PotEng TotEng E_pair E_mol Press Lx Ly Lz Xy Xz Yz Volume Pxx Pyy Pzz Pxy Pxz Pyz Cella Cellb Cellc CellAlpha CellBeta CellGamma 
       0          245   -175.65013   -144.89979   -175.65013            0    37469.585    19.991053    19.991053    20.800772            0            0            0    8312.8663    41252.865    41692.313    29463.577   -62.696524   -1049.0834   -444.41018    19.991053    19.991053    20.800772           90           90           90 
     500    241.02967   -163.71427   -133.46225   -163.71427            0   -2190.1236    20.170451    20.077235    20.640505            0            0            0    8358.7211   -2173.9733   -1302.2082   -3094.1892   -492.85129   -804.07249   -785.12557    20.170451    20.077235    20.640505           90           90           90 
    1000    251.88843   -162.63494   -131.02002   -162.63494            0   -318.64485    20.282607    20.159962    20.415755            0            0            0    8347.9325   -612.93588    42.288017   -385.28667   -1356.8577   -293.41128   -317.13449    20.282607    20.159962    20.415755           90           90           90 
    1500    238.49334   -162.48833   -132.55465   -162.48833            0    8140.2239    20.300915    20.197007    20.382184            0            0            0    8357.0566    5796.4688     9968.882    8655.3209    1770.5971   -1923.7088    -26.03294    20.300915    20.197007    20.382184           90           90           90 
    2000    235.53874   -160.12705   -130.56421   -160.12705            0   -2287.7669    20.218632    20.161469    20.420799            0            0            0    8324.2796   -3559.7521    1404.6296   -4708.1782    585.36073    1586.2677    863.74175    20.218632    20.161469    20.420799           90           90           90 
    2500    249.03078   -160.86788   -129.61163   -160.86788            0    3891.1487     20.07792    20.254723    20.561569            0            0            0    8361.8287     3129.083    4643.9284    3900.4346    3345.1182     361.4366   -371.23164     20.07792    20.254723    20.561569           90           90           90 
    3000    243.87412   -160.32837   -129.71934   -160.32837            0    15.273399    20.105387    20.272215    20.793612            0            0            0    8475.0758     803.8041    843.23209    -1601.216    621.28593   -405.35905    1545.8011    20.105387    20.272215    20.793612           90           90           90 
    3500     249.4488   -161.93703   -130.62831   -161.93703            0     2037.953     20.17316    19.977185    20.673923            0            0            0    8331.6521     4685.646   -406.50585    1834.7188   -201.01633   -669.62071    924.88207     20.17316    19.977185    20.673923           90           90           90 
    4000    247.74306    -162.1906   -131.09598    -162.1906            0    2488.1375    20.367944    19.979785    20.604333            0            0            0    8384.8746    1212.6365    3278.6917    2973.0842   -607.37598   -715.59258     1953.329    20.367944    19.979785    20.604333           90           90           90 
    4500    240.68047   -161.62834   -131.42015   -161.62834            0     2303.309    20.266422    20.155311    20.496333            0            0            0    8372.2608    773.77953    4764.2931    1371.8544    770.74684     38.01308   -1340.5684    20.266422    20.155311    20.496333           90           90           90 
    5000    236.64932   -160.44939   -130.74715   -160.44939            0   -1053.7337    20.113985    20.312769     20.52138            0            0            0     8384.435   -3058.2492   -859.77257    756.82079   -1737.5786   -1644.5755   -948.13549    20.113985    20.312769     20.52138           90           90           90 
    5500    235.92258   -161.87936   -132.26834   -161.87936            0    2376.8567    19.992033    20.263496    20.525792            0            0            0    8315.1721    4009.1611    1821.1605    1300.2485    54.848127   -1667.6068    46.871695    19.992033    20.263496    20.525792           90           90           90 
    6000    250.64987    -162.3593   -130.89983    -162.3593            0    311.71991    20.145913    20.225991     20.68699            0            0            0    8429.3496    116.02852    1577.2787   -758.14744   -743.82406    1239.9666     1100.562    20.145913    20.225991     20.68699           90           90           90 
    6500    248.24469   -162.62087   -131.46329   -162.62087            0    4646.1485    20.245083     20.02534    20.576889            0            0            0    8342.1725      5604.51    4806.5252    3527.4102    225.52417    1071.9307    751.47296    20.245083     20.02534    20.576889           90           90           90 
    7000    247.66349   -160.35991   -129.27527   -160.35991            0    3623.7194    20.356095    20.117255    20.464962            0            0            0    8380.5808   -134.76073     7433.135     3572.784   -1712.9188    1148.2899   -2838.2431    20.356095    20.117255    20.464962           90           90           90 
    7500    255.25906   -161.47956   -129.44158   -161.47956            0    1420.2291     20.21766     20.23396    20.349973            0            0            0    8324.8344    951.40928     1426.567     1882.711   -1324.6154    1016.8324    -1235.942     20.21766     20.23396    20.349973           90           90           90 
    8000    246.97832   -161.97418   -130.97554   -161.97418            0   -1463.0632    20.190568    20.321243    20.541817            0            0            0    8428.2549    2372.1099    -9753.345    2992.0454    522.28194    563.73524    1562.7801    20.190568    20.321243    20.541817           90           90           90 
    8500    233.05599   -160.95212   -131.70089   -160.95212            0    4934.1461    20.031923    20.124561    20.781261            0            0            0    8377.6256    6721.4561    5518.1254    2562.8569    753.73018   -2141.7794    2959.4201    20.031923    20.124561    20.781261           90           90           90 
    9000    257.31673   -161.56387   -129.26764   -161.56387            0    -979.4507    20.011565    20.068867    20.868763            0            0            0    8381.0921    2295.6639   -3769.7965   -1464.2195   -910.50543    715.13034    728.24872    20.011565    20.068867    20.868763           90           90           90 
    9500    245.02165   -160.58984   -129.83678   -160.58984            0    2832.8282    20.313775    20.279102    20.719991            0            0            0    8535.4989    3889.1893    3303.6666    1305.6287    1423.8535   -1492.5985   -254.65319    20.313775    20.279102    20.719991           90           90           90 
   10000    255.96529   -160.58349   -128.45688   -160.58349            0    449.43158    20.337744    20.192738    20.223382            0            0            0    8305.2316    3085.5573   -4681.2424    2943.9799    716.39085    3840.5469    2001.8601    20.337744    20.192738    20.223382           90           90           90 
   10500    256.06169   -159.58611    -127.4474   -159.58611            0    3624.4935    20.289863    20.220175    20.215056            0            0            0    8293.5217    8291.3684    -2489.778    5071.8901   -1199.1783     1161.421    2356.3533    20.289863    20.220175    20.215056           90           90           90 
   11000    249.43095   -160.93171   -129.62523   -160.93171            0    3.6419798    20.245665    20.273477    20.587457            0            0            0    8450.1218   -1977.8002   -373.15885     2361.885    1148.5393    569.67652   -1134.0274    20.245665    20.273477    20.587457           90           90           90 
   11500    236.33475   -160.53669   -130.87394   -160.53669            0   -1261.8413    20.149349    20.172795    20.658053            0            0            0    8396.8513   -148.61592   -2208.7221   -1428.1859    -177.3309    118.84266     863.3721    20.149349    20.172795    20.658053           90           90           90 
   12000    244.73622   -160.10691   -129.38967   -160.10691            0    1068.8025     20.21974    20.153762    20.628676            0            0            0    8406.2644    3206.6856    1466.9862   -1467.2644   -860.51978   -454.69084   -1028.2676     20.21974    20.153762    20.628676           90           90           90 
   12500      242.236   -159.62131   -129.21788   -159.62131            0    908.93244    20.277694    20.162434     20.58413            0            0            0    8415.7737    437.36318    3463.3762    -1173.942   -1991.7296   -659.81194    1287.2218    20.277694    20.162434     20.58413           90           90           90 
   13000     246.2868   -159.58829   -128.67644   -159.58829            0   -965.83847    20.279912    20.167241     20.51628            0            0            0    8390.9506    821.76266   -1944.4119   -1774.8661    21.379165   -251.51614    650.80526    20.279912    20.167241     20.51628           90           90           90 
   13500    246.76705   -161.72575   -130.75362   -161.72575            0    -858.9434     20.24943    20.132207    20.438877            0            0            0    8332.2296    1045.7148   -3032.1789   -590.36614     1079.233    840.91373   -2002.4269     20.24943    20.132207    20.438877           90           90           90 
   14000    242.38138   -162.15756   -131.73588   -162.15756            0    2379.9808    20.261804    20.226364    20.603909            0            0            0    8443.9478    1093.9219    5643.5699    402.45066    193.30177    3541.1557     1536.213    20.261804    20.226364    20.603909           90           90           90 
   14500    238.57342   -162.54501   -132.60128   -162.54501            0    2456.6169     20.06122    20.238225    20.537208            0            0            0    8338.1779    5737.5407    81.435416    1550.8745   -1005.9992    142.29807   -2554.6189     20.06122    20.238225    20.537208           90           90           90 
   15000    251.98784    -161.5934     -129.966    -161.5934            0    4422.6785    20.087926     20.23492    20.496539            0            0            0    8331.3836    6248.4924    2566.2537    4453.2896    236.88082   -2748.2221    475.80417    20.087926     20.23492    20.496539           90           90           90 
   15500    245.01419   -161.06935   -130.31723   -161.06935            0    4618.2069    20.405686    20.190941    20.544581            0            0            0    8464.5728    1017.6865    8209.2678    4627.6664    410.49554    1379.0234    2730.5513    20.405686    20.190941    20.544581           90           90           90 
   16000    244.25023   -160.05474    -129.3985   -160.05474            0    4992.4863    20.349397    20.004869    20.425659            0            0            0    8315.0206   -373.09652     8418.473    6932.0823    893.81694   -299.28316   -2481.1776    20.349397    20.004869    20.425659           90           90           90 
   16500    251.17159   -161.39406   -129.86912   -161.39406            0     651.8414    20.245494    20.119312    20.481629            0            0            0    8342.6877    3422.7025    -1851.045    383.86672   -1110.8585   -480.26247   -1690.1453    20.245494    20.119312    20.481629           90           90           90 
   17000      249.661   -161.40802   -130.07267   -161.40802            0    1953.7146    20.113764    20.358106    20.624186            0            0            0    8445.1532    2754.9655   -549.83109    3656.0094     1503.577   -2559.5379    925.47411    20.113764    20.358106    20.624186           90           90           90 
   17500    241.26122   -160.30558   -130.02449   -160.30558            0    3704.3301    20.099725    20.264419    20.686749            0            0            0    8425.9042    4299.8671    1921.3265    4891.7967    -855.1109    2540.1189   -133.66526    20.099725    20.264419    20.686749           90           90           90 
   18000    235.74277   -161.52898   -131.94052   -161.52898            0    5153.2393    20.236916    19.956745    20.570919            0            0            0    8307.8327    5540.6634     5035.588    4883.4666     280.9199    168.91943    1028.9781    20.236916    19.956745    20.570919           90           90           90 
   18500    238.66978   -161.60737   -131.65155   -161.60737            0    2121.0334    20.343767     20.13804    20.474616            0            0            0    8388.1145    2176.1436    2664.6432    1522.3133    637.55986    792.31441   -905.13413    20.343767     20.13804    20.474616           90           90           90 
   19000    244.71857   -161.85032    -131.1353   -161.85032            0    1784.6718    20.170341     20.40444     20.36866            0            0            0    8383.0179    3965.1256   -1702.7115    3091.6013   -273.90805    2382.2846   -1901.9484    20.170341     20.40444     20.36866           90           90           90 
   19500    238.35376   -160.07479   -130.15863   -160.07479            0    -643.9404    20.093505    20.274645    20.398866            0            0            0     8310.267    -1646.546   -2976.5717    2691.2965    103.27333   -282.97252   -6.7887421    20.093505    20.274645    20.398866           90           90           90 
   20000    244.38611   -162.91843   -132.24514   -162.91843            0    1305.4311    20.303164    20.003301    20.592789            0            0            0    8363.3557   -1025.9803    3442.0005    1500.2732    1278.3259     2966.332    2913.9096    20.303164    20.003301    20.592789           90           90           90 
   20500    246.76332    -162.5752   -131.60354    -162.5752            0    2645.6764    20.320764    19.994391    20.631753            0            0            0    8382.7082   -704.29716    5213.1526    3428.1738    2087.5659   -276.31344   -1076.0057    20.320764    19.994391    20.631753           90           90           90 
   21000      244.888   -162.02029     -131.284   -162.02029            0    1796.7496    20.175333    20.244857    20.615273            0            0            0    8420.2413    1627.0781    1993.0102    1770.1605     1133.737   -1601.3253    718.73197    20.175333    20.244857    20.615273           90           90           90 
   21500    230.11207   -161.99351   -133.11178   -161.99351            0    3350.8217    20.058908    20.273227    20.481918            0            0            0    8329.1525    4282.3469    3582.8176    2187.3006   -65.492183    2392.4302   -745.00071    20.058908    20.273227    20.481918           90           90           90 
   22000    245.24061   -161.32087   -130.54033   -161.32087            0    2468.2846    20.220601    20.203151    20.463841            0            0            0    8359.8851    1700.8551    3704.3992    1999.5996    127.22606    2657.5314    1408.6106    20.220601    20.203151    20.463841           90           90           90 
   22500    247.83361   -161.86864   -130.76265   -161.86864            0    3337.5659      20.3298    20.101461    20.534824            0            0            0     8391.734    2669.2129    1167.3587    6176.1261   -1813.3019    2073.6263    1303.1507      20.3298    20.101461    20.534824           90           90           90 
   23000    228.17262   -160.40742   -131.76911   -160.40742            0    4404.4363    20.215775    20.101653    20.568874            0            0            0    8358.5833    5524.6425    4513.5473    3175.1191     70.47104    442.36309      520.607    20.215775    20.101653    20.568874           90           90           90 
   23500    245.24423   -161.03288   -130.25188   -161.03288            0    2173.8526    20.144486    20.181017    20.545875            0            0            0     8352.642    2715.7755    2258.7296    1547.0526    1289.4569    1917.3644    1397.6964    20.144486    20.181017    20.545875           90           90           90 
   24000    258.72332   -161.37992   -128.90714   -161.37992            0    1961.3489    20.152363    20.236486    20.551715            0            0            0    8381.2572    2751.7909    880.44564    2251.8102    50.376523   -1364.8268   -1492.3914    20.152363    20.236486    20.551715           90           90           90 
   24500    250.23437   -161.08779   -129.68048   -161.08779            0    4423.7393    20.265802    20.230893     20.66663            0            0            0    8473.2203    3547.2138     5346.282     4377.722    140.67309    1452.0307    531.29258    20.265802    20.230893     20.66663           90           90           90 
   25000    243.67451   -160.18908    -129.6051   -160.18908            0     2433.751    20.190153    19.998627      20.6178            0            0            0    8324.9592    934.31414    5653.0562    713.88273   -26.291639    1532.3196    152.06846    20.190153    19.998627      20.6178           90           90           90 
   25500    244.20748   -159.60584   -128.95497   -159.60584            0    112.65556    20.255539    20.119642    20.632307            0            0            0    8408.3705    986.88144   -731.75734    82.842584   -570.92777   -244.30715    632.07704    20.255539    20.119642    20.632307           90           90           90 
   26000     249.0275    -160.0628   -128.80696    -160.0628            0   -302.41378    20.335824    20.295771    20.458142            0            0            0    8443.7139    -2927.219    1999.1407    20.836933    1337.2823    2883.3619    191.77161    20.335824    20.295771    20.458142           90           90           90 
   26500    245.95772   -162.12385    -131.2533   -162.12385            0     1825.626    20.278609    20.284228    20.346304            0            0            0    8369.1658    746.85894    1919.2156    2810.8035   -1118.0778   -1545.5827     2627.815    20.278609    20.284228    20.346304           90           90           90 
   27000    254.60859   -160.41169   -128.45536   -160.41169            0    2465.1048     20.17086    20.131249    20.561441            0            0            0    8349.2734    675.70152    3718.4289    3001.1841    981.62394   -1792.0225    581.11461     20.17086    20.131249    20.561441           90           90           90 
   27500    245.96007   -161.02984     -130.159   -161.02984            0    3661.9144    20.068864    20.103748    20.860954            0            0            0    8416.5481    5519.0071    3176.6714    2290.0648   -578.26825    1102.5581   -361.10174    20.068864    20.103748    20.860954           90           90           90 
   28000    243.59389   -161.85933   -131.28548   -161.85933            0   -605.50184    20.211109      20.2519    20.987971            0            0            0     8590.657    2597.0026   -1568.4704   -2845.0377     723.8476   -421.50535    -997.4438    20.211109      20.2519    20.987971           90           90           90 
   28500    245.11847   -159.85966   -129.09444   -159.85966            0    3572.8188    20.123517    20.110674    20.551179            0            0            0    8317.0105    2134.1473    6423.3315    2160.9775     1308.845    2099.3257    620.61546    20.123517    20.110674    20.551179           90           90           90 
   29000    245.60894   -161.25681   -130.43004   -161.25681            0    3134.2275    20.290838    20.181721    20.382706            0            0            0       8346.8    1766.4391    3598.8618    4037.3814    654.91821    1343.7184   -2493.7592    20.290838    20.181721    20.382706           90           90           90 
   29500    244.35174   -160.20884   -129.53986   -160.20884            0    948.94782    20.348785     20.18593    20.423264            0            0            0    8389.0422    2737.2154    1772.0648   -1662.4368    702.96806   -1202.5189   -2023.7129    20.348785     20.18593    20.423264           90           90           90 
   30000    257.95369   -159.77288    -127.3967   -159.77288            0   -735.20361    20.276948    20.266112    20.756859            0            0            0    8529.7178   -415.84502   -3056.5706    1266.8048   -390.79536   -1274.0994    -1119.062    20.276948    20.266112    20.756859           90           90           90 
   30500    254.43644   -160.73383    -128.7991   -160.73383            0    4228.2841    20.038563    20.066366    20.810879            0            0            0    8368.0783    8909.9876    1414.9074    2359.9574   -412.05283   -537.07977   -298.33349    20.038563    20.066366    20.810879           90           90           90 
   31000    245.75461   -159.44164   -128.59659   -159.44164            0    2455.4704    20.084647    20.026887    20.620435            0            0            0    8294.2186    952.69914    6842.7177   -429.00561     210.6821    3754.2056   -519.44257    20.084647    20.026887    20.620435           90           90           90 
   31500    241.30896   -159.72344   -129.43636   -159.72344            0    1849.3659    20.338328    20.271009    20.601639            0            0            0    8493.6115    322.00485    2437.6746    2788.4182    247.84115    109.24286    1004.5719    20.338328    20.271009    20.601639           90           90           90 
   32000    245.22639   -161.54833   -130.76957   -161.54833            0    5203.8383       20.185      20.1609    20.474701            0            0            0    8332.1339    5024.2104    5686.8001    4900.5043   -2083.0938   -572.19668    1637.0718       20.185      20.1609    20.474701           90           90           90 
   32500    243.84302   -160.26332   -129.65819   -160.26332            0     3885.411    20.192827    20.234138    20.571666            0            0            0     8405.263    2796.5059    4513.9389    4345.7881   -878.38096    1315.8863    1880.9399    20.192827    20.234138    20.571666           90           90           90 
   33000    246.05871   -160.83954   -129.95632   -160.83954            0    1861.1046    20.176699    20.151388    20.623794            0            0            0    8385.3974    1492.6349    1121.5989      2969.08    776.72408   -1120.8499    1539.7102    20.176699    20.151388    20.623794           90           90           90 
   33500     239.5211   -160.78928   -130.72661   -160.78928            0    4790.4181    20.242895    20.086655    20.705125            0            0            0    8418.9533    4148.6824    6030.9819    4191.5899    1164.4836     1877.156   -1157.9535    20.242895    20.086655    20.705125           90           90           90 
   34000    237.93754   -161.82962    -131.9657   -161.82962            0    667.56366    20.129943     20.16299    20.578487            0            0            0    8352.3931   -394.43271    1603.3397    793.78396    570.34912    94.903646   -1472.7791    20.129943     20.16299    20.578487           90           90           90 
   34500    235.89521   -162.73573   -133.12814   -162.73573            0   -5.2256868    20.029056    20.279298    20.363956            0            0            0    8271.3337    357.04393   -2352.3882    1979.6672   -427.57456    1530.3979   -313.94621    20.029056    20.279298    20.363956           90           90           90 
   35000    231.16329   -162.70866   -133.69498   -162.70866            0    5359.9411    20.328085    20.299113    20.464685            0            0            0    8444.5904    8591.3401    1435.6621    6052.8211    1144.0189    3743.3802   -461.57924    20.328085    20.299113    20.464685           90           90           90 
   35500      244.073   -162.50466   -131.87067   -162.50466            0   -546.77897    20.347148    19.959976    20.568634            0            0            0    8353.5101   -1805.6092    2457.6567   -2292.3843    303.82804     118.1223   -90.358636    20.347148    19.959976    20.568634           90           90           90 
   36000    231.34965   -160.05042   -131.01336   -160.05042            0    3916.0658    20.151386    20.015037    20.664144            0            0            0    8334.4845    2870.6361    4032.8801    4844.6811   -1291.6856   -54.570753   -2744.9331    20.151386    20.015037    20.664144           90           90           90 
   36500    244.39039   -161.28995   -130.61612   -161.28995            0    1969.8765    20.033612    20.337425    20.687302            0            0            0    8428.6703     1309.802    4203.7512     396.0764   -248.22752   -1826.2539   -382.23357    20.033612    20.337425    20.687302           90           90           90 
   37000    250.38476   -161.82443   -130.39823   -161.82443            0   -1472.7621    20.131543    20.306483    20.587145            0            0            0    8416.0421   -2710.9923    95.040506   -1802.3346    2270.2414    1715.8226    2580.2143    20.131543    20.306483    20.587145           90           90           90 
   37500    244.73899   -161.92331   -131.20572   -161.92331            0    921.78102    20.293814    20.053799    20.541664            0            0            0    8359.8013   -762.72618    822.22814    2705.8411    29.256724    -6.831745   -805.12691    20.293814    20.053799    20.541664           90           90           90 
   38000    248.40109   -160.60573   -129.42851   -160.60573            0    4464.5599    20.332351    20.071955    20.607966            0            0            0    8410.3177    4214.7314    4990.2755     4188.673    181.77806   -574.22999    1081.6408    20.332351    20.071955    20.607966           90           90           90 
   38500    246.66929   -160.82436    -129.8645   -160.82436            0    787.68428    20.242697    20.187774    20.649808            0            0            0    8438.6471    3557.3562    -3703.744    2509.4406    1162.2741    2557.0288   -2758.4284    20.242697    20.187774    20.649808           90           90           90 
   39000    238.48241   -161.36174   -131.42943   -161.36174            0    2083.5997    20.093006    20.210981    20.576761            0            0            0    8356.2099    4967.7191   -9.3063443    1292.3863    403.50234    1578.8412   -1707.3129    20.093006    20.210981    20.576761           90           90           90 
   39500    250.81067   -161.76754   -130.28789   -161.76754            0   -2093.7127    20.145578     20.23134     20.52394            0            0            0     8364.984     1758.336    -3574.221   -4465.2532     95.03886   -372.66415   -19.890701    20.145578     20.23134     20.52394           90           90           90 
   40000    241.80466   -161.32451   -130.97522   -161.32451            0   -1227.3552       20.273     20.22571    20.510602            0            0            0    8410.0814   -300.10505   -3791.7265    409.76586    529.64668   -1354.6651     1407.342       20.273     20.22571    20.510602           90           90           90 
   40500    243.51318   -161.97503    -131.4113   -161.97503            0    993.80767    20.259296    20.161516     20.48987            0            0            0     8369.254    634.94179    3024.1304   -677.64921   -734.08305    1748.1074    850.97255    20.259296    20.161516     20.48987           90           90           90 
   41000    244.33946   -162.06146   -131.39402   -162.06146            0    1223.3508    20.277254    20.096439    20.546573            0            0            0    8372.7408    225.21667   -180.71403    3625.5499    2252.4361    2125.3692    1334.9044    20.277254    20.096439    20.546573           90           90           90 
   41500    239.37731   -160.14632   -130.10169   -160.14632            0    1675.6538    20.164466    20.123232    20.639759            0            0            0    8375.0824   -2039.1665    2420.5862    4645.5417   -4194.0135    1087.0329   -394.24227    20.164466    20.123232    20.639759           90           90           90 
   42000    250.74011    -162.3292   -130.85841    -162.3292            0     954.4224    20.089686    20.218821    20.675702            0            0            0    8398.2585   -647.81345   -469.34067    3980.4213    1516.3233    768.20108    233.45325    20.089686    20.218821    20.675702           90           90           90 
   42500    242.51369   -160.02771   -129.58943   -160.02771            0    2321.9082    20.154211     20.25019    20.622169            0            0            0    8416.4555    2457.6759     3445.112    1062.9367   -1324.0721     465.2624    3591.1588    20.154211     20.25019    20.622169           90           90           90 
   43000     251.2061    -161.1927   -129.66342    -161.1927            0    3864.5733    20.337196    20.231181    20.559383            0            0            0    8459.0658     3799.268    1780.2222    6014.2295    -1325.863   -1463.4154   -1589.4109    20.337196    20.231181    20.559383           90           90           90 
   43500    246.78545   -161.27033   -130.29589   -161.27033            0    1960.2392    20.296422    20.142074    20.577975            0            0            0     8412.524    2998.6578   -10.237424    2892.2971    433.93175   -358.29757   -1563.5784    20.296422    20.142074    20.577975           90           90           90 
   44000     251.2628   -162.40988   -130.87348   -162.40988            0    6772.7371    20.053767     20.01247    20.614442            0            0            0    8273.0994    4982.8595    8929.1222    6406.2297   -1926.4372   -487.07016   -200.87651    20.053767     20.01247    20.614442           90           90           90 
   44500    244.86166   -161.10316   -130.37019   -161.10316            0    2442.7466    20.195144    20.196178    20.806247            0            0            0     8486.134    457.30415    4322.2705    2548.6652   -1597.2294   -471.07405   -2158.8703    20.195144    20.196178    20.806247           90           90           90 
   45000    238.92928   -162.74989   -132.76149   -162.74989            0    2938.2203    20.276074    20.190011    20.661472            0            0            0    8458.2726    3002.1655    762.88754    5049.6078    1028.5083    514.58488    438.95831    20.276074    20.190011    20.661472           90           90           90 
   45500    243.41273   -162.20618   -131.65506   -162.20618            0    4855.2529    20.304255    20.001942    20.395819            0            0            0    8283.2425    6435.1766    4310.9199    3819.6621   -187.77534   -2715.8636   -807.42899    20.304255    20.001942    20.395819           90           90           90 
   46000    241.83788   -161.39096    -131.0375   -161.39096            0   -701.72211    20.277231    20.205042    20.355885            0            0            0    8339.8528    2946.4838   -1599.6566   -3451.9935    -321.2125    116.33023   -697.66196    20.277231    20.205042    20.355885           90           90           90 
   46500    237.77465   -160.15296   -130.30948   -160.15296            0    3929.3371    20.094856     20.49442    20.539139            0            0            0    8458.6832    2925.9392    2526.7203    6335.3517    1853.5042    2629.5535    14.660628    20.094856     20.49442    20.539139           90           90           90 
   47000    253.43676   -161.78966   -129.98041   -161.78966            0     4609.675    19.939153     20.32973    20.667009            0            0            0    8377.5288     5417.229    4365.5089     4046.287   -1819.2607    2903.0225   -1453.1464    19.939153     20.32973    20.667009           90           90           90 
   47500    255.46654   -160.88474   -128.82072   -160.88474            0    3844.8155    20.118879    20.018227    20.718502            0            0            0    8344.2586    6761.7584    2662.1602     2110.528    275.52292    2011.9632   -3409.1333    20.118879    20.018227    20.718502           90           90           90 
   48000    246.66953   -160.50203   -129.54214   -160.50203            0    2106.5725    20.417821    20.013334    20.742731            0            0            0     8476.075   -1733.9426    4475.0407    3578.6195    -229.6463    -949.7877     213.4789    20.417821    20.013334    20.742731           90           90           90 
   48500     244.2431   -160.53473   -129.87939   -160.53473            0   -1431.1908    20.330314    20.096876    20.707106            0            0            0    8460.4226    -1816.133    806.32068     -3283.76    99.165748     468.1262    642.38722    20.330314    20.096876    20.707106           90           90           90 
   49000    252.97447   -159.99692   -128.24569   -159.99692            0     2962.532    20.072966    20.104638    20.526969            0            0            0    8283.8575    743.77162    3454.9309    4688.8936    720.54959    1721.3386    932.86283    20.072966    20.104638    20.526969           90           90           90 
   49500    259.08709   -158.48777   -125.96934   -158.48777            0     -1210.76    20.215452    20.342254    20.557315            0            0            0    8453.7406    992.11874   -3228.6431   -1395.7556    764.31025   -2935.8828    620.93852    20.215452    20.342254    20.557315           90           90           90 
   50000    255.85394   -160.31543   -128.20279   -160.31543            0    640.69261    20.264561    20.377412    20.618406            0            0            0    8514.1507    1555.1661   -1337.0577    1703.9694   -806.34068    1457.9927    710.84249    20.264561    20.377412    20.618406           90           90           90 
   50500    250.38633   -161.67957   -130.25319   -161.67957            0    4894.1983    20.061141    20.154765     20.58519            0            0            0    8323.1602     5055.003     5587.564    4040.0279    211.21864   -3202.3789   -274.74163    20.061141    20.154765     20.58519           90           90           90 
   51000    245.00173   -159.90336    -129.1528   -159.90336            0    2055.0897    20.129104    20.069131    20.726525            0            0            0    8372.9695    4290.6431   -2148.5055    4023.1316    876.20055    561.27961    2337.7037    20.129104    20.069131    20.726525           90           90           90 
   51500    249.33297   -161.89062   -130.59644   -161.89062            0    986.49958    20.401455    20.125615    20.885862            0            0            0    8575.5638    2794.1565   -221.20351    386.54573     40.06835    3423.6188   -116.34194    20.401455    20.125615    20.885862           90           90           90 
   52000    252.73032   -163.42932   -131.70873   -163.42932            0    1665.1555    20.245039    20.074235    20.712942            0            0            0    8417.8155    3023.4075   -1527.4698    3499.5289    194.71508   -722.46383    1738.9831    20.245039    20.074235    20.712942           90           90           90 
   52500    252.28688   -161.28558   -129.62065   -161.28558            0    5961.7423    19.999748    20.100119    20.521261            0            0            0    8249.4919    6612.4444    7294.7967    3977.9859    1350.1563    529.02836    2108.8954    19.999748    20.100119    20.521261           90           90           90 
   53000    240.44258   -161.41954    -131.2412   -161.41954            0    2002.4937    20.234436    20.393456    20.673456            0            0            0    8530.9033    4471.6184   -2552.9188    4088.7817   -1714.3516    1774.8557   -161.00205    20.234436    20.393456    20.673456           90           90           90 
   53500    248.77229    -161.6529   -130.42909    -161.6529            0    3407.1539    20.206539    20.149294    20.603746            0            0            0    8388.7635    4554.7019      1593.21    4073.5496    29.680047   -2204.2378   -1981.1452    20.206539    20.149294    20.603746           90           90           90 
   54000    252.55684   -160.96502    -129.2662   -160.96502            0    1532.4603     20.26826    20.005266    20.665174            0            0            0    8379.1479   -854.12187    6180.3461   -728.84338   -734.09495    434.29153   -562.84749     20.26826    20.005266    20.665174           90           90           90 
   54500    237.39843   -162.13357   -132.33732   -162.13357            0     2854.563    20.313098     19.99779    20.661012            0            0            0    8392.8557    3195.3718     4659.881    708.43628    2160.5978   -1209.9401     796.0739    20.313098     19.99779    20.661012           90           90           90 
   55000    244.80381   -161.52034   -130.79462   -161.52034            0   -131.92152    20.177355    20.232181    20.607872            0            0            0    8412.7908   -101.78935    1777.5009   -2071.4761    90.938803    2023.3013    -136.4008    20.177355    20.232181    20.607872           90           90           90 
   55500    234.86944   -161.43424    -131.9554   -161.43424            0    3946.3025    20.082332    20.364234    20.590332            0            0            0    8420.6492    4146.0178    4286.2071    3406.6824    204.86303    117.04041   -1673.1956    20.082332    20.364234    20.590332           90           90           90 
   56000    247.08701   -160.24003   -129.22774   -160.24003            0    7208.2988    20.119936    20.190273     20.52334            0            0            0     8337.135    4928.2862    7942.8388    8753.7716   -304.90011   -1573.7322   -3165.9484    20.119936    20.190273     20.52334           90           90           90 
   56500    249.60662   -161.25314   -129.92461   -161.25314            0    2279.8049    20.348297    20.165218    20.668079            0            0            0    8480.6887    1876.4346    4060.1566    902.82346    722.54774   -868.19505   -4525.1116    20.348297    20.165218    20.668079           90           90           90 
   57000    241.76932   -160.12657   -129.78171   -160.12657            0    1283.6056    20.241377    20.057143    20.616777            0            0            0    8370.0858    1016.0248   -12.342132     2847.134   -246.94359     596.4945   -447.67291    20.241377    20.057143    20.616777           90           90           90 
   57500    241.44452   -161.24014   -130.93606   -161.24014            0    600.22258    20.116614    20.148056    20.577799            0            0            0    8340.4015   -218.28805     685.5818     1333.374    828.81622   -362.81705    756.35743    20.116614    20.148056    20.577799           90           90           90 
   58000    240.81863   -160.89385   -130.66832   -160.89385            0    1913.8244    20.226726    20.320836    20.553433            0            0            0    8447.9537    2938.0313   -430.03633    3233.4784   -86.740233      353.166      945.048    20.226726    20.320836    20.553433           90           90           90 
   58500    246.00874   -161.12684   -130.24988   -161.12684            0    1542.9867    20.314218    20.202837     20.40064            0            0            0    8372.5213    2139.2941   -1253.2966    3742.9625    503.86191   -3095.1995    139.73616    20.314218    20.202837     20.40064           90           90           90 
   59000    251.03451    -160.8423   -129.33456    -160.8423            0    3701.4377    20.220667    20.090057    20.531508            0            0            0     8340.604    657.68649    4749.8863    5696.7405    549.76148    -424.7156    311.08734    20.220667    20.090057    20.531508           90           90           90 
   59500    243.22646   -160.12898   -129.60124   -160.12898            0    1501.3664    20.106374    20.184434     20.82161            0            0            0    8450.1546    3884.8109    3233.8169   -2614.5287    302.31862   -1500.7997   -1064.2465    20.106374    20.184434     20.82161           90           90           90 
   60000    238.81566   -160.65876   -130.68463   -160.65876            0    2763.6622    20.106516    20.170357    20.837332            0            0            0    8450.6968    812.33353    4762.6287    2716.0245   -803.47964   -3721.0231    320.56002    20.106516    20.170357    20.837332           90           90           90 
   60500    241.96005   -161.72242   -131.35362   -161.72242            0    4665.5533    20.328963    20.071857    20.545451            0            0            0    8383.3662    9169.9165    1698.7389    3128.0044     -142.113     752.7412   -1767.9372    20.328963    20.071857    20.545451           90           90           90 
   61000    240.93498    -160.1368   -129.89667    -160.1368            0    3305.7587    20.478063    20.163195    20.289134            0            0            0    8377.4481    1868.4083    1994.8556    6054.0122    1763.1097   -493.10148   -589.30009    20.478063    20.163195    20.289134           90           90           90 
   61500    247.89689   -161.05042   -129.93648   -161.05042            0    790.68284    20.233621    20.303974    20.426616            0            0            0     8391.722    5024.4644   -4550.0408    1897.6248   -543.20965    3577.0664   -923.51075    20.233621    20.303974    20.426616           90           90           90 
   62000    252.02227   -160.65593   -129.02422   -160.65593            0    1638.7249     20.05992    20.246233    20.739965            0            0            0    8423.2838    5272.7927   -1861.5675    1504.9495    119.50669    1755.2562   -1469.6779     20.05992    20.246233    20.739965           90           90           90 
   62500    238.34577   -160.32163   -130.40647   -160.32163            0     2773.906    20.098877    20.053683    20.788242            0            0            0    8378.8367    5952.4537    150.68633    2218.5779   -1663.7601   -204.51278    1972.9191    20.098877    20.053683    20.788242           90           90           90 
   63000    249.64506   -159.55769   -128.22434   -159.55769            0     1752.964     20.33109     20.04237    20.692212            0            0            0    8431.7293    1031.0223    3250.2639    977.60586    95.267839    1146.1936   -3299.3244     20.33109     20.04237    20.692212           90           90           90 
   63500    243.69568   -161.10876   -130.52212   -161.10876            0    1638.7558     20.30413    20.255687    20.554213            0            0            0    8453.4156    5850.0655   -1400.2781    466.48014    446.38782    2006.2063    -806.5413     20.30413    20.255687    20.554213           90           90           90 
   64000     260.3564   -162.04933   -129.37158   -162.04933            0   -264.26158    20.081057    20.268086    20.420442            0            0            0    8311.2137    1133.3712   -4914.5994    2988.4435   -1359.3676    -1293.282   -3544.0907    20.081057    20.268086    20.420442           90           90           90 
   64500    243.30725   -160.96916   -130.43128   -160.96916            0    2088.1995    20.218568    20.251244     20.61576            0            0            0    8441.1465    2890.6424    294.04538    3079.9106    1117.0451      -291.84   -1776.5028    20.218568    20.251244     20.61576           90           90           90 
   65000    240.16179   -162.38327   -132.24018   -162.38327            0    2096.3012    20.255743    20.061589    20.694548            0            0            0    8409.4861   -1607.5127    5388.0791    2508.3371    24.438463   -5321.2518    258.51567    20.255743    20.061589    20.694548           90           90           90 
   65500    244.87751   -161.73681   -131.00184   -161.73681            0     3319.996    20.157016    20.030169     20.60683            0            0            0    8319.9755    1527.0168    5334.8597    3098.1114    2541.2225   -405.55433    1665.6287    20.157016    20.030169     20.60683           90           90           90 
   66000    258.30276   -160.84321   -128.42322   -160.84321            0    890.94381    20.230016    20.314308    20.604311            0            0            0    8467.5223    1057.9962    -1262.911    2877.7462   -13.675406   -2773.9346    756.05593    20.230016    20.314308    20.604311           90           90           90 
   66500    258.23843   -161.62372    -129.2118   -161.62372            0    3647.4204    20.150784    20.303488     20.50735            0            0            0    8390.1965    4067.0069    3973.0411    2902.2132   -606.61981    780.29516   -302.73674    20.150784    20.303488     20.50735           90           90           90 
   67000    252.56813   -162.46704   -130.76681   -162.46704            0    1902.5557    20.191002    20.087111    20.605513            0            0            0    8357.1612    2592.1348   -741.67512    3857.2074   -1042.6509   -478.22754    730.53694    20.191002    20.087111    20.605513           90           90           90 
   67500     239.4009   -161.04617   -130.99858   -161.04617            0    1008.8846    20.279757    20.044566    20.750136            0            0            0    8434.9079   -188.83261   -177.85134    3393.3378    24.869364   -4246.2544   -396.00077    20.279757    20.044566    20.750136           90           90           90 
   68000    242.62537   -161.48389   -131.03159   -161.48389            0    3341.9245    20.144173     20.19462    20.639238            0            0            0    8396.1227    3122.9676    3760.0084    3142.7975    164.33833    273.48413    1211.4919    20.144173     20.19462    20.639238           90           90           90 
   68500    248.06032   -160.74865    -129.6142   -160.74865            0    4045.9186     20.00316    20.420446    20.489395            0            0            0    8369.3739    4396.8866       3614.8    4126.0692    1290.8368    1429.4607   -761.69231     20.00316    20.420446    20.489395           90           90           90 
   69000    241.96327   -161.66031   -131.29112   -161.66031            0    3872.2308    20.179047    20.245153    20.388028            0            0            0    8329.0783    4438.9433    4035.6491    3142.0999    31.738754    951.97895   -885.79797    20.179047    20.245153    20.388028           90           90           90 
   69500    237.80043   -161.70528   -131.85856   -161.70528            0    3882.4726    20.510906    20.014525    20.603614            0            0            0    8458.1136    1390.5951    8019.6753    2237.1475   -1286.4075    77.052193   -612.05209    20.510906    20.014525    20.603614           90           90           90 
   70000    245.56263   -161.52232   -130.70136   -161.52232            0    5787.3998    20.178068    20.023803    20.686456            0            0            0    8358.1901    6045.9766    5825.1112    5491.1115   -239.74568    437.48801   -388.37176    20.178068    20.023803    20.686456           90           90           90 
   70500    236.51248   -160.96549   -131.28043   -160.96549            0    1485.2587    20.008246    20.299097    20.790186            0            0            0    8443.9202    2861.8387     1725.065   -131.12756   -336.44908   -475.60548   -375.06319    20.008246    20.299097    20.790186           90           90           90 
   71000    239.17016   -161.05827   -131.03964   -161.05827            0    1776.2165    20.070889    20.231535    20.572111            0            0            0    8353.6121    928.27624    1822.0395    2578.3339    964.48063   -2638.4061   -159.44023    20.070889    20.231535    20.572111           90           90           90 
   71500    237.15286   -160.45756   -130.69212   -160.45756            0    3896.1403    20.329696    20.123251    20.516678            0            0            0    8393.3646    3235.0103    3919.2271    4534.1834   -423.68463    1030.4156    1156.5315    20.329696    20.123251    20.516678           90           90           90 
   72000    246.92229   -158.57007   -127.57846   -158.57007            0    4413.4746    20.419656    20.123915    20.623589            0            0            0    8474.7156    612.89439    7625.1872    5002.3423   -56.601559    148.41877     2509.919    20.419656    20.123915    20.623589           90           90           90 
   72500    239.56433   -159.85264   -129.78454   -159.85264            0    1901.6639    20.115467    20.103338    20.516344            0            0            0    8296.5639    3686.5083   -254.41897    2272.9023    46.465208    141.89971   -2075.3692    20.115467    20.103338    20.516344           90           90           90 
   73000      236.036    -160.9535   -131.32824    -160.9535            0      1060.02    20.150134    20.346246    20.594505            0            0            0    8443.3265    755.71483    603.39799    1820.9471    1414.2983   -2859.3673   -102.03637    20.150134    20.346246    20.594505           90           90           90 
   73500    251.84383   -161.72889   -130.11957   -161.72889            0    4763.0695    20.210607    20.293422    20.535358            0            0            0    8422.4207    4691.7258    5580.4096    4017.0732    123.73529    537.82998   -3249.5209    20.210607    20.293422    20.535358           90           90           90 
   74000    237.59873   -160.75116   -130.92976   -160.75116            0     995.8406    20.272753    20.160014    20.496574            0            0            0    8376.9291    2383.4282   -2327.1887    2931.2823    1260.4475    368.14515    -2595.862    20.272753    20.160014    20.496574           90           90           90 
   74500    240.37714    -160.9245   -130.75438    -160.9245            0     1420.476    20.299287    20.087832    20.438465            0            0            0    8334.1658    4151.2242   -1195.0055    1305.2094    1773.6236    1298.5719   -834.05144    20.299287    20.087832    20.438465           90           90           90 
   75000    248.51026   -160.72982    -129.5389   -160.72982            0    3893.9624    20.303204    20.211032    20.602393            0            0            0    8454.1652    7303.5283   -1129.0755    5507.4344    901.30053   -1511.8844    1788.7472    20.303204    20.211032    20.602393           90           90           90 
   75500    240.33606   -161.32534   -131.16037   -161.32534            0    811.44185     20.11932    20.136178    20.742072            0            0            0    8403.1569   -1934.0177    4443.0463   -74.703029    534.73079    -294.6863   -321.14019     20.11932    20.136178    20.742072           90           90           90 
   76000    242.61521   -160.49547   -130.04444   -160.49547            0    1067.0428      20.0718     20.01116    20.768945            0            0            0    8342.0544    1166.6783    1657.4047    377.04538    194.35969    457.63515    -2209.653      20.0718     20.01116    20.768945           90           90           90 
   76500    229.90636   -162.33438   -133.47847   -162.33438            0    2538.1131    20.273033    20.135475    20.589219            0            0            0    8404.6662    804.63195    4308.7936    2500.9137    1065.8871   -896.95585    2342.4298    20.273033    20.135475    20.589219           90           90           90 
   77000    231.93717   -162.15069   -133.03989   -162.15069            0    360.14571    20.335652    20.394234    20.179729            0            0            0      8369.14    -596.3112    1246.5879    430.16044     403.2565    1894.0898   -1711.5727    20.335652    20.394234    20.179729           90           90           90 
   77500    246.77617   -161.66865   -130.69538   -161.66865            0    2218.3621    20.219177     20.41618    20.097756            0            0            0    8296.3203    2890.7893   -971.26086    4735.5578   -452.99341    463.00215   -497.97564    20.219177     20.41618    20.097756           90           90           90 
   78000    252.34409   -159.72101    -128.0489   -159.72101            0    264.52768    20.205838    20.198365    20.513727            0            0            0    8372.1627   -1839.6911    2533.0211    100.25306    1740.1955    1183.5958   -1431.4466    20.205838    20.198365    20.513727           90           90           90 
   78500      245.895   -162.81983   -131.95715   -162.81983            0    1036.8394    20.217692     20.05156    20.875575            0            0            0    8462.8803   -31.801717    2170.7469    971.57318    -610.8412    1414.0217    255.20389    20.217692     20.05156    20.875575           90           90           90 
   79000    228.41086    -160.3084   -131.64019    -160.3084            0    1967.6382    20.152267    20.074714    20.808586            0            0            0    8418.1343    1571.3892    3442.4198    889.10567    936.41762    -380.1504    3798.0568    20.152267    20.074714    20.808586           90           90           90 
   79500    243.96238   -160.51789   -129.89778   -160.51789            0    703.96412    20.153296     20.22005    20.448983            0            0            0     8332.974   -239.55644   -70.449739    2421.8985   -181.20395    2363.5192    2659.2515    20.153296     20.22005    20.448983           90           90           90 
   80000    251.51589   -160.81921   -129.25105   -160.81921            0    779.08733    20.327729     20.35047    20.317315            0            0            0    8404.8434   -361.40465    790.44391    1908.2227   -256.14241    504.92143    530.52621    20.327729     20.35047    20.317315           90           90           90 
   80500    243.39607   -160.64305   -130.09402   -160.64305            0    4088.1746    20.290404    20.161456    20.405694            0            0            0    8347.6449    2908.0498    5117.7198    4238.7541   -77.571063     4855.443    726.55751    20.290404    20.161456    20.405694           90           90           90 
   81000    243.91842   -161.28325   -130.66866   -161.28325            0    2791.3563    20.205127    20.080255    20.713541            0            0            0     8403.983     4182.854    1924.4557    2266.7591   -908.80177    58.672386   -639.62133    20.205127    20.080255    20.713541           90           90           90 
   81500    237.89006   -160.91874   -131.06077   -160.91874            0   -814.36159     20.13975    20.146244    20.750586            0            0            0    8419.3494    1149.9421   -3696.5276    103.50068    1997.6951   -492.52329   -135.99158     20.13975    20.146244    20.750586           90           90           90 
   82000     242.9036   -162.10978   -131.62256   -162.10978            0    5201.1319    20.139766    20.182287    20.549583            0            0            0     8352.718    9392.0418    4792.4137    1418.9401   -1120.9802    345.21561    631.88783    20.139766    20.182287    20.549583           90           90           90 
   82500    253.34232    -160.4373    -128.6399    -160.4373            0   -603.65559     20.29237    20.311759    20.385236            0            0            0    8402.2588    -2704.509    1114.9009   -221.35868    403.10157    523.74869     736.4741     20.29237    20.311759    20.385236           90           90           90 
   83000    243.34111   -160.40643    -129.8643   -160.40643            0    2304.2465    20.289605    20.269188    20.307492            0            0            0    8351.5338   -937.00985    4870.7644    2978.9849    2015.2407    2375.6835   -406.83744    20.289605    20.269188    20.307492           90           90           90 
   83500    246.44237   -161.32299   -130.39162   -161.32299            0    340.30234    20.274153    20.185798    20.514343            0            0            0    8395.4941    4911.5856   -1293.5392   -2597.1394     734.9952   -1552.7634    4328.8618    20.274153    20.185798    20.514343           90           90           90 
   84000    253.53039   -159.89639   -128.07538   -159.89639            0    3691.4027    20.127907     20.05571    20.755569            0            0            0    8378.5975    6571.1383    8.0703847    4494.9994   -613.89294    116.99445    1175.8208    20.127907     20.05571    20.755569           90           90           90 
   84500    237.68299   -159.43797     -129.606   -159.43797            0    1725.3434    20.085391    20.048664    20.851105            0            0            0    8396.4324   -1179.9055    6538.9194   -182.98359   -965.12994   -870.82355    112.86061    20.085391    20.048664    20.851105           90           90           90 
   85000    237.15427   -161.07722    -131.3116   -161.07722            0    -366.9765    20.253291    20.233423    20.645529            0            0            0    8460.4014   -399.93426   -1377.5664     676.5712   -188.19193   -1323.9447    2972.1491    20.253291    20.233423    20.645529           90           90           90 
   85500    250.41735   -160.34051   -128.91023   -160.34051            0    4728.5045    20.272762     20.26443    20.216387            0            0            0    8305.2148    3820.3729    5281.8836    5083.2572    805.40821    258.92994   -1427.9532    20.272762     20.26443    20.216387           90           90           90 
   86000    249.59832   -161.52489   -130.19741   -161.52489            0    2800.4984    20.245913     20.33967    20.269741            0            0            0    8346.9821    4063.7491   -157.89534    4495.6413    2632.9495   -1262.7494     1393.376    20.245913     20.33967    20.269741           90           90           90 
   86500    245.32521   -162.00581   -131.21465   -162.00581            0    1569.3506    20.229507    20.214782    20.659224            0            0            0    8448.2813   -141.72582    1727.5227    3122.2548   -901.70836   -1428.1443    3000.1648    20.229507    20.214782    20.659224           90           90           90 
   87000    242.95557   -162.90551   -132.41177   -162.90551            0   -1693.8876    20.154241    20.043972    20.806681            0            0            0    8405.2967   -3568.4127    590.59682    -2103.847    1650.1675   -972.40246    397.41713    20.154241    20.043972    20.806681           90           90           90 
   87500    242.23163   -160.95603   -130.55315   -160.95603            0    4314.5607    20.172811     20.00783    20.750567            0            0            0     8375.223    7812.8945    1815.5602    3315.2274   -38.282535    945.51174   -1234.7054    20.172811     20.00783    20.750567           90           90           90 
   88000    240.93998   -160.45475   -130.21399   -160.45475            0    1239.5819     20.27918    20.101575     20.63053            0            0            0     8409.901    441.32693    979.56658    2297.8521    1031.0586   -1928.1503   -1535.1459     20.27918    20.101575     20.63053           90           90           90 
   88500     251.3986   -162.79171   -131.23827   -162.79171            0    3084.2468    20.238255     20.21086    20.456925            0            0            0    8367.5479     2917.256    2786.9691    3548.5152    248.28395   -349.83438   -728.91045    20.238255     20.21086    20.456925           90           90           90 
   89000     231.1777   -161.99601   -132.98053   -161.99601            0    3485.3229    20.185787     20.35569     20.48397            0            0            0    8416.7735    5236.4786    674.45401    4545.0361   -169.19519    622.84668   -2932.6475    20.185787     20.35569     20.48397           90           90           90 
   89500    239.25055   -163.38576   -133.35704   -163.38576            0    4327.7336     20.03344    20.188419    20.546252            0            0            0     8309.798     1709.647    6046.0537    5227.5003   -415.53139     -269.474    1611.9557     20.03344    20.188419    20.546252           90           90           90 
   90000    235.42111   -162.15667   -132.60859   -162.15667            0    3143.6915    20.115882      20.1693    20.814062            0            0            0    8444.7487    6202.0888    2981.4984    247.48739   -907.05246    1013.7265   -252.62958    20.115882      20.1693    20.814062           90           90           90 
   90500    243.93763   -160.96746   -130.35046   -160.96746            0    3950.1044     20.20548    20.016816    20.782134            0            0            0    8405.3214    5069.2721    4117.8152    2663.2258    -381.3189   -492.09464    1416.1724     20.20548    20.016816    20.782134           90           90           90 
   91000    242.28975   -160.99451   -130.58434   -160.99451            0    2360.2376    20.382552    20.026375    20.567481            0            0            0    8395.4116   -670.54544    4836.5597    2914.6986    141.52338   -993.36178   -1620.5086    20.382552    20.026375    20.567481           90           90           90 
   91500    238.36523   -163.75405   -133.83645   -163.75405            0    688.90113    20.311659    20.294154     20.44147            0            0            0    8426.1357   -1138.8824    7.7162807    3197.8695   -380.36896    525.13252    3849.9093    20.311659    20.294154     20.44147           90           90           90 
   92000    240.46167   -162.00587   -131.82514   -162.00587            0    3773.5605    20.065592    20.287598    20.371011            0            0            0    8292.6854    3516.3221     3970.978    3833.3813    537.19457   -395.96143    382.62951    20.065592    20.287598    20.371011           90           90           90 
   92500    248.44184   -162.75976   -131.57742   -162.75976            0    5.8922279     20.16535    20.287718    20.683901            0            0            0    8461.9686   -485.00655    1067.9564   -565.27321    364.69102   -455.95891    1492.6547     20.16535    20.287718    20.683901           90           90           90 
   93000     238.4774   -161.05652   -131.12484   -161.05652            0    1609.1222    20.148559    20.089294    20.824305            0            0            0    8429.0608    924.34221    2566.7733    1336.2511    1341.0298    2578.9863    3323.0175    20.148559    20.089294    20.824305           90           90           90 
   93500    240.06048   -161.15624   -131.02586   -161.15624            0    3368.2744     20.11759    20.079943    20.817916            0            0            0    8409.6067    1302.8082    8479.6261    322.38903   -1959.2001   -1395.1257   -3706.7538     20.11759    20.079943    20.817916           90           90           90 
   94000    237.98378   -161.89628   -132.02655   -161.89628            0    2098.1825    20.180544    20.158115    20.550891            0            0            0    8360.1382    1527.9521    1898.4214     2868.174   -1744.4083   -776.73646    -967.6495    20.180544    20.158115    20.550891           90           90           90 
   94500    239.29005   -161.30587   -131.27219   -161.30587            0   -264.03264    20.415134    20.191328    20.332818            0            0            0    8381.3637   -1066.9805    510.36006   -235.47752    41.863074     547.5981    1476.9174    20.415134    20.191328    20.332818           90           90           90 
   95000    230.32138   -162.33917   -133.43116   -162.33917            0    3876.1403    20.362949    20.128155    20.377229            0            0            0    8351.9861    858.27496     7820.413     2949.733   -631.47302    814.83221    693.81309    20.362949    20.128155    20.377229           90           90           90 
   95500    242.67175   -160.78624   -130.32812   -160.78624            0    2094.3164    20.061164    20.245227    20.670544            0            0            0    8395.1932    11.383976    3566.8892    2704.6759   -152.53188   -1545.9646   -934.42882    20.061164    20.245227    20.670544           90           90           90 
   96000    263.68005    -162.7968   -129.70189    -162.7968            0   -230.15172    19.940715    20.334741    20.841565            0            0            0    8451.0309    2554.9223   -1494.0811   -1751.2963    350.14835    1850.5451   -845.05468    19.940715    20.334741    20.841565           90           90           90 
   96500    250.43551    -161.2786   -129.84604    -161.2786            0    4645.5885    20.052887    20.167781    20.651738            0            0            0    8352.0221    4757.1814    6308.7351     2870.849   -2007.5489    495.36168   -849.61779    20.052887    20.167781    20.651738           90           90           90 
   97000    243.96339   -161.41752   -130.79729   -161.41752            0    1345.0468    20.381648    20.087804    20.532571            0            0            0    8406.4978   -957.76234    1895.9561    3096.9467    246.63297    871.40507   -1634.1506    20.381648    20.087804    20.532571           90           90           90 
   97500    241.07129   -160.85172   -130.59448   -160.85172            0    3570.7629    20.373833    20.090123    20.487637            0            0            0    8385.8522    298.83127    3929.2879    6484.1696   -445.65189   -184.93208    708.42249    20.373833    20.090123    20.487637           90           90           90 
   98000    241.37962   -162.20923   -131.91329   -162.20923            0    3636.3571    20.191804    20.118941    20.611119            0            0            0    8373.0138    673.32376    6737.6317    3498.1158   -1267.8234    813.95636    2755.0501    20.191804    20.118941    20.611119           90           90           90 
   98500    242.24558   -161.44103    -131.0364   -161.44103            0    681.66043    20.022054    20.160797    20.728799            0            0            0    8367.3989    1190.6939   -403.57963    1257.8671   -769.08472    210.90498   -1005.4145    20.022054    20.160797    20.728799           90           90           90 
   99000    240.48466   -161.20633   -131.02271   -161.20633            0    657.46566    20.025776    20.270967    20.678741            0            0            0    8394.3662   -2670.1754    3069.3918    1573.1806    58.218939    -499.8789    275.89873    20.025776    20.270967    20.678741           90           90           90 
   99500    247.81298   -159.83948   -128.73608   -159.83948            0   -1387.8528    20.186301    20.279222    20.515764            0            0            0    8398.3836    145.52126    -3866.438   -442.64161    2177.8664    -1429.491    111.71453    20.186301    20.279222    20.515764           90           90           90 
  100000     238.3284   -160.41442   -130.50145   -160.41442            0    4935.7483    20.360243    20.113368    20.419742            0            0            0    8362.1509      5800.33    3858.8313    5148.0837    302.56808   -944.14121    7.5038191    20.360243    20.113368    20.419742           90           90           90 
  100500    247.37656   -161.26302    -130.2144   -161.26302            0    1515.3564    20.293684    20.051566    20.567379            0            0            0    8369.2805    1458.3705    5025.7629   -1938.0643   -274.08696   -900.12245    2686.5576    20.293684    20.051566    20.567379           90           90           90 
  101000    239.27664   -161.41505   -131.38306   -161.41505            0    3531.0226     20.09702    20.091136    20.814663            0            0            0    8404.3771    7323.0712    833.93896    2436.0577    2314.5955    4328.8122    1784.5968     20.09702    20.091136    20.814663           90           90           90 
  101500    248.27719    -162.0235   -130.86183    -162.0235            0    5786.2221    19.994427    20.126418    20.834137            0            0            0    8383.9941    7111.9098    5879.1294    4367.6272    1223.3655    224.42033    3432.8424    19.994427    20.126418    20.834137           90           90           90 
  102000     244.8158   -161.72884   -131.00162   -161.72884            0    1915.7128    20.168833    20.240637    20.552511            0            0            0    8390.1523    6757.8305   -2959.8384    1949.1464   -362.50729    2480.9662    278.50843    20.168833    20.240637    20.552511           90           90           90 
  102500    242.24106    -161.7052   -131.30113    -161.7052            0    1106.7166    20.402003    20.303001    20.282315            0            0            0    8401.3791   -1004.0006    767.02502    3557.1254    -715.3346    -168.8404    1962.0344    20.402003    20.303001    20.282315           90           90           90 
  103000    245.26575   -160.95126   -130.16756   -160.95126            0   -720.88406    20.295341    20.207835    20.293727            0            0            0     8322.963   -2318.1348     858.5529   -703.07023    2748.5403    858.13051   -2894.6935    20.295341    20.207835    20.293727           90           90           90 
  103500    240.19204   -162.24892   -132.10203   -162.24892            0     3405.414    20.094001    20.101209    20.568543            0            0            0    8307.9167    6766.1591   -1389.8563    4839.9393    -140.3082    822.88551    220.91911    20.094001    20.101209    20.568543           90           90           90 
  104000    248.45174   -161.33889   -130.15531   -161.33889            0    2114.0564    20.174685      20.1323    20.832846            0            0            0    8461.5273    2631.6453    3203.8804    506.64356   -537.78989   -397.48846    4384.2487    20.174685      20.1323    20.832846           90           90           90 
  104500    237.25828   -161.60147   -131.82281   -161.60147            0    3322.6483    20.191388    20.079216    20.753854            0            0            0    8414.1775    542.53313    5567.2892    3858.1225   -2811.1847    1043.0576   -4125.8812    20.191388    20.079216    20.753854           90           90           90 
  105000    250.47401   -160.60315   -129.16576   -160.60315            0    1675.5582    20.218728    20.073976    20.467862            0            0            0    8307.2962   -3763.6747    7789.7176    1000.6317   -182.08923    150.76411    1200.2912    20.218728    20.073976    20.467862           90           90           90 
  105500    254.32622   -161.20143   -129.28054   -161.20143            0    1372.5881    20.256148    20.292473    20.320925            0            0            0    8352.8621   -1589.3017    2556.9667    3150.0993   -588.83225   -382.62053   -2417.0536    20.256148    20.292473    20.320925           90           90           90 
  106000    244.78812   -161.21944   -130.49569   -161.21944            0    1234.9538    20.208375     20.39569    20.445863            0            0            0    8427.0436    754.26922    1124.4081    1826.1841    760.64045    3101.2256    2568.8662    20.208375     20.39569    20.445863           90           90           90 
  106500    242.59003   -161.20027   -130.75241   -161.20027            0    6228.7236    20.077609    20.120402    20.544713            0            0            0    8299.4386    6547.9249     6357.827    5780.4188   -1215.8138    1381.7016    164.38758    20.077609    20.120402    20.544713           90           90           90 
  107000    243.20743   -161.75853   -131.23317   -161.75853            0   -7.5777913    20.222668    20.050934    20.736643            0            0            0    8408.3639   -1701.7685     3410.631   -1731.5959    1758.2432   -1431.2361    253.85657    20.222668    20.050934    20.736643           90           90           90 
  107500    247.15197   -161.33442   -130.31398   -161.33442            0    944.09484    20.218053    20.119637    20.669702            0            0            0    8408.0191   -1570.9896     4253.198    150.07616    -1330.192     2553.743   -499.94894    20.218053    20.119637    20.669702           90           90           90 
  108000    246.58573   -160.65937      -129.71   -160.65937            0    448.85236    20.170779    20.213535    20.369239            0            0            0    8305.0022    254.51522   -1574.2159    2666.2577    2178.3539   -2092.8757   -798.90336    20.170779    20.213535    20.369239           90           90           90 
  108500    253.67684    -160.8111   -128.97171    -160.8111            0    1092.4094    20.312766    20.326311    20.320604            0            0            0     8390.044    2281.8232   -558.47042    1553.8754     962.3552   -1356.3121    1309.1905    20.312766    20.326311    20.320604           90           90           90 
  109000    243.03219   -161.43736     -130.934   -161.43736            0    3244.4871    20.267775    20.258005    20.538675            0            0            0    8432.8655    6471.8801    2156.6549    1104.9263     401.0003    23.535702    888.55382    20.267775    20.258005    20.538675           90           90           90 
  109500    243.97978   -160.80934   -130.18705   -160.80934            0    2007.6957     20.01687     20.05282    20.592133            0            0            0    8265.5731    3287.8215   -664.60147    3399.8672    1822.3225    283.47404   -1100.6327     20.01687     20.05282    20.592133           90           90           90 
  110000    240.51893   -161.21148   -131.02356   -161.21148            0    2921.0102    20.163075    20.125394    20.665044            0            0            0    8385.6649    998.30002    4720.4327    3044.2977   -995.77283    3667.1878   -1866.7429    20.163075    20.125394    20.665044           90           90           90 
  110500    234.90203    -161.4554   -131.97247    -161.4554            0    613.50971    20.303937    20.237644    20.605294            0            0            0    8466.7948    1879.3779   -2038.8565    2000.0078    933.50475    -2334.199    2130.1579    20.303937    20.237644    20.605294           90           90           90 
  111000    240.95285   -160.75187   -130.50949   -160.75187            0    1267.7336    20.190157    20.117999    20.434721            0            0            0    8300.2886    2441.8255   -577.71561    1939.0911    2297.5957   -3433.8571    899.32172    20.190157    20.117999    20.434721           90           90           90 
  111500    248.25065   -161.88852   -130.73018   -161.88852            0    2319.7327    20.198311     20.10283    20.498742            0            0            0     8323.375    4041.7015    705.33553    2212.1611   -857.54295   -133.47078   -685.32567    20.198311     20.10283    20.498742           90           90           90 
  112000    239.40309   -161.12115   -131.07328   -161.12115            0    4433.2989    20.216771    20.160821     20.60828            0            0            0    8399.6611    4316.7282    3524.7155    5458.4529     967.8597   -2515.2804    1514.5348    20.216771    20.160821     20.60828           90           90           90 
[...]
  373000    231.09096   -162.92666   -133.92206   -162.92666            0   -2123.5016    20.333167    20.153582    20.608868            0            0            0    8445.2287   -1804.4857   -1021.3939   -3544.6254    1136.8839    2017.4624    42.503931    20.333167    20.153582    20.608868           90           90           90 
  373500    241.62394   -162.32405   -131.99744   -162.32405            0    2035.2862     20.41313    19.989447    20.550305            0            0            0    8385.4941   -1131.7403    3962.6704    3274.9285    -281.9763   -1157.5684    1991.0524     20.41313    19.989447    20.550305           90           90           90 
  374000    248.75045   -160.56549   -129.34443   -160.56549            0   -433.91726     20.16723    20.131487    20.669218            0            0            0    8391.6266   -1525.6261    1211.4547   -987.58043    1795.8275    1674.3738   -769.52817     20.16723    20.131487    20.669218           90           90           90 
  374500    257.32085   -160.16575   -127.86899   -160.16575            0    1226.9748    20.020339    20.298829    20.769697            0            0            0    8440.5855     3163.939   -369.11994    886.10517    1935.3261   -2548.3031   -2743.5643    20.020339    20.298829    20.769697           90           90           90 
  375000    257.36947   -160.11778   -127.81492   -160.11778            0    3021.7093    20.149888     20.23203     20.72869            0            0            0      8450.53   -722.53177    4966.2051    4821.4546    279.02166   -2791.8234    1553.0846    20.149888     20.23203     20.72869           90           90           90 
  375500    247.06863   -161.23319   -130.22321   -161.23319            0    1392.7148     20.36558    20.006423    20.542674            0            0            0    8369.9566    691.15641    1023.4011    2463.5868    776.35427   -282.99966    1990.9094     20.36558    20.006423    20.542674           90           90           90 
  376000    249.85936   -160.65205    -129.2918   -160.65205            0    3331.1315    20.371967    20.149991    20.368475            0            0            0    8361.1562     315.5345    6281.0864    3396.7738    122.59757   -1001.2259    677.86012    20.371967    20.149991    20.368475           90           90           90 
  376500    248.21378   -160.27456   -129.12085   -160.27456            0    478.20948     20.18919     20.43568     20.48226            0            0            0     8450.567    1425.9797   -1564.3521    1573.0008    -992.2738    2731.8698    883.53892     20.18919     20.43568     20.48226           90           90           90 
  377000    240.70449   -162.08277   -131.87156   -162.08277            0     3367.697    20.040389    20.222387      20.6552            0            0            0    8370.8193    6334.7485    2848.0259    920.31659    152.52538   -3467.8057    4317.2568    20.040389    20.222387      20.6552           90           90           90 
  377500    239.29678   -161.90971   -131.87519   -161.90971            0    2940.2652    20.207569    20.037527    20.818975            0            0            0    8429.8049    2662.3965     2486.311    3672.0881    909.95932    -2129.771   -1478.6756    20.207569    20.037527    20.818975           90           90           90 
  378000    241.43846   -160.84026   -130.53693   -160.84026            0    3216.7187     20.31094    19.989855    20.719878            0            0            0    8412.5346    3097.8374     6041.489    510.82971    1436.0158   -118.77409    562.04164     20.31094    19.989855    20.719878           90           90           90 
  378500    244.86369   -162.20383   -131.47059   -162.20383            0    1542.0918    20.217948    20.179759     20.56748            0            0            0    8391.3946    3913.4465    684.78328    28.045582   -347.20254   -139.23791   -2386.0418    20.217948    20.179759     20.56748           90           90           90 
  379000    241.38482   -160.76493   -130.46834   -160.76493            0   -1226.4541    20.157975    20.334366     20.49807            0            0            0    8402.1512   -2751.2172   -1020.1895     92.04456    39.475765    265.10595   -828.92423    20.157975    20.334366     20.49807           90           90           90 
  379500    246.76959   -162.20185    -131.2294   -162.20185            0    1243.9807     20.14447    20.232663    20.451038            0            0            0    8335.3575    2976.4969   -474.89929    1230.3445   -116.76473    441.73725   -606.43377     20.14447    20.232663    20.451038           90           90           90 
  380000    233.21416   -160.92024   -131.64916   -160.92024            0    1481.7705    20.252756    20.161945    20.568583            0            0            0    8398.8711    844.36984    4192.3281   -591.38653   -1571.8935   -1097.4696   -2477.8352    20.252756    20.161945    20.568583           90           90           90 
  380500    246.65362   -162.89728   -131.93939   -162.89728            0    3174.0733    20.184287    20.094184    20.605585            0            0            0    8357.3531    5927.0416    3011.8837    583.29452   -2107.8808   -755.17748    3143.5254    20.184287    20.094184    20.605585           90           90           90 
  381000    240.35399   -161.34546   -131.17824   -161.34546            0    3718.4816    20.166821    20.179159    20.658688            0            0            0    8407.0421    2594.8386    5097.9521     3462.654   -205.63316    1552.0977   -946.72727    20.166821    20.179159    20.658688           90           90           90 
  381500    260.42303   -160.80313   -128.11702   -160.80313            0    1936.6192    20.233884    20.192376    20.569774            0            0            0    8404.1963    6147.1234   -1391.2649    1053.9991   -2912.5791    1161.3044   -788.86463    20.233884    20.192376    20.569774           90           90           90 
  382000    242.66131   -159.95176   -129.49495   -159.95176            0    3665.1222     20.40222    20.169472    20.551464            0            0            0    8456.9683    6551.9473    1425.5339    3017.8854    1002.1738   -60.824751    1144.5806     20.40222    20.169472    20.551464           90           90           90 
  382500    244.10923   -158.98065   -128.34211   -158.98065            0    5499.0408    20.218011    20.044814    20.493525            0            0            0    8305.3345    3174.6974    7724.4076    5598.0173    125.74306   -1047.4479   -2078.4662    20.218011    20.044814    20.493525           90           90           90 
  383000    249.64697   -160.85164   -129.51805   -160.85164            0    2056.2929    20.142056     20.23694     20.66802            0            0            0    8424.5656    4940.7666   -1809.2096    3037.3217    460.50655    1303.8767    1387.1261    20.142056     20.23694     20.66802           90           90           90 
  383500    253.08307   -159.11567   -127.35081   -159.11567            0    2743.3992    20.145725    20.400487    20.780519            0            0            0    8540.4318    7082.5592   -1471.0646    2618.7029   -791.33701    2371.4839   -358.90378    20.145725    20.400487    20.780519           90           90           90 
  384000    238.39967   -160.35819   -130.43627   -160.35819            0    5265.1263    20.069136    20.143963     20.49081            0            0            0    8283.8595    6906.1723    3216.5685    5672.6382    101.52074   -2052.8853   -1411.3939    20.069136    20.143963     20.49081           90           90           90 
  384500    234.78299   -160.60988   -131.14189   -160.60988            0    2041.5221    20.328164     20.12688    20.432685            0            0            0    8359.8804     957.9006    1523.6973    3642.9684   -845.86397    6716.0742      1338.12    20.328164     20.12688    20.432685           90           90           90 
  385000    236.49267   -162.10715   -132.42457   -162.10715            0    4488.8705     20.27473    20.167262    20.397237            0            0            0    8340.1405    3440.7848    4437.0858    5588.7409   -707.82631    1049.4182    249.05038     20.27473    20.167262    20.397237           90           90           90 
  385500    232.23338   -161.05541   -131.90743   -161.05541            0    3114.6425    20.177156    20.230413    20.631186            0            0            0     8421.489    3979.2588      3935.76    1428.9086   -1238.8118    2146.2058   -171.69346    20.177156    20.230413    20.631186           90           90           90 
  386000    244.71325   -161.47821   -130.76386   -161.47821            0    1099.0818    20.137944    20.145939    20.767752            0            0            0    8425.4312    905.02416     3899.112   -1506.8907    144.68812   -2595.5131   -273.44194    20.137944    20.145939    20.767752           90           90           90 
  386500    252.39605    -161.1664   -129.48777    -161.1664            0    3042.4421    20.224156    20.046229    20.647388            0            0            0    8370.8241    1170.7176    4600.6469    3355.9617    156.19064    139.55656   -1711.7198    20.224156    20.046229    20.647388           90           90           90 
  387000    247.77108   -162.06749   -130.96934   -162.06749            0    2278.1474    20.315573    20.206496    20.515852            0            0            0    8421.8918    46.537166    3712.0594    3075.8456    1522.1705   -1320.9259    948.44186    20.315573    20.206496    20.515852           90           90           90 
  387500    247.10425   -160.87403   -129.85958   -160.87403            0    1996.3595    20.183759    20.429889    20.452157            0            0            0    8433.4871     4217.012    947.14612    824.92053    218.91969    984.43096   -987.22036    20.183759    20.429889    20.452157           90           90           90 
  388000    245.57039   -163.18149   -132.35955   -163.18149            0   -191.55118    20.039026    20.288648    20.424471            0            0            0    8303.8699    191.39519   -1596.4358     830.3871    1134.3614    369.21063   -595.46187    20.039026    20.288648    20.424471           90           90           90 
  388500    231.25824   -162.24079    -133.2152   -162.24079            0    3576.9025    20.249043     20.01006    20.617708            0            0            0    8353.9767    190.48832    6720.5969    3819.6223    536.63554    272.90174    708.53121    20.249043     20.01006    20.617708           90           90           90 
  389000    240.37407   -162.34791   -132.17818   -162.34791            0    2986.9577    20.344205     20.00186    20.795851            0            0            0    8462.2882     -190.766    4605.4231    4546.2159    96.200904   -2084.8452    1973.6544    20.344205     20.00186    20.795851           90           90           90 
  389500    238.94287   -161.91967   -131.92957   -161.91967            0   -335.43348    20.158474     20.17227    20.706391            0            0            0    8420.0924   -663.20601    1453.2762   -1796.3707   -707.08857    431.51815   -465.37096    20.158474     20.17227    20.706391           90           90           90 
  390000    237.53514   -162.62153   -132.80811   -162.62153            0    1016.0725    20.037194    20.314828    20.507224            0            0            0    8347.5099   -1520.5105    3032.4898    1536.2381   -1754.7572   -269.69657    1800.5889    20.037194    20.314828    20.507224           90           90           90 
  390500     251.7403   -162.10067   -130.50435   -162.10067            0     1574.046    20.243925    20.292731    20.424152            0            0            0    8390.3341    1239.2888    984.47215    2498.3771    454.96485     3101.501    301.46124    20.243925    20.292731    20.424152           90           90           90 
  391000    242.83776   -159.54988   -129.07093   -159.54988            0    2838.2024     20.45695    20.137091    20.523176            0            0            0     8454.388    -1696.893    4992.5418    5218.9586    187.40452    1475.8887   -812.48951     20.45695    20.137091    20.523176           90           90           90 
  391500    259.02377   -159.51843   -127.00794   -159.51843            0    2023.7912    20.254248    20.068064     20.72549            0            0            0     8424.156    2090.6734    3220.4001    760.30004   -944.92669    738.89667    61.706421    20.254248    20.068064     20.72549           90           90           90 
  392000    228.83655   -161.85126   -133.12962   -161.85126            0    3640.0993    19.973379    20.166446    20.786668            0            0            0     8372.705    4195.0531    2139.5977    4585.6471   -352.01339   -895.36675    961.98359    19.973379    20.166446    20.786668           90           90           90 
  392500     241.5357   -162.43558   -132.12004   -162.43558            0    1056.9228    20.090699    20.240036    20.682522            0            0            0     8410.268    4955.0347   -2412.2492    627.98297    2111.3889   -912.62312    -1839.741    20.090699    20.240036    20.682522           90           90           90 
  393000    251.81799   -161.30621   -129.70013   -161.30621            0   -1000.1235    20.430073    20.160144    20.527744            0            0            0    8454.8278   -902.22139   -2326.9265    228.77722       443.46    1734.3278    -346.1488    20.430073    20.160144    20.527744           90           90           90 
  393500    251.95647   -159.07967   -127.45621   -159.07967            0    3386.0322    20.328351    20.115247    20.468572            0            0            0    8369.7995   -892.54945    5767.6583    5282.9878   -1356.2771    1130.5687    1221.3381    20.328351    20.115247    20.468572           90           90           90 
  394000    238.70496   -161.30504    -131.3448   -161.30504            0    1751.7456    20.118106     20.23979    20.580936            0            0            0    8380.2739    4747.2327   -1774.5668    2282.5709   -327.42901    566.39497   -4048.7774    20.118106     20.23979    20.580936           90           90           90 
  394500    236.05321   -161.39035   -131.76294   -161.39035            0    854.97053    20.129544    20.281163    20.629404            0            0            0    8421.9659     1480.202    -923.0657    2007.7753   -164.17165    368.33953    120.12372    20.129544    20.281163    20.629404           90           90           90 
  395000    239.30946   -160.03951    -130.0034   -160.03951            0    516.21877    20.175299    20.143098     20.57608            0            0            0    8361.9751    2750.0218   -3538.0759    2336.7104    -1757.871    622.66226   -2608.1316    20.175299    20.143098     20.57608           90           90           90 
  395500    240.19538   -162.23933   -132.09202   -162.23933            0    878.13559    20.224699    20.044555    20.511989            0            0            0    8315.4595    5135.6045   -2425.0167   -76.180978    554.80956    1144.0759    607.14566    20.224699    20.044555    20.511989           90           90           90 
  396000    247.29954   -163.10928   -132.07032   -163.10928            0    1773.6143    20.314595    20.239844    20.539614            0            0            0    8445.1548    1457.6182    290.17354     3573.051   -1054.6862    3897.7834   -2191.0131    20.314595    20.239844    20.539614           90           90           90 
  396500    237.48245   -162.43031   -132.62351   -162.43031            0    96.400469    20.158039    20.220391    20.499168            0            0            0    8355.5314   -1112.6766    1553.0426   -151.16461    1529.3189     1972.741   -1780.0196    20.158039    20.220391    20.499168           90           90           90 
  397000    246.55026   -161.84705   -130.90213   -161.84705            0    1807.2123    20.092572     20.20773    20.514222            0            0            0    8329.2926    3335.5736    1401.8738    684.18943   -416.80941    606.16992   -480.25483    20.092572     20.20773    20.514222           90           90           90 
  397500    246.55761   -161.73637   -130.79053   -161.73637            0    3163.8528    20.294117    20.220015    20.573506            0            0            0    8442.2835    3950.8791    1150.7859    4389.8934    894.62612    359.70337    3084.5968    20.294117    20.220015    20.573506           90           90           90 
  398000    241.89913    -160.9177   -130.55655    -160.9177            0    1830.4563    20.270957    20.070976    20.582587            0            0            0    8374.1879    1711.6513    233.51907    3546.1985   -761.15415   -893.65209    1341.3692    20.270957    20.070976    20.582587           90           90           90 
  398500    252.15495   -161.47693   -129.82855   -161.47693            0    1114.2019    20.198768    20.139337    20.658134            0            0            0    8403.5179    1230.0674    1838.8143    273.72404    119.30908   -206.02091    -573.1373    20.198768    20.139337    20.658134           90           90           90 
  399000    220.62706   -161.64437   -133.95312   -161.64437            0    2668.6854    20.115786    20.244734      20.6011            0            0            0    8389.5658    3836.4837    740.36664     3429.206    -215.7119    51.806567    23.463638    20.115786    20.244734      20.6011           90           90           90 
  399500    234.06824   -160.90381   -131.52553   -160.90381            0    5902.7159    20.191729    20.233542    20.389779            0            0            0    8330.2486    5517.2079    3950.7298    8240.2101    1147.4531     -1951.27    181.96895    20.191729    20.233542    20.389779           90           90           90 
  400000    235.43721   -162.11232   -132.56222   -162.11232            0    2143.2951    20.361301    20.209872    20.273145            0            0            0    8342.3844    2362.9626    1499.9329    2566.9897    55.072338   -1941.3225    1743.5225    20.361301    20.209872    20.273145           90           90           90 
Loop time of 2425.81 on 1 procs for 400000 steps with 972 atoms

Performance: 7.123 ns/day, 3.369 hours/ns, 164.893 timesteps/s
70.6% CPU use with 1 MPI tasks x 1 OpenMP threads

MPI task timing breakdown:
Section |  min time  |  avg time  |  max time  |%varavg| %total
---------------------------------------------------------------
Pair    | 2159.9     | 2159.9     | 2159.9     |   0.0 | 89.04
Bond    | 0.072131   | 0.072131   | 0.072131   |   0.0 |  0.00
Neigh   | 236.85     | 236.85     | 236.85     |   0.0 |  9.76
Comm    | 9.7442     | 9.7442     | 9.7442     |   0.0 |  0.40
Output  | 2.0258     | 2.0258     | 2.0258     |   0.0 |  0.08
Modify  | 15.782     | 15.782     | 15.782     |   0.0 |  0.65
Other   |            | 1.432      |            |       |  0.06

Nlocal:        972.000 ave         972 max         972 min
Histogram: 1 0 0 0 0 0 0 0 0 0
Nghost:        4589.00 ave        4589 max        4589 min
Histogram: 1 0 0 0 0 0 0 0 0 0
Neighs:         0.00000 ave           0 max           0 min
Histogram: 1 0 0 0 0 0 0 0 0 0
FullNghs:      243646.0 ave      243646 max      243646 min
Histogram: 1 0 0 0 0 0 0 0 0 0

Total # of neighbors = 243646
Ave neighs/atom = 250.66461
Ave special neighs/atom = 0.0000000
Neighbor list builds = 40000
Dangerous builds not checked

unfix		3
unfix		2

write_data	data.final.${pid}
write_data	data.final.0
System init for write_data ...

write_restart   restart.lmp.${pid}
write_restart   restart.lmp.0
System init for write_restart ...
Total wall time: 0:40:29
