LAMMPS data file via write_data, version 29 Sep 2021, timestep = 400000

1008 atoms
2 atom types

0.1382151587495084 18.261339841250837 xlo xhi
-0.14360384960225225 22.713992849600892 ylo yhi
0.13935620885111888 19.366359791149762 zlo zhi
0.1862726906492657 -7.200127556815562 0.07357028579283262 xy xz yz

Masses

1 1.008
2 15.999

Atoms # full

1 0 1 0 6.534795686985419 0.9360576143987065 5.068082378899638 0 0 0
2 0 2 0 6.576374374631398 1.7786180848549982 5.635634714669486 0 0 0
3 0 2 0 5.596670876786017 0.768778601012483 5.017792048176886 0 0 0
4 0 1 0 3.899522154165841 0.7606278025310597 4.852507718718597 0 0 0
5 0 2 0 3.02721400515171 0.3160162080802743 4.876686884152172 0 0 0
6 0 2 0 3.6901846030007786 1.5145487558930983 4.178950594662644 0 0 0
7 0 1 0 -0.6247377056374439 6.286836472991045 4.972961968775766 0 0 0
8 0 2 0 -0.6725448001135517 6.083619950474069 5.932291346395455 0 0 0
9 0 2 0 -0.7622243772171112 5.4377027388368475 4.543452191886949 0 0 0
10 0 1 0 2.1778652368412335 6.405528683730085 4.527267690824872 0 0 0
11 0 2 0 2.28429847455339 5.730907832572669 5.265004539420962 0 0 0
12 0 2 0 1.2953411548884637 6.78520809765426 4.645815166740315 0 0 0
13 0 1 0 4.850065814808813 4.584338159059716 9.632557724968276 0 0 0
14 0 2 0 3.9633634598713106 4.193571524859017 9.66972151417893 0 0 0
15 0 2 0 4.678584252301604 5.308846530124252 10.225812574775732 0 0 0
16 0 1 0 5.507881626566093 4.753999845860102 0.29500107709635365 0 0 0
17 0 2 0 6.4325115990355615 4.427318979213162 0.2776595502717549 0 0 0
18 0 2 0 4.82051414367608 4.099829956300831 0.20551525718647973 0 0 0
19 0 1 0 0.810047320812351 2.354699681421489 0.21635514370125739 0 0 0
20 0 2 0 -6.399994133632168 1.5970927396078962 18.911770861402182 0 0 -1
21 0 2 0 0.6712354839529138 2.010599318517703 1.1493048327224646 0 0 0
22 0 1 0 0.10764369987626621 2.719273731142972 9.576070981785652 0 0 0
23 0 2 0 0.2684611077070662 2.10421907295624 10.312538962177317 0 0 0
24 0 2 0 0.6776633513428765 3.4620785577346282 9.62633129280563 0 0 0
25 0 1 0 4.632221173221334 6.197144493168374 7.486898894336857 0 0 0
26 0 2 0 4.797185042628915 5.719558903572062 6.671770859504196 0 0 0
27 0 2 0 4.758714959809623 5.596266356108772 8.25102481840036 0 0 0
28 0 1 0 5.574125049039674 6.2411896102362014 2.6703892058927066 0 0 0
29 0 2 0 5.108497862462155 7.015177465800328 2.2924164313955653 0 0 0
30 0 2 0 5.6570374128234615 5.662365444231768 1.8293142490373062 0 0 0
31 0 1 0 1.1689884168464366 1.0748481242397194 2.5220652862575768 0 0 0
32 0 2 0 1.0231817987484355 1.4624407700367004 3.4192715448440305 0 0 0
33 0 2 0 0.49281327709937195 0.3530062896931837 2.5047887019644866 0 0 0
34 0 1 0 -0.17302835845924447 1.3053151924680424 7.200211401713466 0 0 0
35 0 2 0 0.06547613704286048 1.8134826364729624 7.9740452954325045 0 0 0
36 0 2 0 -1.0969406035730835 1.0582158812245503 7.411443288854445 0 0 0
37 0 1 0 6.554127880162308 2.2074633168548647 2.3344152046125153 0 0 0
38 0 2 0 6.588922693313855 1.720582695875327 1.4616083608178012 0 0 0
39 0 2 0 6.7386041258151534 1.5522295014745116 3.000210522957936 0 0 0
40 0 1 0 3.965211452547551 2.469804835930651 7.211434702990309 0 0 0
41 0 2 0 3.660663624539406 1.8871372996797753 6.525572294788207 0 0 0
42 0 2 0 4.019424168140245 1.8270881990993149 7.871223709678652 0 0 0
43 0 1 0 -0.4909926266008422 4.942574759982314 7.461400643142882 0 0 0
44 0 2 0 -0.5397447497795334 5.286666681013387 8.39519983780232 0 0 0
45 0 2 0 0.45951101476851663 4.806085074798916 7.280892923596824 0 0 0
46 0 1 0 1.7926375096485723 4.60875074454083 2.3804990537689554 0 0 0
47 0 2 0 1.966684556436683 5.119552422772153 1.5613386590100835 0 0 0
48 0 2 0 1.8752128172624682 5.218974415348483 3.1158010724358074 0 0 0
49 0 1 0 6.521570701192081 3.3349546486959394 6.368821519355995 0 0 0
50 0 2 0 5.854189873202142 2.9222021595649412 6.940761580533583 0 0 0
51 0 2 0 5.940935086530271 3.8806562393487423 5.71862426766178 0 0 0
52 0 1 0 4.011814277522517 2.9012969810039024 3.2673414573604744 0 0 0
53 0 2 0 4.8401489836690725 2.695260248652112 2.764815918829687 0 0 0
54 0 2 0 3.363138216294979 3.492850565360908 2.829791595034075 0 0 0
57 0 2 0 0.06689704022718135 4.11507614545736 2.7620690135236785 0 0 0
58 0 1 0 2.0424228893316023 4.495764217108512 6.6963150020482045 0 0 0
59 0 2 0 1.7098706131734 3.889009089093678 5.99171386513121 0 0 0
60 0 2 0 2.684034726034969 3.9183172565605457 7.187397832140997 0 0 0
61 0 1 0 8.426322237214938 7.215221274323119 1.6859200003174097 0 0 0
62 0 2 0 7.883749306436185 7.829828974732444 1.1543109407810315 0 0 0
63 0 2 0 7.990519441894582 7.014636277394138 2.52034605600962 0 0 0
64 0 1 0 1.9844687972080557 7.044093162828437 8.653567688583124 0 0 0
65 0 2 0 2.5359206783623365 7.717755311496535 9.098602751801032 0 0 0
66 0 2 0 2.444952880247205 6.7713330051337 7.784744669175968 0 0 0
67 0 1 0 -2.7266341704662933 0.47860191879525615 8.44718260055928 0 0 0
69 0 2 0 -3.02394983775799 1.1790334950499748 9.017101503977555 0 0 0
70 0 1 0 3.7063460209150283 0.27979851034496195 1.609073733916323 0 0 0
71 0 2 0 2.8262363270185737 0.4948127655855666 1.9910896658101307 0 0 0
72 0 2 0 4.2702747261997445 -0.1254963022505408 2.2418892327103235 0 0 0
73 0 1 0 4.939259951931419 5.020946911982393 4.912317354410334 0 0 0
74 0 2 0 4.379960172890732 4.3490620060515095 4.532854501172977 0 0 0
75 0 2 0 5.153886000525271 5.621641959056197 4.182515974559008 0 0 0
76 0 1 0 0.8944297012924984 2.6056259261574746 5.17149826979278 0 0 0
77 0 2 0 0.39044967588915647 2.152701600631589 5.8943352045330535 0 0 0
78 0 2 0 0.23152400982308374 2.991865125883847 4.566832154332177 0 0 0
79 0 1 0 -0.1683530936624722 1.0180693532654728 19.15941403518453 0 0 -1
80 0 2 0 -0.8334099295037838 0.5295746950193366 18.61183202920707 0 0 -1
81 0 2 0 7.464164028943945 0.19104449542876928 0.4584799133311636 0 0 0
82 0 1 0 2.434423140379575 6.227129981897486 0.267133465108447 0 0 0
83 0 2 0 -5.326288629597222 7.012356397331233 19.157355512056654 0 0 -1
84 0 2 0 -4.630099899184961 5.742312193525781 18.686682655173765 0 0 -1
86 0 2 0 15.677927872555342 1.357830502505729 3.8668003266865116 0 0 0
87 0 2 0 14.594875296621838 1.0210238283210826 4.858359710614646 0 0 0
88 0 1 0 12.742543400847696 0.9566883174625576 4.989029435060319 0 0 0
89 0 2 0 12.315303082081186 0.09614551068112909 4.877586738310195 0 0 0
90 0 2 0 12.494540837814894 1.310884598710052 5.83591340453256 0 0 0
91 0 1 0 8.152761160168609 6.631252553187837 4.998749165965066 0 0 0
92 0 2 0 7.434756059767865 7.311424906685333 4.847244569960792 0 0 0
93 0 2 0 7.907616574492342 5.869915110634752 4.476646985177821 0 0 0
94 0 1 0 10.939713080594816 6.443859654463939 4.7873491813590325 0 0 0
95 0 2 0 10.029355659455327 6.769483439064189 4.916952722685557 0 0 0
96 0 2 0 11.460793200062113 7.25449029413257 4.832073136561059 0 0 0
98 0 2 0 14.222511341937835 5.821697384315837 8.57259347404488 0 0 0
100 0 1 0 14.553785307299293 4.860846149177861 0.418707103231607 0 0 0
101 0 2 0 15.374701716776713 4.387453207379766 0.3207453117888319 0 0 0
102 0 2 0 7.3456991760547865 5.6495059040933135 18.97889066786237 0 0 -1
103 0 1 0 9.964933923861912 2.478017146461967 0.3540887363745081 0 0 0
104 0 2 0 9.406579796820322 3.279958950293882 0.3840533191744927 0 0 0
105 0 2 0 10.850667152827562 2.84306823960132 0.43193506908553203 0 0 0
106 0 1 0 9.436495807611342 2.767154992202815 9.86388631785875 0 0 0
107 0 2 0 9.546724352703151 2.3780640631784706 8.99988807014939 0 0 0
108 0 2 0 9.435249559509213 1.9755040275408293 10.433322911511752 0 0 0
109 0 1 0 13.67447851243331 6.7003136439588 6.894621065474715 0 0 0
110 0 2 0 13.664047621164668 6.329614049677498 6.009311902660067 0 0 0
111 0 2 0 12.775291335625933 6.947178283013179 7.1247496315808005 0 0 0
112 0 1 0 14.814883205241928 6.465155992995271 2.6296793249288166 0 0 0
113 0 2 0 14.616860786576245 5.943008208388698 3.4303485096501984 0 0 0
114 0 2 0 14.73501292210475 5.824207868312599 1.9220891546590424 0 0 0
115 0 1 0 10.17685417240126 0.8273440316929681 2.4736388846348403 0 0 0
116 0 2 0 11.128323280719998 0.5956975052273699 2.447540447495859 0 0 0
117 0 2 0 9.959376831221551 1.4466908456736853 1.7509761942506588 0 0 0
118 0 1 0 8.892118318879739 1.392618753313911 7.362343147350454 0 0 0
119 0 2 0 8.817378706315939 1.6851755250532552 6.44059141857264 0 0 0
120 0 2 0 9.56782782742424 0.6923828668750701 7.3580433997180865 0 0 0
121 0 1 0 15.41162193037378 2.633114784239267 2.3291685734509673 0 0 0
122 0 2 0 15.406426491343122 1.9846622839254269 1.5766128231166798 0 0 0
123 0 2 0 14.520251411896247 2.949795914416711 2.4933827470825807 0 0 0
124 0 1 0 13.151529849797253 2.571894610154797 7.309948265431395 0 0 0
125 0 2 0 12.508316662747516 3.2343503272602767 6.928689110991768 0 0 0
126 0 2 0 14.033191353868311 2.8729690978770184 7.153064359378349 0 0 0
127 0 1 0 8.708969213380838 4.868522313644402 7.499051850807367 0 0 0
128 0 2 0 8.612668788304338 5.499757973699564 6.760693904100376 0 0 0
129 0 2 0 7.925331931866804 4.276294554226513 7.339813898682469 0 0 0
130 0 1 0 10.580776248516864 5.030377804002295 2.377337359026482 0 0 0
131 0 2 0 9.78271568720038 4.569048798524513 2.7632790554940554 0 0 0
132 0 2 0 10.694960281860798 5.83265522325459 2.903687488100194 0 0 0
135 0 2 0 -1.7225318482070002 3.9095043074222193 7.00172239166832 1 0 0
136 0 1 0 12.691323973500756 3.3410552241070204 3.19258525442782 0 0 0
137 0 2 0 11.943550396082237 3.7878081231755476 2.7659164153529696 0 0 0
138 0 2 0 12.357231600962482 2.534457632810569 3.585385136077569 0 0 0
139 0 1 0 8.170805593711005 4.230058207094417 3.645023011447316 0 0 0
140 0 2 0 7.610193598656856 3.6775958524903465 3.0276755865493743 0 0 0
141 0 2 0 8.519883950381221 3.489242953028514 4.141227291208475 0 0 0
142 0 1 0 11.252858006198286 3.9185537081846893 6.185337540387963 0 0 0
143 0 2 0 11.38797284132034 4.717257612595208 5.659694788290332 0 0 0
144 0 2 0 10.446127921940858 4.112610750759517 6.711713279408583 0 0 0
147 0 2 0 17.016003682386884 7.535799859526763 1.0307523300748183 0 0 0
148 0 1 0 11.012195936883673 7.373183868243984 8.453410379280948 0 0 0
149 0 2 0 10.888031220823585 6.426398733994525 8.475311345152777 0 0 0
150 0 2 0 10.214430991740002 7.739826232872086 8.089664325512487 0 0 0
151 0 1 0 6.314014044313117 0.7398739693223191 8.28801335108743 0 0 0
152 0 2 0 7.149876660770183 0.82060214047857 7.762541523063058 0 0 0
153 0 2 0 6.427695137537084 1.3242611574715282 9.023671449261341 0 0 0
154 0 1 0 12.625907429281984 0.45878740910427496 1.6795118094077452 0 0 0
155 0 2 0 12.697909328410482 1.274752208052499 1.1849403649424841 0 0 0
156 0 2 0 12.519433571349124 22.610612749987904 1.0877529508194723 0 -1 0
157 0 1 0 14.289749166837183 5.024950461659096 4.828247980887838 0 0 0
158 0 2 0 13.780348029835297 4.3617239573299615 4.3853945642552095 0 0 0
159 0 2 0 14.824824062113988 4.615383028427698 5.54665020748969 0 0 0
160 0 1 0 9.624209037792431 2.2276314446641563 4.676277240523425 0 0 0
161 0 2 0 10.404494628605699 2.7288865466247887 4.885260091571976 0 0 0
162 0 2 0 9.880357327054348 1.5885464590579492 3.997210296988153 0 0 0
163 0 1 0 8.737143080175823 0.8802695878602842 19.3556183666279 0 0 -1
164 0 2 0 9.250814219183276 1.3270751956051057 18.639383773834776 0 0 -1
165 0 2 0 8.077750232156916 0.3540886250121864 18.834562695706303 0 0 -1
166 0 1 0 11.650843130318762 6.192172400442471 0.2689606720411174 0 0 0
167 0 2 0 11.091385467851397 5.775047789528312 0.9805065236362929 0 0 0
168 0 2 0 3.936713136902455 7.015451169067272 19.076571060041157 0 0 -1
169 0 1 0 6.365646181562266 8.515965584483355 4.4655233457984265 0 0 0
170 0 2 0 5.446411742864174 8.387442492126176 4.668244108244168 0 0 0
171 0 2 0 6.4828716078959605 9.337165852985533 4.961008654129628 0 0 0
172 0 1 0 3.7075090499201524 8.82943848223797 4.991029807255424 0 0 0
173 0 2 0 3.0709782614863133 8.152152491429007 4.710391410163161 0 0 0
174 0 2 0 3.665949790533059 9.43495091661922 4.284382674959591 0 0 0
175 0 1 0 -0.6622661451742924 13.793853372042125 4.9667392835673505 0 0 0
176 0 2 0 -1.1062968742516186 14.654175512467766 4.999972282299447 0 0 0
177 0 2 0 0.2887678159631606 13.940628694773865 4.8695510173980745 0 0 0
178 0 1 0 1.975452902692209 13.935125418387958 4.891323206869643 0 0 0
179 0 2 0 1.8948306348921466 13.227795790500885 5.529328147858114 0 0 0
180 0 2 0 2.095281436172466 13.515144526761508 3.995557768620904 0 0 0
181 0 1 0 4.716829314233643 12.418236383990006 9.552280639955063 0 0 0
182 0 2 0 5.0530999115873225 13.094045128109506 10.198099958020851 0 0 0
183 0 2 0 5.415879609144245 11.699384932102463 9.638598046920151 0 0 0
184 0 1 0 5.597765715057545 12.607656933303804 0.22951546324533195 0 0 0
185 0 2 0 -1.5273540854547702 13.346141560268066 18.76502695194927 0 0 -1
186 0 2 0 6.52634335927985 12.248811813996223 0.2946214986512782 0 0 0
187 0 1 0 -5.985016643380776 10.520227857385088 19.353968826623458 0 0 -1
188 0 2 0 1.1887414326033796 9.898788865930507 0.9120602326523011 0 0 0
189 0 2 0 -5.121345595195068 10.785010942483495 19.2067841725868 0 0 -1
190 0 1 0 0.2922851635043209 10.543455128422515 9.587455200589313 0 0 0
191 0 2 0 0.4982313409604946 10.186076005925907 8.671485615157549 0 0 0
192 0 2 0 0.9212782854483645 11.25314587191877 9.851991066529903 0 0 0
193 0 1 0 4.511462271380614 13.804975964692225 7.030290629502934 0 0 0
194 0 2 0 4.597374804156263 13.219800802690951 6.240563060188514 0 0 0
195 0 2 0 4.576103146686844 13.23677795997043 7.826058094176186 0 0 0
196 0 1 0 5.6098875082321005 13.996198045912799 2.6527766381894704 0 0 0
197 0 2 0 5.556624843175436 13.29621573194451 1.98345162580735 0 0 0
198 0 2 0 5.6252542558520915 13.496290368035599 3.5043156679220466 0 0 0
199 0 1 0 1.2950993304856402 8.763883190054456 2.5059958949259484 0 0 0
200 0 2 0 0.609768357059537 8.056603522753761 2.3173241340192345 0 0 0
201 0 2 0 2.1225713260929115 8.267519544831831 2.3029729000714876 0 0 0
202 0 1 0 -0.026969398965267732 8.694657845570733 7.3247335819453046 0 0 0
203 0 2 0 -0.9546688355996085 8.291736892949386 7.466415045967352 0 0 0
204 0 2 0 0.5447242376508417 8.108776451376816 7.824642688072915 0 0 0
205 0 1 0 6.6661333717444045 10.45183292613924 2.1331669730914067 0 0 0
206 0 2 0 6.556952412966542 9.79048222718505 2.8008533574998533 0 0 0
207 0 2 0 7.300155421239286 11.17120816931412 2.4528453034421602 0 0 0
208 0 1 0 4.057909537270129 9.97442269329104 7.531577533054076 0 0 0
209 0 2 0 3.5932967650650003 10.743063835791185 7.188253405982543 0 0 0
210 0 2 0 3.936381213766825 9.373405425438987 6.813168482727262 0 0 0
211 0 1 0 -0.3831330284899841 12.470886439364127 7.549560410138455 0 0 0
212 0 2 0 -0.6536891499636255 13.009397791412173 8.307673390757085 0 0 0
213 0 2 0 -0.4242052418045925 13.098220574582175 6.805171893441996 0 0 0
214 0 1 0 1.756189528472295 12.62688070258404 2.388507019570619 0 0 0
215 0 2 0 1.8134283328823058 12.921464649803296 1.4820052190660418 0 0 0
216 0 2 0 0.8308917776893106 12.400039678878665 2.4483423180004302 0 0 0
217 0 1 0 6.652466864785369 10.580353904574933 6.417875877622789 0 0 0
218 0 2 0 5.907432741355674 10.285324609652708 6.950258733975855 0 0 0
219 0 2 0 7.283435563381323 11.021646853985898 7.0275671488721265 0 0 0
220 0 1 0 3.8117621952274625 10.874602982760951 3.0869766249507578 0 0 0
221 0 2 0 4.367400398926842 10.64829730128105 2.3677887080974065 0 0 0
222 0 2 0 3.096007600549076 11.451181916796498 2.718315862007203 0 0 0
223 0 1 0 -0.8308813529089867 11.454989586374701 3.173541376119427 0 0 0
224 0 2 0 -0.3197077945832574 10.838145088363273 3.7624633013833626 0 0 0
225 0 2 0 -0.872437688763787 12.292542818169071 3.7062400999840235 0 0 0
226 0 1 0 2.087557561327361 11.651731586386742 6.433988652646 0 0 0
227 0 2 0 1.4854525497758342 12.030021301543334 7.066315279034584 0 0 0
228 0 2 0 1.5167317571347665 11.202469678410704 5.782473667857402 0 0 0
229 0 1 0 8.191816920807618 14.7971374308647 1.886052242256812 0 0 0
230 0 2 0 7.444211656760721 14.43901147906781 2.3952486842129304 0 0 0
231 0 2 0 8.85645685640326 15.161990741955734 2.533074301177557 0 0 0
232 0 1 0 2.130883150792001 14.607980482867045 8.050631882786035 0 0 0
233 0 2 0 2.9379869895762414 14.575811496104446 7.511429307415088 0 0 0
234 0 2 0 1.493125501404052 15.11443543010847 7.511258442649693 0 0 0
235 0 1 0 -2.4414406612651027 7.857313951018822 8.408824139770399 0 0 0
237 0 2 0 -2.6854385444784867 8.692242931527886 8.847992525855243 0 0 0
238 0 1 0 3.958621240954311 8.106881780874804 1.4149473648583255 0 0 0
239 0 2 0 4.111643551576375 8.959141627953489 0.9851889643197141 0 0 0
240 0 2 0 3.6467406723895426 7.43063295023491 0.8109158349863359 0 0 0
241 0 1 0 5.44429834840301 12.298588751859297 4.702583985066638 0 0 0
242 0 2 0 5.981841808129305 11.774377416667173 5.302600870060021 0 0 0
243 0 2 0 4.8264759249673785 11.70215098141925 4.274389916533814 0 0 0
244 0 1 0 0.47142784776623925 9.729208565504965 4.963988048270425 0 0 0
245 0 2 0 0.9178947470154875 9.229471220012263 4.24872429193583 0 0 0
246 0 2 0 0.28247018929706424 9.09220414598849 5.68943576867113 0 0 0
247 0 1 0 -0.16824078504609385 8.827774117551447 19.29745157767166 0 0 -1
248 0 2 0 6.708559934141199 9.43082257850202 0.623170196663923 0 0 0
249 0 2 0 -0.9001491242494035 8.299404000667828 18.96830324266413 0 0 -1
250 0 1 0 2.571476888154795 13.606652865666721 0.19184776743033452 0 0 0
251 0 2 0 -5.1008492421844815 14.43969993079835 19.08020515362246 0 0 -1
252 0 2 0 3.2400572569705193 14.090262585408025 0.7324981045707573 0 0 0
255 0 2 0 15.824600882595842 8.94305181919215 4.308130162755126 0 0 0
256 0 1 0 12.582530745538735 8.823328031046255 4.866498843449056 0 0 0
257 0 2 0 13.441846625772161 8.3710908951722 4.845180565445384 0 0 0
258 0 2 0 12.598047386020593 9.250258310183726 5.720620101003666 0 0 0
259 0 1 0 8.116634934459555 14.387074716952995 5.092842798164367 0 0 0
260 0 2 0 9.038199716560085 14.625559786036197 5.129308205356621 0 0 0
261 0 2 0 8.044006437772634 13.582135928895829 4.551638026416621 0 0 0
262 0 1 0 11.399240549515035 14.145070850188516 4.854201407758148 0 0 0
263 0 2 0 11.323246402864278 13.885268911397965 3.9716638574794936 0 0 0
264 0 2 0 11.972210143655426 14.952919729962305 4.923282662571022 0 0 0
268 0 1 0 7.917320367631788 12.448198937890616 19.13043614837966 0 0 -1
269 0 2 0 14.96508709493808 12.74915193864767 0.7872091960613528 0 0 0
270 0 2 0 7.167051252429875 11.856275129503912 18.96465928663023 0 0 -1
271 0 1 0 3.241481754849869 10.786500699499037 19.338809219457257 0 0 -1
272 0 2 0 11.436045536959393 10.92054383787625 0.24256430071666513 0 0 0
273 0 2 0 10.22692027621241 10.241873793397902 0.9270441409886478 0 0 0
274 0 1 0 9.573512516969272 10.290838147425818 9.87794157646217 0 0 0
275 0 2 0 10.177642653619484 11.102613861266486 9.795027883944691 0 0 0
276 0 2 0 9.596900801884201 9.798086507470693 9.07739894893483 0 0 0
277 0 1 0 13.672707673816957 13.747247962090148 7.219780591204102 0 0 0
279 0 2 0 12.860614972278787 14.299839767880222 7.229138462847015 0 0 0
280 0 1 0 15.089349322445342 13.599989060956895 2.3177693214805957 0 0 0
281 0 2 0 15.064748567087662 13.099753161687444 3.134902876468283 0 0 0
282 0 2 0 15.960394522645963 13.980247282338345 2.3321742246383383 0 0 0
283 0 1 0 10.215780728855828 9.059095502725755 2.614439263418579 0 0 0
284 0 2 0 9.618342028568772 8.351327548076398 2.322642795442676 0 0 0
285 0 2 0 11.133481688269738 8.82193923389702 2.3797170173059077 0 0 0
286 0 1 0 9.000294878277582 8.829880462123675 7.672689656456314 0 0 0
287 0 2 0 8.063350963842291 8.658166654958038 7.728878206427282 0 0 0
288 0 2 0 9.067802071368114 9.040100356128233 6.692413083982413 0 0 0
289 0 1 0 15.292675298965962 9.838530262873329 2.7518156898279407 0 0 0
290 0 2 0 15.943725801195537 10.584215648612759 2.748518257959135 0 0 0
291 0 2 0 14.415409703317446 10.307964480291071 2.650349986191328 0 0 0
292 0 1 0 13.12854488117036 10.259806521747478 7.2395090763247065 0 0 0
293 0 2 0 14.050847812305587 10.493093949333371 7.101952065149716 0 0 0
294 0 2 0 13.160283726751587 9.748868822851225 8.02479212850097 0 0 0
295 0 1 0 8.424087375252395 12.366677559591244 7.309248746584754 0 0 0
296 0 2 0 8.185229223491033 13.066293023967148 6.715289944211315 0 0 0
297 0 2 0 9.277232426824366 12.001305151646273 7.0134269049394105 0 0 0
298 0 1 0 10.92140335908767 12.713197583327494 2.5423699251298717 0 0 0
299 0 2 0 11.059202748496201 12.86577355477901 1.5980991621578489 0 0 0
300 0 2 0 11.522696498653698 11.94756051815957 2.710170939664208 0 0 0
303 0 2 0 -1.4638121172348166 11.16045829553135 7.004362727657068 1 0 0
304 0 1 0 12.737915917733261 10.992323046773793 3.2976968537680458 0 0 0
305 0 2 0 12.59736621438532 10.167417269775788 3.8195908454603176 0 0 0
306 0 2 0 13.369600580446043 11.449516747548442 3.891888577176888 0 0 0
307 0 1 0 8.297298176185487 12.119066330104038 3.5396108857660398 0 0 0
308 0 2 0 9.166961636563077 12.298768930411986 3.155582286940437 0 0 0
309 0 2 0 8.409796654277862 11.487777031436005 4.303915858099574 0 0 0
310 0 1 0 10.896493990090777 11.602362792507046 6.374189794459871 0 0 0
311 0 2 0 11.712759925699068 11.271709688586087 6.8380729899211055 0 0 0
312 0 2 0 11.158437152171796 12.487843398121386 6.033467599166605 0 0 0
314 0 2 0 0.21364371579526042 15.204120472998516 2.0715096227998755 1 0 0
316 0 1 0 11.25831493564636 14.729557620588714 8.0398159278753 0 0 0
317 0 2 0 11.136131568229708 13.936104166905293 8.597651754620143 0 0 0
318 0 2 0 11.663041626953982 15.336334564638888 8.70003650623258 0 0 0
319 0 1 0 6.574124412147379 7.87068535179114 8.394851883180715 0 0 0
320 0 2 0 7.015678179712282 7.172241915393715 8.901768206097527 0 0 0
321 0 2 0 6.0022038157176265 7.389588760321186 7.747832903952451 0 0 0
322 0 1 0 12.749309588542753 8.229376825927108 1.5279295263260109 0 0 0
323 0 2 0 12.565668688831217 7.5231655076005 0.9098039842482168 0 0 0
324 0 2 0 13.42786484402982 7.750254234438654 2.046448168585835 0 0 0
325 0 1 0 14.567395494952878 12.40786788129837 4.811905516573599 0 0 0
326 0 2 0 15.098509720716253 11.857843380866374 5.36569114239562 0 0 0
327 0 2 0 14.075779203589281 12.949332638469633 5.3895860316131445 0 0 0
328 0 1 0 9.267231315754175 9.887338524271122 5.090209372778928 0 0 0
329 0 2 0 9.721339553971655 9.487355989022815 4.3631498907312425 0 0 0
330 0 2 0 9.86250841993027 10.45935512365544 5.585477978753015 0 0 0
331 0 1 0 8.933889129093828 8.864063742347248 19.32106928282899 0 0 -1
332 0 2 0 15.851130843059941 9.281673958903518 0.8635512096564686 0 0 0
333 0 2 0 9.116510832162906 9.470978636040332 18.582778254423687 0 0 -1
334 0 1 0 4.342236741969937 13.613392432913045 19.238237489749167 0 0 -1
335 0 2 0 4.835486829713205 13.154695326632146 18.560474534885326 0 0 -1
336 0 2 0 3.7705109266776864 14.203892485806236 18.76516464280946 0 0 -1
337 0 1 0 6.06279973288194 16.12835093435873 5.2265983083444745 0 0 0
338 0 2 0 6.740542755061979 15.408718887543717 5.243130161017141 0 0 0
339 0 2 0 6.173231420229452 16.63390599805784 4.382651412078636 0 0 0
340 0 1 0 3.461268773315026 16.29069590022642 5.195291590594027 0 0 0
341 0 2 0 2.9715945101318053 15.537645023948523 4.842093111787393 0 0 0
342 0 2 0 4.344055125784102 15.936555044068268 5.35375042451429 0 0 0
343 0 1 0 -0.7593231936261897 21.64992267156454 5.314999599657596 0 0 0
344 0 2 0 -0.7297471516296448 21.252175603113727 6.196135967090191 0 0 0
345 0 2 0 -1.4025023812992963 22.37908119950163 5.395650375268559 0 0 0
346 0 1 0 2.0652048405892103 21.67288711740442 4.531504383026147 0 0 0
347 0 2 0 2.3183265445463985 21.07244423892215 5.224248837678433 0 0 0
348 0 2 0 1.1479786056656136 21.79131010861726 4.765627237429981 0 0 0
349 0 1 0 5.025679976466184 20.007995478778042 9.368521592965347 0 0 0
350 0 2 0 5.057050173577011 20.485196022773472 10.216503132877866 0 0 0
351 0 2 0 5.058278771857035 20.70754915716093 8.68812501083117 0 0 0
352 0 1 0 5.873352045761074 20.273800458759453 0.29457548658302085 0 0 0
353 0 2 0 5.35969209273008 19.462069103134798 0.3504117393713919 0 0 0
354 0 2 0 5.62779167871578 20.705803342978935 1.165792805893702 0 0 0
355 0 1 0 1.2757285873808546 17.79974238097605 0.21558073111606807 0 0 0
356 0 2 0 1.1369498596288499 17.46646450678952 1.1229020479964396 0 0 0
357 0 2 0 -6.068322921254731 17.0881374514004 18.91013277646617 0 0 -1
358 0 1 0 0.2933376125928495 18.025480664882156 9.517131458940918 0 0 0
359 0 2 0 0.4319383911726824 17.41062423758544 10.22952180808945 0 0 0
360 0 2 0 1.0089718117906692 18.703032498379095 9.488641269533433 0 0 0
361 0 1 0 4.79912468825782 21.770277468742254 7.460443267431393 0 0 0
362 0 2 0 5.408344028683266 22.49729404096017 7.497794252465273 0 0 0
363 0 2 0 3.955487832001283 22.05183165866579 7.164251752403004 0 0 0
364 0 1 0 5.715188697443239 21.576201469094542 2.9032050545240176 0 0 0
365 0 2 0 6.694395879468626 21.655765903445754 2.8935815298424257 0 0 0
366 0 2 0 5.494946561714954 21.082280319343965 3.6939041235393923 0 0 0
367 0 1 0 1.2210377566200585 16.376449522999145 2.6144956172835707 0 0 0
368 0 2 0 2.106273965732421 16.02753378528701 2.4685358771731623 0 0 0
369 0 2 0 1.011953469973569 16.64017723266781 3.5178781085874933 0 0 0
370 0 1 0 0.29142172156247437 16.481021005786346 7.295215550940486 0 0 0
371 0 2 0 0.30142606035341 17.17699433373232 7.970857851416803 0 0 0
372 0 2 0 0.20081055134124526 16.928202051271697 6.433697682463085 0 0 0
373 0 1 0 6.097493194649493 17.744414373681828 2.925418195742685 0 0 0
374 0 2 0 6.276994169092717 17.55977235761612 1.968182257814231 0 0 0
375 0 2 0 5.163908825612766 18.053612186372348 2.9973439622547016 0 0 0
376 0 1 0 3.6044448808781233 17.824666570320918 7.410422459096657 0 0 0
377 0 2 0 3.3206595762733073 17.202522097400696 6.712041283403076 0 0 0
378 0 2 0 4.6092776710927605 17.889614640560826 7.242194770829902 0 0 0
379 0 1 0 -0.2777863609282236 20.03646915606981 7.569556286944586 0 0 0
380 0 2 0 -0.9799676413111802 19.472084033851367 7.254789282677494 0 0 0
381 0 2 0 -0.5787006656481783 20.3156315191912 8.436452236983408 0 0 0
382 0 1 0 1.889895272914674 20.12609179773586 2.2918706893244525 0 0 0
383 0 2 0 2.502751908100334 19.36888268975585 2.4482266975335576 0 0 0
384 0 2 0 2.0733281836183006 20.7849342039172 2.9927689885847553 0 0 0
385 0 1 0 6.481634253940141 18.24112684093059 6.723515866050406 0 0 0
386 0 2 0 7.228909121773958 18.690121904438975 7.124061039045771 0 0 0
387 0 2 0 6.792349649225708 17.43151692800702 6.349738820315813 0 0 0
388 0 1 0 3.7368898020497445 18.658092956482243 3.7563226751238834 0 0 0
389 0 2 0 3.656281455707422 17.838477601740692 4.22536619580583 0 0 0
390 0 2 0 4.142900125197409 19.22227875650854 4.422978991865924 0 0 0
391 0 1 0 -0.652673963340356 19.5665469805924 3.45584297449587 0 0 0
392 0 2 0 -0.04302814073151895 19.754315746605563 2.7673173348858024 0 0 0
393 0 2 0 -0.6279204228877291 20.4057806443024 3.9988878261343324 0 0 0
394 0 1 0 2.02407292317587 19.489952924313826 6.215813463483649 0 0 0
395 0 2 0 1.3940243469727909 19.600424426021164 6.913739345839514 0 0 0
396 0 2 0 2.7651265308634625 19.092832470580095 6.69011675801033 0 0 0
397 0 1 0 8.29070430052806 21.996001670129118 1.7444970031803817 0 0 0
398 0 2 0 8.531271375131544 21.19151115504297 1.1956083298658324 0 0 0
399 0 2 0 9.154449821687741 22.34747109765937 1.9826407447132233 0 0 0
400 0 1 0 2.1759201176800103 22.444200902411374 7.753854032634143 0 0 0
401 0 2 0 2.3762605650825392 0.17134066221217564 8.450662479250134 0 1 0
402 0 2 0 1.194997721272511 0.06528568675892338 7.487734957261763 0 1 0
403 0 1 0 -2.3584806473162123 15.506881450589288 7.822703824230808 0 0 0
404 0 2 0 -1.4652037118142258 15.765020813764432 7.629101616889482 0 0 0
405 0 2 0 -2.67375499303913 16.23709039184321 8.367451913125237 0 0 0
406 0 1 0 3.711744057345425 15.66023174559046 1.6643104037642575 0 0 0
407 0 2 0 4.536359253389091 15.384597658746076 2.111223939871819 0 0 0
408 0 2 0 3.9071119196449815 16.38776194881749 1.1035362304529808 0 0 0
409 0 1 0 5.210350366444296 20.232883458317627 5.207252941530941 0 0 0
410 0 2 0 5.751067808972665 19.481044504536133 5.599268717987974 0 0 0
411 0 2 0 5.000107608886868 20.839767169426278 5.96102221506119 0 0 0
412 0 1 0 0.6339606384432777 17.607380711536063 4.855038160306537 0 0 0
413 0 2 0 1.3560146260123862 18.107507488961375 5.325072805836521 0 0 0
414 0 2 0 0.227525235013897 18.33289721764857 4.3960256632421 0 0 0
415 0 1 0 7.219978360277579 16.89902096698024 0.527142132689381 0 0 0
416 0 2 0 7.681311050748273 16.148627494482664 1.0397434748247822 0 0 0
417 0 2 0 0.6263974305511901 17.146381754033975 19.01424624817699 0 0 -1
418 0 1 0 -4.260653044175529 21.32326566800517 19.10312620125368 0 0 -1
419 0 2 0 2.5166272285096043 20.595886963468317 0.43508326718650775 0 0 0
420 0 2 0 3.382460506891047 21.941725536793587 0.47284861793917204 0 0 0
424 0 1 0 12.983874746769585 16.407695778787026 5.11029205117585 0 0 0
425 0 2 0 13.962558871848618 16.129193853677847 5.000861977350187 0 0 0
426 0 2 0 12.824959633677219 16.943322604266328 4.334368975656862 0 0 0
427 0 1 0 8.15385976074154 21.54011180569156 5.514958025089376 0 0 0
428 0 2 0 7.69902751617408 22.410948089411722 5.352277680561778 0 0 0
429 0 2 0 7.985212390305144 20.995573454666626 4.776904121736852 0 0 0
430 0 1 0 10.947889741646005 21.587599757130516 4.878009291450372 0 0 0
431 0 2 0 10.874827264817888 21.171424713472693 4.031286614631918 0 0 0
432 0 2 0 10.019696396136538 21.821665940041132 5.14458631875059 0 0 0
435 0 2 0 12.617067416363914 19.713375726005232 9.579895385984283 0 0 0
436 0 1 0 14.956664660119957 19.828102521964787 0.4667140789624969 0 0 0
437 0 2 0 8.56562330116379 19.535487406739676 19.245344733482405 0 0 -1
438 0 2 0 14.303563079922178 19.095270659922726 0.3228798246473431 0 0 0
439 0 1 0 10.326511773264588 17.987736866892437 0.24385361312549964 0 0 0
440 0 2 0 11.312214569497996 18.124075524281103 0.28289967538538185 0 0 0
441 0 2 0 10.070669255546138 17.54476052083649 1.061740511949448 0 0 0
442 0 1 0 9.45061759843177 17.818278433164654 9.36671426508691 0 0 0