LAMMPS (29 Sep 2021 - Update 2)
  using 1 OpenMP thread(s) per MPI task
echo both

include		in.partitions
variable        pid world 0
include		in.temp
variable        temperature equal 240
variable        tempDamp equal 0.100 # this is 0.1 ps
include		in.pressure
variable        pressure equal 5066.25
variable        pressureDamp equal 1.0 #this is 1ps
include		in.seed
variable        seed world 745823

units           metal
atom_style	full
include		in.box
read_data       iceV.data
Reading data file ...
  triclinic box = (0.0000000 0.0000000 0.0000000) to (18.399555 22.570389 19.505716) with tilt (0.0000000 -6.7926110 0.0000000)
  1 by 1 by 1 MPI processor grid
  reading atoms ...
  1008 atoms
Finding 1-2 1-3 1-4 neighbors ...
  special bond factors lj:    0        0        0       
  special bond factors coul:  0        0        0       
     0 = max # of 1-2 neighbors
     0 = max # of 1-3 neighbors
     0 = max # of 1-4 neighbors
     1 = max # of special neighbors
  special bonds CPU = 0.000 seconds
  read_data CPU = 0.014 seconds
include 	in.setup
variable	out_freq equal 500
variable	out_freq2 equal 500

timestep        0.0005

neigh_modify    delay 7 every 1

include         in.deepmd
# This is deepMD model

# create groups ###
#group ox type 2
#group hy type 1

mass 2 15.999
mass 1 1.008

pair_style      deepmd ../graph.pb
pair_coeff      * *

bond_style      none
angle_style     none
dihedral_style  none
improper_style  none
neigh_modify exclude none


neighbor        2.0 bin
neigh_modify    every 10 delay 0 check no

thermo          ${out_freq}
thermo          500
thermo_style 	custom step temp pe etotal epair emol press lx ly lz xy xz yz vol pxx pyy pzz pxy pxz pyz

restart 	${out_freq} restart.lmp.${pid} restart2.lmp.${pid}
restart 	500 restart.lmp.${pid} restart2.lmp.${pid}
restart 	500 restart.lmp.0 restart2.lmp.${pid}
restart 	500 restart.lmp.0 restart2.lmp.0


include         in.dump
dump            myDump all atom ${out_freq2} dump.water.${pid}
dump            myDump all atom 500 dump.water.${pid}
dump            myDump all atom 500 dump.water.0
dump            myDump2 all dcd ${out_freq2} dump.dcd
dump            myDump2 all dcd 500 dump.dcd
dump_modify     myDump append yes
dump_modify     myDump2 append yes


timer           timeout 03:55:00 every 1000
New timer settings: style=normal  mode=nosync  timeout=03:55:00

fix             2 all nph tri ${pressure} ${pressure} ${pressureDamp}
fix             2 all nph tri 5066.25 ${pressure} ${pressureDamp}
fix             2 all nph tri 5066.25 5066.25 ${pressureDamp}
fix             2 all nph tri 5066.25 5066.25 1
fix             3 all temp/csvr ${temperature} ${temperature} ${tempDamp} ${seed}
fix             3 all temp/csvr 240 ${temperature} ${tempDamp} ${seed}
fix             3 all temp/csvr 240 240 ${tempDamp} ${seed}
fix             3 all temp/csvr 240 240 0.1 ${seed}
fix             3 all temp/csvr 240 240 0.1 745823
velocity 	all create ${temperature} ${seed} dist gaussian
velocity 	all create 240 ${seed} dist gaussian
velocity 	all create 240 745823 dist gaussian

run             400000

CITE-CITE-CITE-CITE-CITE-CITE-CITE-CITE-CITE-CITE-CITE-CITE-CITE

Your simulation uses code contributions which should be cited:

- USER-DEEPMD package:

@article{Wang_ComputPhysCommun_2018_v228_p178,
  author = {Wang, Han and Zhang, Linfeng and Han, Jiequn and E, Weinan},
  doi = {10.1016/j.cpc.2018.03.016},
  url = {https://doi.org/10.1016/j.cpc.2018.03.016},
  year = 2018,
  month = {jul},
  publisher = {Elsevier {BV}},
  volume = 228,
  journal = {Comput. Phys. Commun.},
  title = {{DeePMD-kit: A deep learning package for many-body potential energy representation and molecular dynamics}},
  pages = {178--184}
}

CITE-CITE-CITE-CITE-CITE-CITE-CITE-CITE-CITE-CITE-CITE-CITE-CITE

Neighbor list info ...
  update every 10 steps, delay 0 steps, check no
  max neighbors/atom: 2000, page size: 100000
  master list distance cutoff = 8
  ghost atom cutoff = 8
  binsize = 4, bins = 7 6 5
  1 neighbor lists, perpetual/occasional/extra = 1 0 0
  (1) pair deepmd, perpetual
      attributes: full, newton on
      pair build: full/bin
      stencil: full/bin/3d
      bin: standard
Per MPI rank memory allocation (min/avg/max) = 7.699 | 7.699 | 7.699 Mbytes
Step Temp PotEng TotEng E_pair E_mol Press Lx Ly Lz Xy Xz Yz Volume Pxx Pyy Pzz Pxy Pxz Pyz 
       0          240   -178.42725   -147.18766   -178.42725            0    35731.343    18.399555    22.570389    19.505716            0    -6.792611            0    8100.4335    35281.441    36478.789      35433.8   -448.27866    1247.8848    371.54935 
     500    237.22096   -167.32003   -136.44217   -167.32003            0    11477.888    18.048755    22.263196    19.291534 -0.028890169   -6.7692669 -0.0059673124    7751.7814    10224.809    12185.686    12023.171   -2593.9383   -18.557049   -251.31166 
    1000    241.41919   -167.21587   -135.79155   -167.21587            0    7403.2217    18.080793    22.650703    19.518638  -0.02684444    -6.907909  0.021740263    7993.7147    8509.1908    7946.7121     5753.762    1877.5221   -245.75016   -727.79616 
    1500    237.67293   -167.63991   -136.70322   -167.63991            0    16660.824    18.060347    22.681677    19.365184 -0.014564589   -6.9759063 0.0087232575    7932.7335    18727.024    14948.781    16306.667   -1121.5128    3224.9468   -360.14867 
    2000    236.81347     -165.588   -134.76319     -165.588            0   -840.40944    18.079544    22.663211    19.280828  0.010927603    -7.025947 -0.034603129    7900.1364    2914.2976   -486.17113   -4949.3548   -2.5051333    190.01934    29.142645 
    2500    246.19969   -166.13638   -134.08981   -166.13638            0    6453.1799    18.157741    22.841753    19.339283  0.012974834   -7.0752525 -0.050842255    8021.0572    6177.9819    5096.0746    8085.4832    1909.5721    557.15779    1250.0678 
    3000    248.56062    -165.8409   -133.48702    -165.8409            0    12428.898    17.964002    22.660484    19.226799  0.020016417   -7.0209466  0.022795876    7826.7104    10482.546    14088.966    12715.181   -733.47596   -32.538917    -1937.549 
    3500     236.0665   -166.28856   -135.56097   -166.28856            0    503.18097    18.076087    22.813944    19.400734  -0.04037852   -7.0456422   0.17499579    8000.6073    196.24434    2399.9875   -1086.6889    393.84488   -1132.7165   -3664.4291 
    4000    231.55548   -166.16467   -136.02426   -166.16467            0    6759.5647      18.1396    22.693722    19.300437  -0.16779897   -7.0188248   0.16984754    7945.1219    9513.6746     3650.498    7114.5215    1805.4874   -297.18491    696.30044 
    4500    234.24399   -166.39306    -135.9027   -166.39306            0     4303.475    18.169786     22.47839    19.223389  -0.23011054   -6.9509996  0.057344352    7851.3617    2201.2392    6366.4407     4342.745    2714.4505    157.13028    397.69244 
    5000    237.79533   -166.42629   -135.47367   -166.42629            0     2689.422    18.240995       22.602    19.455592 -0.088121837   -6.9261407 -0.021613769    8021.2089     2306.543    3565.3029      2196.42    481.86471    460.73528   -1745.8218 
    5500    239.47806   -167.49155   -136.31989   -167.49155            0    6226.8577    17.952592    22.435702    19.482137   0.16057441   -6.8471041  0.012503127    7846.9959    9208.6428    6698.4906    2773.4396   -265.47044   -187.61733    2159.4036 
    6000    243.30891    -166.8351    -135.1648    -166.8351            0     2844.546    18.020284    22.603087    19.504422    0.2747038   -6.8724238  0.098516526     7944.425     4039.471    2172.8271    2321.3399   -1933.1118   -478.04947   -610.93257 
    6500    233.09099   -166.47567   -136.13538   -166.47567            0    6228.1863    18.127732    22.820747    19.210084  0.081098506   -6.9508469  0.078011763    7946.9887    10293.896    1753.9217    6636.7415   -63.588358   -81.427454    927.43438 
    7000    251.30994   -166.34587   -133.63412   -166.34587            0     6295.163    18.223971    22.900569    18.986182  -0.25477762   -7.0149897  0.043713791    7923.6799    5444.5466    6119.3998    7321.5426    -1035.696   -1225.2888    145.17496 
    7500    242.78766   -165.86475   -134.26231   -165.86475            0    4037.6281    18.132415    22.854934    19.203647  -0.37487221   -7.0413256  0.061653417    7958.2821    4250.8412    2210.7913    5651.2517     124.6154    1593.2428   -1572.6959 
    8000    239.52816    -166.6704   -135.49222    -166.6704            0    7853.1932    17.909983    22.524655     19.57966   -0.1621205   -7.0072598   0.16798042    7898.7518    7390.8978    8808.2144    7360.4674   -8.7799645   -618.50028   -2421.0128 
    8500    239.50856   -167.82805   -136.65243   -167.82805            0    4313.4464    18.025106    22.404897    19.656405 -0.00068694586   -7.0242546    0.1517988    7938.2519    4452.6792    4938.4048    3549.2552   -930.51785    1335.3164     -1115.31 
    9000    250.89883   -166.36246   -133.70423   -166.36246            0    4871.5133    18.202743    22.402966    19.414335  0.092829306   -6.9953118  0.016310486    7917.0768    377.23194    7293.5311    6943.7768    2017.2442   -1129.5801   -1902.6734 
    9500    246.89893   -166.26467   -134.12708   -166.26467            0     1757.429    18.220262    22.610121    19.292257   0.10454712   -6.9100289  -0.10579516    7947.6828    2840.0373   -202.63723    2634.8869   -1023.6712   -649.03459    1052.8368 
   10000    244.18391   -165.33078   -133.54659   -165.33078            0    4139.4657    18.113721    22.837667    19.303148 -0.041702556   -6.8215682  -0.16900863    7985.2325    3556.5155    3621.8568    5240.0246   -1463.4505    308.60676    1833.1682 
   10500    250.66892   -164.97143   -132.34311   -164.97143            0    5063.7365    17.967983    22.791114    19.352608  -0.15154087   -6.7895072 -0.081121971    7925.0934    6385.2312    3779.1715    5026.8068   -362.18848   -129.00883   -1028.9938 
   11000    244.47564   -166.16167   -134.33951   -166.16167            0    4480.4572    17.969304    22.817307    19.406904  -0.21090562   -6.7787319   0.11309971    7957.0466    8567.8155    3025.6571     1847.899    2301.2585     -875.718    1173.3325 
   11500    232.63852    -165.3485   -135.06711    -165.3485            0    5162.5011    18.098523    22.547451    19.296352  -0.21020098   -6.7983143   0.34280379    7874.3696    3556.0362    5289.0815    6642.3857    2489.2626   -960.56547   -332.84169 
   12000    242.95855   -165.75997   -134.13528   -165.75997            0     2820.051      18.4336    22.341688    19.321064  -0.12550979   -7.0395582   0.36675939    7957.1432    2477.0434    2230.0835    3753.0261   -2412.6898     1307.824   -403.52097 
   12500    243.63352   -165.48433   -133.77178   -165.48433            0    2620.7404    18.409422    22.153928    19.483079  -0.10847038   -7.2230315 -0.021592603    7945.9984   -77.924326    4709.5186    3230.6268    638.47324    873.06735   -2524.1085 
   13000    244.10512   -164.93069   -133.15676   -164.93069            0     5119.388    18.107558     22.25935    19.593114  -0.07800289   -7.2839668  -0.35410149    7897.2493    9343.4933    5113.5231    901.14758    2529.0079    1852.4015    2961.0442 
   13500    241.23366   -167.05791   -135.65774   -167.05791            0    3896.3073    18.077573    22.642422      19.5037   0.07431815   -7.2548053  -0.27310484    7983.2551    4854.7664    521.91802    6312.2375   -407.42484   -526.16312    2133.5984 
   14000     237.1329   -167.07291   -136.20651   -167.07291            0    6023.3286    18.040345    22.723856    19.226891   0.14123835   -7.0809832 -0.055821527    7881.9907    5701.8722    9167.0338    3201.0797   -297.14234     2046.587   -771.55879 
   14500    232.23435   -167.80757   -137.57879   -167.80757            0    5127.8392    18.096325    22.858812    19.228885  0.053631943   -6.9531187  0.065192631    7954.2301    2711.0217    4390.3174    8282.1783   -1843.2032    526.70205   -2701.3264 
   15000     242.4425    -166.1924   -134.63488    -166.1924            0     4010.503    18.024636    22.736534    19.354394  -0.17378038    -6.771929   0.11514491    7931.7742    6838.0207    5506.2594   -312.77107    2016.7392   -1166.8379   -175.23921 
   15500    239.65233   -166.18203    -134.9877   -166.18203            0    7490.7642    18.005923    22.587339    19.416459  -0.29695703   -6.6066093   0.10935511    7896.7883    10579.365     6295.644    5597.2838   -403.56905   -1130.7778   -683.69498 
   16000    242.34221   -165.81399   -134.26953   -165.81399            0    2216.8774    18.119864    22.540365    19.471951   -0.2210366   -6.6068241   0.10924453    7952.8966    3964.4962    576.03979    2110.0963    727.90678   -464.23545   -2161.4264 
   16500    245.05356   -166.29494   -134.39755   -166.29494            0     4937.394    18.200271    22.475758    19.330059  -0.11568588   -6.7078547 0.00057117798    7907.2483    5339.2616    5490.3891    3982.5313   -1076.4498   -364.90286    1307.5739 
   17000    240.79884   -166.10694   -134.76337   -166.10694            0    6460.3512    18.213592     22.56597    19.297302   0.12835443   -7.0224131 -0.093487655    7931.3335    4198.7371    6973.1203    8209.1963    387.39973      -833.14    2225.6268 
   17500    241.42833   -166.27974   -134.85423   -166.27974            0    2867.2632    18.043064    22.701452    19.395249   0.31115415   -7.3286111 -0.075273992    7944.3666    3788.4621    3589.5711    1223.7563   -1415.0396    2511.1811    -3962.055 
   18000    238.02904   -167.76384    -136.7808   -167.76384            0    3646.0216    17.929235    22.760829    19.384985    0.2265293   -7.4214049 -0.012082383    7910.7073    5282.6053    2238.7678    3416.6916   -537.34025    2593.7716   -356.98321 
   18500    244.73664   -168.04816   -136.19202   -168.04816            0    6167.2222     18.13619    22.636292    19.303271 -0.045767491   -7.3823411  0.071964932    7924.6891    6205.5077    7349.0792    4947.0797    1501.0774    3097.4908    1265.5655 
   19000    237.97134   -166.74021   -135.76468   -166.74021            0    4193.5499    18.232759    22.590868    19.269509  -0.31353742   -7.0966958   0.11699057    7936.9923    4947.4427    1502.3759    6130.8311    4060.9463    639.16967   -3049.9346 
   19500    241.18947   -166.63849   -135.24407   -166.63849            0    4632.5953    18.170644    22.466754    19.427833  -0.36467587   -6.8006126   0.12268923    7931.1289    3230.3363    5902.0693    4765.3802    3586.2065   -1946.1165    3664.5191 
   20000    234.36347   -167.19737   -136.69146   -167.19737            0    4242.9136    18.013531    22.516359     19.48325  -0.20303304   -6.6056871   0.13521909    7902.3895    5812.6046    3008.2131    3907.9232    393.06227   -291.20891    696.95072 
   20500    230.62279   -166.05368   -136.03467   -166.05368            0    3436.8743    18.091443     22.64536    19.363475   0.06665633     -6.65838   0.05163089    7932.9684    2748.4073    5387.4658    2174.7497    3299.0273    1384.2324    1541.8553 
   21000    241.00817   -167.08681   -135.71599   -167.08681            0    4012.9722    18.121382    22.699495    19.168635   0.23979464   -6.8558302 -0.036935317    7884.9451    760.39159    4094.1535    7184.3714   -1008.3304     614.5471   -551.97691 
   21500    230.99434   -167.60372   -137.53635   -167.60372            0    4693.1093    18.088506    22.781248    19.328983    0.3077994   -7.0815694  -0.10452319    7965.0629    3980.0451    4600.7753    5498.5074   -648.50019    121.39737   -2794.4173 
   22000    237.08513   -166.39561   -135.53543   -166.39561            0    7081.0084    17.943712    22.583559    19.443127   0.14485693   -7.2873788 -0.057053411    7878.9941    7178.6398    9371.0832    4693.3021   -508.87606    1319.0646   -2324.6878 
   22500    251.84134   -167.93506   -135.15414   -167.93506            0    6205.2164    18.147738    22.598428    19.447948  -0.18133505   -7.4513594  0.053094181    7975.8047    1293.1152    9271.7452    8050.7888    1407.9328    2829.2335    2685.2241 
   23000    232.30957   -167.03523   -136.79666   -167.03523            0    4936.6084    18.353075    22.458116    19.254712  -0.43646023   -7.3750466   0.14361419    7936.3205    2642.3783    4554.2434    7613.2036    1149.8174   -643.80879    554.14052 
   23500    239.83995   -166.21842   -134.99966   -166.21842            0    6453.2354    18.228154    22.480278    19.263446  -0.36678866    -7.016438   0.21259191    7893.6586    7543.7355    8123.6623    3692.3084    1886.1787    -638.5046   -52.212461 
   24000    253.31583   -166.37477   -133.40193   -166.37477            0    2053.8456    18.053809    22.632612    19.478853  -0.14401024   -6.7196501   0.17694081    7959.1538     250.4081    3702.2556     2208.873   -632.71403    1490.0898   -626.55182 
   24500    243.93071   -166.03005   -134.27882   -166.03005            0    4753.0045    17.957342    22.616255    19.488516 -0.0044575887   -6.6216954  0.063038996    7914.8284    9139.4779    3584.1361    1535.3994   -48.386097   -1551.0409   -1391.4676 
   25000    240.35752   -165.56075   -134.27462   -165.56075            0     3085.978    18.116202    22.641064    19.397394   0.10909786   -6.7024126 -0.0042925006     7956.231    4603.4429    6168.5539   -1514.0629   -907.70369    1014.0911   -127.79102 
   25500    245.10466   -165.84626   -133.94222   -165.84626            0    4711.1968    18.188701    22.743707    19.237177    0.1392798   -6.8719168 -0.0065405336    7958.0063    3468.2478    4798.1816    5867.1609    722.85635    664.81627   -158.49764 
   26000    244.49716   -165.23105   -133.40609   -165.23105            0     2890.607    18.144454    22.675137    19.220791   0.11448122   -7.0486466  0.023594288    7907.9711   -115.17717    3267.5085    5519.4898   -849.19908   -2902.1814   -245.92499 
   26500    233.57261   -166.29481   -135.89184   -166.29481            0    3974.2984    18.049395    22.637571      19.4937  -0.05971512   -7.2162659   0.11657057    7965.0178    6723.6367    2915.9347    2283.3237    684.68404    2074.4093    1398.6149 
   27000    246.63785   -165.46645   -133.36285   -165.46645            0    7179.8738     17.96033    22.594565    19.530728  -0.22364466   -7.2248979   0.21325958    7925.6835    6955.4497     6336.364    8247.8078     1084.257   -1377.6893   -1707.1575 
   27500     239.0022   -166.05218   -134.94247   -166.05218            0    4073.1005      18.2141    22.488236    19.353597  -0.29987891   -7.2303336   0.22775837    7927.2912     5478.192    3293.3154     3447.794    5041.9347    1430.2942    59.851195 
   28000     236.3975   -166.12471   -135.35404   -166.12471            0    4688.5544    18.436804    22.502707    19.173431 -0.065329151    -7.096786  0.037714859    7954.6346    601.89094    5679.7903    7783.9818   -1653.7693   -1871.1287    310.89512 
   28500    242.10118   -165.83563   -134.32254   -165.83563            0    4270.5453    18.172576    22.562113    19.337203   0.25201452   -6.7592029  -0.14860423    7928.4795    5502.7081    4437.6423    2871.2856   -397.22145    123.02829    134.56507 
   29000    244.07189   -166.52354   -134.75393   -166.52354            0    8484.6309    17.913886    22.636497    19.528691    0.3064943   -6.5681194  -0.19710686    7919.0333    9631.7257    8214.9442    7607.2229   -3139.3398   -364.95223    874.20583 
   29500    241.01825   -164.59959   -133.22746   -164.59959            0    6735.0057    17.900203    22.742636    19.435718   0.15603259   -6.5975821  -0.11027162    7912.2381    7200.0459    6355.4323    6649.5388    1406.3175   -1701.7199    408.84132 
   30000    255.28146   -164.76113   -131.53242   -164.76113            0    4742.1347    18.207162    22.814124    19.250416 -0.052532861   -6.8589629  0.052334299    7996.2467    4486.0087    4662.6056    5077.7899    1090.9723    584.40096    1858.6803 
   30500    242.72258   -165.22121   -133.62723   -165.22121            0    5212.2509    18.244116    22.653988    19.149985  -0.26003408   -6.9904757   0.16348439    7914.7268    6631.5471    3886.0682    5119.1374   -17.337551    1300.8007    702.28506 
   31000    248.11259   -165.58641   -133.29084   -165.58641            0    6925.2685    18.125932     22.57528     19.39286   -0.2599101   -7.0913534   0.18618525    7935.5192     7069.145    6439.3269    7267.3337    2031.8661   -980.86929   -2718.5526 
   31500    245.41886   -165.90242   -133.95748   -165.90242            0    5475.6379    18.024635    22.593424    19.599898  -0.13150292   -7.1043029   0.11598877    7981.8277    8027.1213    7033.8899    1365.9025   -1237.0511    192.10204   -3745.3913 
   32000    244.34178   -167.21394    -135.4092   -167.21394            0    7073.5866    18.019866    22.508085    19.412688 -0.024314206   -7.0583419 0.0085052919    7873.6442    7468.3268    6578.2395    7174.1936    1443.5679    3151.9092    2390.8559 
   32500    244.62755   -166.25558   -134.41364   -166.25558            0    2738.3088    18.240085    22.772485    19.285957  0.087522327   -6.9766891 -0.069388231    8010.8476    69.184459    4860.5797    3285.1621    3947.6983   -180.04137     2294.339 
   33000    241.36442   -165.46739    -134.0502   -165.46739            0     6688.622    18.145283    22.660727    19.161672   0.19921219   -6.8837322  -0.06973381    7878.9979    5631.1064    5742.4918    8692.2678   -113.30224    2607.1267    3902.8347 
   33500    227.84862   -165.08662   -135.42872   -165.08662            0     8355.196    17.993961    22.780084    19.422011   0.14983552   -6.7413804 0.0088869045    7961.1587    10031.499    8211.9589      6822.13    -2210.046    1596.2847    2275.9219 
   34000    233.74169   -166.72477   -136.29979   -166.72477            0    5525.7948    17.864626    22.741514    19.546639 -0.072140833   -6.6612308   0.13800711    7941.1863    4157.9283    5492.7079    6926.7481   -414.36707    996.59989    3450.6106 
   34500    228.73779    -167.2296   -137.45596    -167.2296            0    5839.3289    17.987431    22.535678    19.462449  -0.32282573   -6.7252272   0.25917586    7889.2776     3041.012    8082.5954    6394.3794   -739.70567   -100.13772     2139.715 
   35000    236.87257   -168.57405   -137.74154   -168.57405            0    1183.1251    18.289986    22.516335    19.347544  -0.42704064   -6.8434256   0.27988112     7967.772    1706.5691    307.45953    1535.3466    790.51147    432.48352   -3138.4981 
   35500    247.05834   -167.97416   -135.81582   -167.97416            0    4225.6096    18.180894    22.425275    19.268649  -0.29621149    -6.901263   0.14652701    7856.0504    4678.1108    4358.4782    3640.2399    2255.2939   -254.76914   -106.61239 
   36000    242.86161   -167.60913   -135.99705   -167.60913            0    7076.7749    18.108449    22.650341    19.449449  0.074487668   -7.0634582 -0.046800095    7977.4354    10878.807     8543.363    1808.1547    -1018.007    1556.5545   -1740.9367 
   36500    238.31472     -165.867   -134.84677     -165.867            0    3249.7743     17.94364    22.726367    19.400158    0.3243509   -7.1123463   -0.1357426    7911.2634    4468.6886    2290.9637    2989.6705   -424.13304   -2542.1997   -1259.4365 
   37000    239.76158   -166.33876    -135.1302   -166.33876            0    7951.7121     18.05471     22.85171    19.238471   0.32265057   -7.1197252  -0.11478607    7937.4274    8068.8031    7514.3642    8271.9688    60.926381    1742.4213    2889.6133 
   37500    240.39543   -166.85424   -135.56317   -166.85424            0    3771.2929    18.208486    22.801096    19.148898  0.040148504   -7.0298353 -0.056928446    7950.1135    3304.0614     2546.836    5462.9815    538.45584   -257.43575   -810.23898 
   38000    242.36813   -165.39417   -133.84633   -165.39417            0    4935.8382    18.201229    22.618203    19.280769  -0.31463662   -6.8186576   0.10198802    7937.4895    2247.5134    6946.7631    5613.2379    42.892398   -1779.4016   -2471.7382 
   38500    245.03137   -166.28538   -134.39088   -166.28538            0    7012.5307    18.136112    22.524753    19.505835  -0.44930662   -6.7283574   0.26565686    7968.3569    6798.0877    5901.6067    8337.8977    1686.8783    182.95831    685.81614 
   39000    233.17467   -166.10432   -135.75315   -166.10432            0     6309.627    18.069204    22.422433     19.53837  -0.33383968   -6.7435496   0.29758471    7916.0782    9121.0631    6348.4514    3459.3664    3744.7592   -1296.6262    1228.0864 
   39500    249.85344   -166.70006    -134.1779   -166.70006            0    3153.0572    18.168816    22.491658    19.457991 -0.080287977   -6.9070936   0.15862367    7951.4458    3509.2579    5797.0387    152.87513   -2492.0477    1082.6609   -2048.4773 
   40000    243.79372   -167.22478   -135.49137   -167.22478            0    3203.0522    18.179348    22.688251    19.268367   0.23757968   -7.1138863  -0.15635787    7947.3847    2257.6796     3087.139    4264.3379   -1214.0958     328.7231    932.55018 
   40500    235.70165   -166.43623   -135.75613   -166.43623            0    2316.1819    18.053478    22.801771     19.23514   0.36350026   -7.1883548  -0.32869894    7918.1699    2140.6304    2935.7761    1872.1391   -1208.6764    818.27558    1260.4044 
   41000    229.28133   -165.93769   -136.09329   -165.93769            0    7798.1025    17.965132    22.869463    19.373457   0.29031014   -7.1679642   -0.1726393     7959.641    6749.9896    8937.2447    7707.0732   -2279.0329   -1091.5545   -3818.1606 
   41500    238.12247   -165.64439   -134.64918   -165.64439            0     6936.135    17.948481    22.705904     19.36951 -0.061685654   -7.0378872   0.13961403    7893.7817    5599.6683    8660.9514    6547.7853    2840.8605    434.53779   -946.76943 
   42000    237.56939   -166.34489   -135.42168   -166.34489            0     8565.105    18.106885    22.616762    19.369056  -0.38284215   -6.8837402   0.31366076    7931.9988    10057.762    8706.5565    6930.9967    1285.5367    992.87984   -761.35593 
   42500    245.16162   -166.65953   -134.74808   -166.65953            0    888.04868    18.251506    22.595168    19.377479  -0.43291102   -6.7203079   0.26326802    7991.1918    -3070.218    3536.8796    2197.4844    2644.8713   -181.52462    2722.5085 
   43000     247.5651   -166.33126   -134.10696   -166.33126            0    6314.2375    18.141202    22.456859    19.321744  -0.27610081    -6.573689   0.15424512    7871.5706    5693.5562    4978.0898    8271.0665    1012.2257   -1454.4827    1319.4763 
   43500    245.11731   -166.58126   -134.67557   -166.58126            0     3484.789    18.094599    22.681163    19.510449  -0.01137883    -6.646396  0.037598519    8007.2156    4612.5796     1414.732    4427.0553    1169.4486    1025.0773   -3596.0908 
   44000    240.46641   -166.02645   -134.72615   -166.02645            0    7220.2095    17.935503    22.709382     19.42068   0.23085254   -6.8163711 -0.083386446    7910.1242    8049.3178    7532.3515    6078.9591     768.0877     303.7566    225.91042 
   44500    231.47289   -165.71695   -135.58729   -165.71695            0    6366.6186    17.985664    22.698295    19.351922   0.29223378   -7.0677472  -0.15321626    7900.3042    4869.9267    7066.4355    7163.4938     243.2574     2888.079    -820.8228 
   45000    234.15472   -167.50399   -137.02525   -167.50399            0    3031.1745    18.152794    22.812224    19.302563   0.12697313   -7.2367598  -0.14408992    7993.2992    701.36603     5089.866    3302.2914   -1478.0304    1329.0937    549.67444 
   45500    240.61198   -167.43739   -136.11814   -167.43739            0    7968.1615    18.060986    22.643767    19.196456    -0.127666    -7.192413 -0.054178236     7850.751    6560.1282    7307.8733    10036.483   -969.62519    2895.4248    -113.5377 
   46000    239.77238   -166.94298   -135.73301   -166.94298            0    7239.8465    18.135785    22.774879    19.354466   -0.2851337   -7.0621983    0.1097779    7994.1745    7023.6292    8575.1779    6120.7322     669.8858    621.71594   -2282.4035 
   46500    238.73853   -166.38679    -135.3114   -166.38679            0    4017.4797    18.028785    22.696127    19.373886   -0.3012889   -6.8255585   0.19082305    7927.4763    6682.1079    520.89922    4849.4319   -241.05634   -140.65155    1330.1778 
   47000     237.7502   -166.04401   -135.09726   -166.04401            0    6580.0005     18.05029    22.581455    19.485814  -0.22562203   -6.6522788   0.12233227    7942.4534    8744.8762    6105.3329    4889.7925    247.28861    973.99452   -1172.3555 
   47500    233.26245    -163.6837    -133.3211    -163.6837            0    6811.2387    18.176583    22.407527    19.550114 -0.079373792   -6.5603497 -0.052717183    7962.6101    7592.5003    4518.5097     8322.706    815.38678   -3356.9023    2176.5863 
   48000    241.50223   -165.61871   -134.18359   -165.61871            0    5803.7355    18.324665    22.260398    19.409663   0.27112554   -6.6604108  -0.17513559    7917.4794    2813.3672    9892.5709    4705.2684    2188.4227    812.03047    1609.0797 
   48500    236.93428   -165.54751   -134.70697   -165.54751            0      3077.75     18.34722    22.539027    19.367574   0.48640156   -6.9050568  -0.16864587    8009.0435    1071.4584    4498.8531    3662.9383   -496.48578     558.4094    2645.9697 
   49000    251.71872   -165.77026    -133.0053   -165.77026            0    6428.9429    17.980359     22.77017    19.339611   0.31088148   -7.0372865  0.011168744    7917.9429    8095.7601    5691.2451    5499.8233   -3914.0995    1023.6123    684.33679 
   49500    261.13113   -164.16591   -130.17579   -164.16591            0    839.52584    17.897958    22.986147    19.383583  -0.04592368   -7.1061984   0.10629415    7974.5046    2191.2648   -1186.2015    1513.5142   -272.68689    457.03799     1704.139 
   50000    249.15391   -165.05241    -132.6213   -165.05241            0    4096.1076    18.006689    22.924727    19.335823  -0.30738442   -7.0958691   0.14390337    7981.7971    4910.2047    3637.8463    3740.2718   -616.42514    395.35876   -2457.8858 
   50500    239.77752   -165.93043    -134.7198   -165.93043            0    3769.1802     18.07791    22.708388    19.200187  -0.28792003   -6.9949485   0.15475676    7882.0648    3052.4286    1601.5604    6653.5516    1631.6888     1233.494   -341.07567 
   51000     242.3368   -165.56976     -134.026   -165.56976            0    3777.0182    18.203983    22.661952    19.345443  -0.01341334   -6.9220353     0.102755     7980.726    4514.2301    5578.9975    1237.8271   -2102.4159    3108.8019    1997.7496 
   51500    236.55201   -165.62263   -134.83185   -165.62263            0     3311.931    18.112968    22.621918    19.465428   0.24153864   -6.8454025 -0.0095551956    7975.9605    5343.2359    1101.9379    3490.6194   -365.16099   -2498.6522    213.67712 
   52000    242.48615   -167.73149   -136.16829   -167.73149            0    2667.2822    18.015784    22.464557    19.409317   0.31092829    -6.812143 -0.063207804    7855.2732    -33.58015    4221.3007    3814.1261    -788.6211   -666.22472    368.50842 
   52500    244.35112    -165.5906   -133.78465    -165.5906            0    969.61627    18.155824    22.739836    19.432959   0.10894232   -6.9118808 -0.0054651983    8023.1003    4731.4359   -3588.9626    1766.3755    491.03388   -4398.1216     740.8223 
   53000    235.69467   -165.52316   -134.84397   -165.52316            0    2801.7258    18.072815    22.855297    19.148015  -0.26765227   -6.9806076  0.055246138    7909.2709    5194.5451    1962.7808    1247.8515   -865.43916   -2521.3591    1046.9873 
   53500    238.60571   -165.90606   -134.84796   -165.90606            0    4968.6337     18.01585    22.889084    19.258178  -0.44044916   -7.0062052   0.10877176    7941.4236    3932.5365    6264.8757     4708.489    17.330028    -470.7485    1019.1253 
   54000    244.06382    -165.5666   -133.79804    -165.5666            0    4001.4962    18.018485     22.81541    19.429642  -0.30760706   -6.9498219   0.17477439    7987.5088    4133.0769    4150.0225    3721.3892    823.89098   -2159.0362   -3636.8007 
   54500    229.50979   -166.35225   -136.47812   -166.35225            0    4236.3814    18.073465    22.473611    19.402669  0.070091159    -6.880187    0.1118457    7880.8991    5023.4651    5127.3645    2558.3146    1062.4634     1802.295   -1077.7625 
   55000    237.56344   -166.19423   -135.27179   -166.19423            0    4660.5986    18.230497    22.510606    19.434365   0.27912032   -6.8952328 -0.056771919    7975.4654    4633.0273    6132.1269    3216.6415   -2838.4393    -297.5176    2089.8544 
   55500    231.48024   -166.87038   -136.73976   -166.87038            0    3497.9841    18.183444    22.620633     19.33314   0.18279569   -6.8289017  -0.20135908    7952.1269    2482.9084    2129.5245    5881.5194    2383.5682   -2676.4583    2902.2743 
   56000    250.01451   -166.27739   -133.73426   -166.27739            0    1213.2843     18.05679    22.630945    19.291633 -0.015352941   -6.8651651  -0.16636418    7883.3754   -295.78648     247.5376    3688.1017    -2248.717   -1056.1855    184.38855 
   56500    237.52836    -165.0615   -134.14363    -165.0615            0    3835.3368    18.042968    22.957782    19.420428  -0.23039405   -6.9686892    0.0850129    8044.4562    5591.1772    2044.0771    3870.7561    1749.9106   -1810.0981   -512.53807 
   57000    241.58701   -166.04778   -134.60161   -166.04778            0    5456.4169    17.944241    22.774312    19.260862  -0.27407874     -6.97403   0.41367594     7871.293    4934.1985    8480.3553    2954.6968   -455.95532     11.27524   -1326.0273 
   57500     241.6509   -166.67793   -135.22345   -166.67793            0    5800.4859    18.148147    22.742377    19.328576  -0.22320039   -7.0302989   0.38753345     7977.522    4797.0415      4893.71    7710.7061   -229.23369   -3959.4191   -1127.1945 
   58000    242.30582   -166.62299   -135.08326   -166.62299            0    7959.0494     18.17322     22.57247    19.381311   -0.1008602   -7.0492081  0.029462081    7950.4941    8005.9773    7609.8966    8261.2743    73.971093    1458.1451   -1956.8727 
   58500    247.94164   -167.26333   -134.99001   -167.26333            0    4505.2126    18.189322    22.411323     19.45266   0.11143542   -7.0476492  -0.22638985    7929.8142   -232.91121     5732.322    8016.2271    -691.3584    311.09172     782.0421 
   59000    240.42429   -165.16484   -133.87002   -165.16484            0    7178.9546    18.150348    22.557616    19.502298   0.25757188   -6.9900079  -0.22766757    7984.7979    7928.8258    5432.0468    8175.9912    3197.3508   -1252.1431   -1167.6349 
   59500    242.87175   -165.39541   -133.78202   -165.39541            0     8737.405    18.036635     22.67382    19.372964   0.22245924    -6.873272  0.030610245    7922.7558    8739.8687    9122.9415     8349.405   -1856.6314   -2617.9236   -4282.9007 
   60000    235.94684   -166.64413   -135.93212   -166.64413            0    2819.4736    18.089667    22.978189    19.236515 -0.081315175   -6.8248894   0.28033428    7995.9998    6103.8377    16.500787    2338.0823    298.72201    881.31195     1196.909 
   60500    236.04035   -166.19828    -135.4741   -166.19828            0     4322.795    17.975318    23.100659    19.094472  -0.55403412   -6.7582236   0.41859624    7928.8205    6444.8795    1148.3701    5375.1354    1655.7674   -2449.8108   -330.54731 
   61000    236.43497   -165.93011   -135.15456   -165.93011            0    4351.0307    17.909018    23.076344    19.223221  -0.70990644   -6.7729809   0.28581078    7944.4704    4153.6673    4553.1423    4346.2826    1673.9324   -590.93644    -1806.106 
   61500    241.46084   -166.02735   -134.59761   -166.02735            0    2713.2366    18.082808    22.823346    19.377515  -0.33702469   -6.8648929  -0.06170209    7997.2979    5245.0172    685.26981    2209.4229    3545.4277   -563.07693    763.24409 
   62000     251.3743    -166.7233   -134.00317    -166.7233            0    4162.9376    18.226481    22.429611    19.380462   0.18182225   -6.9670688  -0.19514736    7922.9825     4268.906    4755.7358     3464.171   -155.73106   -203.41344   -2305.4016 
   62500    241.97204   -166.43335   -134.93707   -166.43335            0    4244.3895    18.272503    22.402298     19.43745   0.38840507   -7.0488705  -0.13338239    7956.6436    866.29104    5252.8015     6614.076   -3121.6815   -980.67954   -1408.2674 
   63000    251.52236   -165.12397   -132.38457   -165.12397            0    3875.3908    18.220515    22.506633    19.487573   0.27095559   -7.0560524 -0.053048536    7991.5115     625.9452    4177.5597    6822.6674   -1640.1254    176.63679    1589.3427 
   63500    242.27149   -166.52647   -134.99121   -166.52647            0    5907.0604    18.084673    22.623565    19.410357 -0.080114088   -6.9986118  0.059190057     7941.549    3403.1145    7794.9003    6523.1662   -137.01687   -617.26359    2483.5374 
   64000    239.71301   -165.52605   -134.32382   -165.52605            0     5294.182    18.022367    22.811487    19.392519  -0.29107879   -6.9098967   0.22423296     7972.594    5578.2852    3402.2445    6902.0161    1708.2201   -731.36828   -2757.4937 
   64500    243.46324   -166.29951   -134.60912   -166.29951            0    4888.6493    18.029533    22.887672    19.264322   -0.3789892   -6.7532866   0.25084788    7949.5004    4842.0538    4800.9899    5022.9041   -38.445053   -1388.2643    21.177659 
   65000    226.21855   -166.55066   -137.10493   -166.55066            0    8531.7298    18.021255     22.85159    19.137915  -0.24351142   -6.6759909   0.16648523    7881.2675    5116.4947    9638.7103    10839.984      320.751   -255.30064   -2360.7599 
   65500    237.40868    -167.0303   -136.12801    -167.0303            0    4963.0692    18.084441    22.909865    19.398956    0.1153962   -6.6805293  0.027079095     8037.222    3777.7473    6152.7952     4958.665   -1880.4086   -2560.9556   -925.78382 
   66000    254.16571   -165.41926   -132.33579   -165.41926            0     4959.412    17.938706    22.512698    19.474645   0.36934046   -6.7177795  -0.09612369    7864.8093    6440.9861     4571.647    3865.6028   -15.629469   -59.904037       9.8889 
   66500    247.28061   -165.64731   -133.46003   -165.64731            0    7060.0121    18.144943     22.50941    19.616505   0.35861929   -6.8501589 -0.099846786    8012.0078    6270.9721    6101.4898    8807.5744    300.94462   -1940.7077    209.41379 
   67000    241.75689   -166.92768    -135.4594   -166.92768            0     7490.832    18.254507    22.410142    19.383012  0.078955913   -6.9878868  -0.07683508    7929.3209    7801.1545    9150.8273    5520.5141   -512.54174    666.29785    -1999.306 
   67500    243.89475   -166.73237   -134.98582   -166.73237            0    4251.7639    18.249292    22.465752    19.308698  -0.24099985   -7.0836414 -0.011786476    7916.2583    5223.3986    4318.9992    3212.8938    1787.0045   -1756.2374    1444.6605 
   68000    244.02883    -167.8048   -136.04079    -167.8048            0    5255.7866     18.14768    22.702838     19.43721  -0.36962835   -7.1541179  0.038440575    8008.2047    3958.1585     6439.427    5369.7744   -165.04864    285.17755    2185.9418 
   68500     244.7609   -165.94206   -134.08277   -165.94206            0    5146.8317    17.930645    22.689063    19.370742  -0.17171967   -7.0912637   0.12379178    7880.5898    2099.2695    6667.0093    6674.2162    1047.5839   -853.93565    599.44288 
   69000    234.54311   -167.24481   -136.71551   -167.24481            0    4444.1351    18.064564    22.743051    19.377947   0.12308607   -7.1144198   0.15310531    7961.2993    3048.0046    6804.6623    3479.7386   -3092.0502    754.05285   -85.586834 
   69500    230.67747   -166.23805   -136.21193   -166.23805            0     4729.422    18.218159     22.61346    19.286138   0.34613989   -7.0125265  0.028079895    7945.4186    4849.0817    2351.5386    6987.6456   -176.78385     297.5116    3710.4313 
   70000    238.13034    -166.6702   -135.67397    -166.6702            0    5024.6667    18.188701    22.476691    19.296705   0.36412648   -6.7418697  -0.13375901    7888.9141    5293.7922    4485.9307    5294.2772   -1700.5153   -1988.4421    2690.3525 
   70500    239.55068   -167.39288   -136.21177   -167.39288            0    4555.5555    18.093143    22.464671    19.507751  0.092895395   -6.5717604  -0.18817544    7929.0522     5735.358    2766.8322    5164.4764   -1081.8925    551.59679     2742.087 
   71000    238.43508   -166.49035   -135.45446   -166.49035            0     5401.698    17.998881    22.472644    19.650244  -0.29352647   -6.5058791  0.031514851    7948.1787    7552.5553    5619.6959    3032.8427    4661.6902   -5.1349067    1821.8246 
   71500    237.08712   -165.93998   -135.07955   -165.93998            0    6733.1635    18.052416    22.548151    19.383801  -0.46487444   -6.6496341   0.38043868     7890.149     6385.149    5386.6408    8427.7006    1374.8041   -3402.4294   -1957.6206 
   72000    240.27926   -163.66594      -132.39   -163.66594            0    5336.5965    18.217492    22.764886    19.214979  -0.37820852   -6.9010439   0.41360454    7968.8194     2126.327    6601.0237    7282.4386    1469.5223    1565.9773    497.82929 
   72500    240.21307   -166.19032     -134.923   -166.19032            0    2888.5944    18.051773    22.886864    19.218633   -0.1258608   -6.9946395   0.22426758    7940.1488    592.24487    3643.0788    4430.4594   -113.77852   -1218.9695    3577.4233 
   73000    230.18949   -166.30263   -136.34002   -166.30263            0    4844.7982    17.952206    22.806307    19.360298  0.047061883   -6.9965504 -0.035449901    7926.5617    5363.7755    3533.8451    5636.7739     -772.674    591.10832    1069.4115 
   73500    242.58968   -166.37073   -134.79405   -166.37073            0    6605.8554    18.001628    22.703065    19.395051  0.081020162   -6.9843895  -0.16354552    7926.6044    6763.9921    6944.0104    6109.5636   -1669.1466    25.943502    2366.7087 
   74000    237.80344   -166.71556   -135.76189   -166.71556            0    1756.8882    18.236936    22.515474    19.365075    0.1308298   -7.0487362 -0.066782906    7951.5565    -407.1059      4428.39    1249.3806   -2102.4417    809.81537    -1473.404 
   74500    240.62674   -167.01431   -135.69314   -167.01431            0     4770.706    18.309484    22.399707    19.323625   0.13480549   -7.0305867     0.118808     7925.142    4012.7619    6453.2249    3846.1312     1444.809     1193.909    2286.2032 
   75000    252.22737   -166.92588   -134.09472   -166.92588            0    4512.4919    18.193552    22.472684    19.451782  0.044706805   -6.9041235   0.18860716    7953.0153    4831.3919    4976.8356    3729.2483     19.74415   -320.72942    1757.1858 
   75500    243.72218   -167.77157   -136.04748   -167.77157            0    5650.7016    17.929342     22.59283    19.622593  -0.12510435   -6.6987558    0.0554245    7948.6135    8984.9997    5829.6369    2137.4684   -2777.4188    -745.8133    207.81184 
   76000    244.58887   -166.92993   -135.09303   -166.92993            0    5498.0433    17.917177    22.708284    19.394103  -0.28140178   -6.6794671  -0.12837951    7890.8466    7888.1508    5947.7232     2658.256    987.21313    1132.7762    3152.0649 
   76500    224.82153     -167.696   -138.43211     -167.696            0    3512.4268    18.237849    22.900963    19.118039   -0.2383135   -6.8274756  -0.14617399     7984.922    965.29718    2715.8638    6856.1195   -1599.7771   -587.02808   -231.51045 
   77000     230.2188   -167.86964   -137.90322   -167.86964            0    6443.4394    18.149299    22.764286    19.011736  0.016737571    -6.864217 -0.012832969    7854.8098    5903.6292    7357.9001    6068.7888   -604.80726    2375.4159    395.73937 
   77500    247.14566   -167.74765   -135.57794   -167.74765            0    6252.3103    18.009296    22.742286    19.416477   0.18006798   -6.8584818   0.11563031    7952.4563    8980.4728     5424.896    4351.5621   -3985.4376   -1079.0991   -1318.6365 
   78000    244.00138   -164.53952   -132.77909   -164.53952            0     3344.035    18.032719    22.557678    19.637037   0.10975125   -6.9048323   0.08627477    7987.8806    4746.3323     1727.144    3558.6286   -1908.9317    -1183.291   -2953.0948 
   78500    237.69683   -167.58974   -136.64994   -167.58974            0    6502.5765     18.05744    22.364743    19.484202 -0.034033646   -6.9214725   0.07100033    7868.6948    8160.8547    8959.8634    2387.0113    1450.2207     2529.026   -2772.0113 
   79000    231.51547   -166.92552   -136.79032   -166.92552            0    6219.6305    18.210857    22.630093    19.400014  -0.08854487   -6.9954807  0.021448778    7995.0054    7515.4325    1661.2603    9482.1988   -1778.2959    1819.5017     2.769683 
   79500    238.92456    -165.5833    -134.4837    -165.5833            0    4021.2208    18.117182    22.657267    19.243032  -0.07806375    -6.960452 -0.030880043    7898.9922    4886.8396    3650.7614    3526.0616    1015.8062   -631.89678   -2225.1068 
   80000    251.16523   -166.97705   -134.28413   -166.97705            0    7617.5473    18.031945    22.827188    19.249529 -0.047570834   -6.9371162 -0.063561279    7923.4644    8137.4937    7375.7127    7339.4354   -87.650298    356.31268   -2173.2343 
   80500    239.05771   -165.85193   -134.73499   -165.85193            0    3707.6143    17.983532    22.942695    19.321564   0.05692385   -6.9803282 -0.010560059    7971.8973    4221.7346    2695.9105    4205.1979    407.64504   -466.66489   -417.33357 
   81000    251.54622   -167.42233   -134.67982   -167.42233            0     5250.462     17.90503    22.839723    19.274872   0.12038647   -6.9853024  0.088400312    7882.3805    4832.4494    4684.6941    6234.2424     1305.999   -1454.5634    16.392522 
   81500    246.31638   -168.14519   -136.08342   -168.14519            0    3927.8042     18.23039    22.765235    19.336895  0.032279297   -7.1096645 0.0084777262    8025.1809    2391.9038    4242.8553    5148.6536    57.415808    1531.7171     754.9745 
   82000    238.19798   -166.83911   -135.83408   -166.83911            0    6428.3497    18.261827    22.283693    19.272284  -0.13834933   -7.0055505  -0.16843128    7842.6815      3682.36     6832.645    8770.0442   -2847.2441   -1057.1192   -195.25931 
   82500    235.85692   -163.87266   -133.17235   -163.87266            0    5679.1121      18.3257    22.190117       19.567  -0.21210697   -6.9052806  -0.11765038    7956.9091    2059.6996    7868.4921    7109.1446    3190.5727    763.92543    1745.5062 
   83000    234.33381   -164.96308   -134.46103   -164.96308            0    4516.6356    18.190003    22.409828    19.650859 -0.093761418   -6.8269292   0.10129149    8010.3748    3555.8452    4921.2421    5072.8195    2038.2883   -1958.5537   -1261.9076 
   83500    245.19915   -166.30798   -134.39164   -166.30798            0    4396.5586    17.933032    22.571028    19.413519 -0.015692525   -6.6844596   0.18080017    7857.9515    4358.4377    4496.6926    4334.5455     521.2625    76.339651   -1482.1244 
   84000    244.05843   -164.70988   -132.94202   -164.70988            0    4879.1168    18.032016    22.908308    19.322983 -0.0055966462   -6.7606946  0.084014184    7981.9953    7518.0391    5190.8699    1928.4415    1642.7103    1374.6093   -396.93173 
   84500     239.6571   -165.53562   -134.34066   -165.53562            0    6814.3604    18.143936    22.906751    19.131022 0.0075174086   -6.8653827 -0.019339734    7951.2089    4569.4586    7497.7674    8375.8552    4372.3718   -2920.7764    2097.9639 
   85000    234.51917   -166.27432   -135.74814   -166.27432            0    6313.1433    18.091577    22.728865    19.178747  0.047956834   -6.9196176 -0.065642729    7886.3199    5849.5888    4235.8667    8853.9745   -2367.3122     -518.836    879.87532 
   85500    241.86064   -165.62339   -134.14161   -165.62339            0    815.93007    18.074818    22.573358    19.516141  0.074643281   -7.0219009 -0.0047237288    7962.7679   -1511.2043    1461.7263    2497.2682    740.07942   -418.70447    1048.5512 
   86000    242.55251   -166.03882   -134.46698   -166.03882            0     4677.604    18.026776    22.393037    19.685062  0.044153054   -7.0664965   0.13388578    7946.3529    5757.7188    5126.5001    3148.5932   -1249.3663    2478.3343    297.39355 
   86500    242.53459   -167.88671    -136.3172   -167.88671            0    6845.3222     18.15291    22.320804     19.52069 -0.032973129   -7.0656778    0.2099999    7909.5403    4603.9363    8849.5266    7082.5038   -1500.6137   -559.23293   -702.62711 
   87000    238.38592   -167.63565   -136.60615   -167.63565            0    3484.6711    18.354003    22.464896    19.233586  -0.15768337   -7.0050129   0.12034838    7930.4066    4010.2215    5517.1952    926.59676    1449.8762    1753.1724    723.06543 
   87500    236.01543   -166.30379   -135.58285   -166.30379            0    4514.1986    18.224467    22.794915    19.102357   -0.2216634   -6.8045771 -0.066050166    7935.6002    2937.1215    7460.8189    3144.6552   -252.39576    821.18692    500.59165 
   88000    250.89644   -167.18959   -134.53166   -167.18959            0     5899.176     17.89249      23.0001    19.223184  -0.15232069   -6.6366881  -0.17563325    7910.8991    6369.3689     4936.157    6392.0022    2148.9428     1056.404     1152.068 
   88500    226.81055   -165.51771   -135.99493   -165.51771            0    2764.5904    17.812407    22.994417    19.409317 -0.0094377197   -6.6502678  -0.10785441     7949.783    6784.1031    834.30218    675.36604   -2897.9841   -3880.7077   -397.87339 
   89000    235.54844   -168.26313   -137.60298   -168.26313            0    3370.0776    17.970133    22.758229    19.382337   0.13272514   -6.8141426  0.095805625    7926.7633    4166.3156    3249.9954    2693.9219   -1938.9253   -918.22203    -2431.729 
   89500    241.05111    -168.9521   -137.57569    -168.9521            0     7317.406    18.200468    22.523528     19.26599   0.10712131   -7.0338891   0.14095043     7897.876    11952.195    2798.0134    7202.0098   -1903.0764   -1488.2012   -831.62322 
   90000    240.78657   -168.64481   -137.30284   -168.64481            0    6421.3218      18.2823    22.397449    19.333224  -0.07879874   -7.1753104  0.058348847    7916.5086    5358.6121    6681.1678    7224.1854     966.6478   -1324.4056     127.4967 
   90500    233.34196   -165.81673   -135.44378   -165.81673            0    3571.7388    18.163133    22.541634    19.450898  -0.17918615     -7.16966  0.027569291     7963.717    8269.4418    1697.4095    748.36498   -1819.2074   -2189.6461   -151.13602 
   91000     243.9977   -166.93781   -135.17786   -166.93781            0    6241.3242    18.075871    22.588225    19.459082  -0.11017228   -7.0960262  0.072673791    7945.1789    3366.0993    10429.053      4928.82   -900.26032    1015.8954   -1856.2293 
   91500       228.17    -167.8302   -138.13046    -167.8302            0    7572.9133     18.03512    22.623138    19.277946  0.051988555    -6.955388   0.16454138     7865.614    11174.091    5158.0596    6386.5893    810.30755   -1143.2516    625.35231 
   92000    237.17826   -166.68406   -135.81176   -166.68406            0    3045.2458     18.21283    22.768493    19.278507  0.077921521   -6.8042923   0.20429967    7994.3861    3928.0059    4643.9099    563.82176   -204.41641   -1366.9741   -2069.8084 
   92500    238.10058   -167.17485    -136.1825   -167.17485            0    6201.2577    18.101223    22.634415    19.293413  -0.11767705    -6.588495  0.015282245    7904.7158    2908.8022     7060.855    8634.1159    2422.7556   -1272.3285    3412.5449 
   93000    235.13181   -165.70674   -135.10081   -165.70674            0    7789.2373    18.036526    22.544747    19.511903  -0.18772938   -6.4908928 -0.056680375    7934.1038    6037.9364    9528.7236    7801.0518   -1385.7425   -531.03616    23.397634 
   93500    233.85005   -166.70804   -136.26895   -166.70804            0    5539.8379    18.060854    22.433365    19.595993 -0.038615699   -6.6067626   0.11426213    7939.6247    6417.8974    7188.6946    3012.9216    -1279.616    -678.9449   -2080.3728 
   94000    240.80472   -167.70058   -136.35624   -167.70058            0    4605.2682    18.158771    22.380195    19.516535   0.13389827   -6.8696139    0.2491005    7931.4582    2859.2062    4103.0123     6853.586   -118.22992   -173.11055    -2821.915 
   94500    240.11004   -167.25186   -135.99795   -167.25186            0    7994.1927    18.163813    22.532259    19.265754   0.08617818   -7.1445744    0.1754223    7884.9289    6682.8342    8127.4981    9172.2457   -2963.1562    308.09468   -2262.5366 
   95000    224.00025   -167.04532   -137.88834   -167.04532            0    4524.1879    18.221541    22.746722    19.263371 -0.079126985   -7.3557377 -0.042211915    7984.2882    2335.4136    5076.6433    6160.5068    700.75875    426.46274   -2020.3559 
   95500    243.97146     -167.032   -135.27546     -167.032            0    7327.2483    18.004789    22.786872    19.212226  -0.11142679   -7.3002622  -0.15533533    7882.2541    9445.2639    5217.4266    7319.0545    2076.6577    154.21376    733.37642 
   96000    233.99955   -164.74653   -134.28798   -164.74653            0    7289.1918    17.933151    22.852624    19.397487  0.036368758   -7.1547299 0.0075252565    7949.4694    9415.7176    4850.8425    7601.0152    1762.9191    1344.0658    493.65972 
   96500    243.60847   -166.08253   -134.37324   -166.08253            0    709.22327     17.98179    22.705027    19.439032   0.20764201   -6.9271143   0.15326603    7936.5103    1808.8188    126.39622    192.45475   -2579.8215    134.78035   -1678.6405 
   97000     245.9825   -167.30374   -135.28544   -167.30374            0    7070.7153    18.188865    22.525794    19.286135   0.18217351   -6.6856094  0.099972506    7901.8888    2999.0762    8579.2443    9633.8254    2509.2276   -763.43255    -2806.393 
   97500    245.53323   -166.98705   -135.02723   -166.98705            0    4493.1874    18.234805    22.452551    19.260677 -0.053645648   -6.5898888 -0.012127109    7885.6659    2617.8441    6396.5874    4465.1306   -421.74636   -88.320008    828.37986 
   98000    227.18557   -166.53938   -136.96778   -166.53938            0    3307.9464    18.166435    22.540844    19.468863  -0.19305113   -6.6774791 -0.039245398     7972.242    409.90309     5221.622    4292.3142   -391.73003   -504.25897   -1836.7282 
   98500    244.95474   -167.64639   -135.76186   -167.64639            0    5654.2121    17.934525    22.507885    19.516288  -0.25410612   -6.8362753  0.016792179    7878.1055    2913.5561    9191.2172    4857.8629   -1397.9615   -976.21784   -472.20272 
   99000    237.20447   -166.83605   -135.96033   -166.83605            0    4673.7093    18.018104    22.665547    19.407554  -0.19448486    -7.142268  0.081931483    7925.8548    3290.8182    5122.0302    5608.2793    2270.1735   -781.62211   -973.12421 
   99500    248.35793   -165.88872   -133.56122   -165.88872            0    5637.8825    18.127216    22.812831    19.218952 -0.012065619   -7.3384027   0.11486784    7947.6729    6314.6373    5581.9225    5017.0878    977.26152   -892.50587   -1294.6709 
  100000    237.84122   -166.68435   -135.72576   -166.68435            0    5575.5554    18.121106    22.791511    19.170943  0.079464469   -7.3197188 -0.0047244913    7917.7412    6990.5848    6016.4258    3719.6558   -608.58535    286.07927    1015.0887 
  100500    240.69375   -166.32113   -134.99124   -166.32113            0    2667.9219     18.10079    22.695712    19.452801    0.1226048   -7.0863165  -0.13963325    7991.4113      1076.95    3758.9979    3167.8177   -329.89933    228.53627    4108.6097 
  101000    234.62231   -166.57297   -136.03336   -166.57297            0    3546.1574    17.927445    22.346946    19.568732   0.19399304   -6.6403905  -0.11682894    7839.6964    6507.3368    2498.5436    1632.5918   -2448.9149   -1465.8047    1746.1681 
  101500    235.45826   -166.70084   -136.05242   -166.70084            0      5315.26    18.210648    22.345003    19.644838  0.074841013   -6.4893891  0.034793724     7993.818    3817.8698    8513.7265    3614.1835    369.05083   -2535.4946    269.28315 
  102000    235.03221   -166.19045   -135.59749   -166.19045            0    6769.0872    18.185014    22.340438    19.379297 -0.087737717    -6.508015   0.11878792    7873.0563     7198.955    9118.1642    3990.1424    1915.1849   -393.24524    2765.5905 
  102500    238.24798   -167.46797   -136.45643   -167.46797            0    5416.0844    18.159716    22.578536    19.393313  -0.15747335   -6.7422827  0.080474948    7951.6425    5576.9827    5432.3424    5238.9281    -2615.076   -145.60407   -1328.2115 
  103000    241.99074   -166.55136   -135.05265   -166.55136            0    3297.6328    18.014387    22.711269    19.330033  -0.12296777    -6.942841   0.02815223    7908.4883     3333.306     1291.367    5268.2255    674.63847   -503.16139    1983.2466 
  103500    232.58104   -166.74106   -136.46716   -166.74106            0    6899.0323    17.970017    22.784546    19.270051   0.05453637   -7.0920877  0.047124622    7889.9042    7282.4057    6906.1765    6508.5147    -73.48237    96.596232    1571.1307 
  104000    235.25737   -165.71097    -135.0887   -165.71097            0    2896.2104    18.086282    22.792755    19.311233   0.10221623   -7.2060414  0.078158874    7960.7894    5934.8099    1049.7195    1704.1018   -2886.7382   -498.72594   -2425.8288 
  104500    241.06436   -167.72056   -136.34242   -167.72056            0    5162.3482     18.09483    22.575291    19.290094  -0.01886638   -7.1862395 0.0013971592    7879.9275    4313.6243    5207.4604    5965.9599   -2471.2223    828.47086    1741.8918 
  105000    243.83471   -166.17116   -134.43242   -166.17116            0    8526.9516    18.148977    22.503663    19.423299  -0.28757871   -7.0735552  -0.15736857    7932.8341     9595.828    8556.3995    7428.6275   -229.91952      1337.63    2411.7316 
  105500    241.85334    -165.4845   -134.00367    -165.4845            0    3146.4476    18.132196    22.641539    19.405786  -0.28746239   -6.8421776  -0.10247736    7966.8673    6533.0922    1471.1258    1435.1247   -1292.9743    -119.4221   -1744.9776 
  106000     245.2443   -167.02553   -135.10331   -167.02553            0    7119.8163    18.000073    22.703738     19.26556  0.021551995   -6.5938229   0.14442157    7873.2358     5142.941    9256.2409    6960.2668     -1416.51   -322.85993   -238.47648 
  106500    234.67711   -165.91412   -135.36738   -165.91412            0    6610.8264    18.065856    22.878647     19.30024   0.21120806   -6.6023727   0.22523583    7977.2205    6503.6886    6636.8515     6691.939   -1121.0881    1093.1272   -781.11202 
  107000    243.28473   -167.54427   -135.87712   -167.54427            0    5568.1653    18.029626     22.75479    19.262509  0.067364117   -6.6825158  0.084278966    7902.6437    8231.3565    3907.6754    4565.4639   -1311.6007    -2432.583      888.417 
  107500    245.24895   -167.11655   -135.19373   -167.11655            0    6229.9225    18.061798    22.574182    19.367451   -0.1527142   -6.8985435 -0.064952248    7896.6971    5471.1301    6923.3987    6295.2388    127.17129    513.46212    1327.0236 
  108000     233.3799   -165.27132   -134.89343   -165.27132            0    2889.0534    18.224862    22.429022    19.534405  -0.26878959   -7.1538229 -0.076981392    7984.9971    3291.2868    2903.0436    2472.8297   -321.74432    -2072.339   -3351.0119 
  108500    241.58215   -165.06652   -133.62099   -165.06652            0    6819.6535    18.146708    22.341048    19.397856  -0.18505282   -7.2058964  0.083635072    7864.2106    5048.9526    8637.1824    6772.8255    1588.0528    1248.8669   -498.81748 
  109000    239.16208   -166.49234   -135.36181   -166.49234            0    4023.4687    18.129794    22.672826    19.384576  0.054180541   -7.2039786   0.27903213    7968.1012    2500.6467    4656.5736    4913.1858   -1527.3769    2149.4782   -7.2671278 
  109500    237.10809   -165.75076   -134.88759   -165.75076            0    4500.5438    17.994043     22.79948    19.311698   0.17498932   -7.0041541   0.22451515    7922.7174    6298.0622    3333.0643    3870.5048    1091.7548    367.14988   -406.76949 
  110000    239.79129   -166.62616   -135.41374   -166.62616            0    1888.0908    17.922462    22.856265    19.254716   0.18524165   -6.8064496 0.0035297753    7887.5122    2898.3417    1371.7138    1394.2168    1815.4758   -905.98988   -1765.7622 
  110500    229.89339   -166.49923   -136.57516   -166.49923            0    493.03292    18.087203    22.863761    19.383962  0.040998775   -6.7219842  -0.21426785    8016.0725    3813.3372   -1258.6024   -1075.6361   -3805.8648   -2611.5237    367.49982 
  111000     241.6769   -166.17328   -134.71542   -166.17328            0    7456.3301    18.002173    22.521768    19.297922 -0.034787891   -6.6607491   -0.1451302    7824.1642    5604.2996    9409.8001    7354.8905   -366.58874    1593.1929    1101.7759 
  111500    236.94504   -166.61872   -135.77678   -166.61872            0    2053.1281    18.216056    22.590057    19.498446 -0.045564471   -6.8555493  0.089975184    8023.6444     2182.216    1500.7018    2476.4664    763.02025   -2174.3161   -1808.5751 
  112000    234.54016   -165.25629   -134.72738   -165.25629            0    7116.5589    18.068406    22.441247    19.434981  -0.14861983   -6.9590913   0.21302927    7880.4487    8293.7534     4586.856    8469.0672    737.56472   -388.18259   -5081.6117 
  112500    235.41075   -167.35171   -136.70948   -167.35171            0    7967.4673     18.08038    22.528324    19.450657   -0.2032285   -7.0899686  0.095055969    7922.6544    6062.8491    11445.503    6394.0496    2493.8526    1106.6642    3966.2135 
  113000    236.09051   -166.59101    -135.8603   -166.59101            0     6663.803    18.176439    22.676846    19.361164  -0.12238029   -7.2023068   -0.0666269    7980.3679    5785.0022    6831.1508    7375.2559    -731.5317     598.4112    1676.3436 
  113500    244.04289   -166.91159   -135.14575   -166.91159            0    3616.2306    18.051703     22.71849    19.279663  0.049075496   -7.1233902  -0.11780118    7906.7333    802.46897    5033.1829    5013.0398   -2333.4816   -56.272409   -2120.9884 
  114000    245.75535   -167.56346   -135.57473   -167.56346            0    4059.4487    18.040215    22.670582    19.392529   0.23149171   -7.1165062  0.021916063    7931.1986    3170.0434     3106.585    5901.7176   -1075.9768    2057.3727   -1791.4507 
  114500    242.69145    -165.3738   -133.78387    -165.3738            0    2798.7893     18.09744    22.677081    19.402634   0.29270557   -6.9589587   0.18805515    7962.7851    4183.7445    3513.9052    698.71817   -38.377849   -946.34385   -381.73814 
  115000    243.24027   -166.14455   -134.48318   -166.14455            0    2978.5632     18.22283    22.567015    19.247349 -0.058911506   -6.7208417    0.1472552    7915.1811     2359.881    1649.6705    4926.1383    957.19763    1150.9954    638.35783 
  115500    241.99604   -165.82246   -134.32305   -165.82246            0    2304.2434    18.211975    22.568154    19.394572  -0.39887859   -6.5222539  0.050177023    7971.3757    5017.2483    200.68502    1694.7967   -2026.2678   -3454.6501   -989.78748 
  116000    231.92587   -166.15709   -135.96847   -166.15709            0    4237.8387    17.965238    22.567616    19.464003  -0.36448697   -6.5200756  0.089743096    7891.3415    5007.0993    4562.0585    3144.3583   -1313.4566    1060.4888   -698.75653 
  116500    249.78102   -167.09871   -134.58597   -167.09871            0      5157.52    17.954684    22.616136    19.546667 -0.039570936   -6.7596588   0.18081427    7937.2284    3714.6762    6828.3258     4929.558    1794.1599    2326.8824   -1427.7716 
  117000    229.68946   -166.97719   -137.07967   -166.97719            0    3335.0454    18.082829    22.663423    19.363479   0.19681715   -7.1118221   0.10761493    7935.5174    3876.8639    3403.7554     2724.517    381.64745   -1586.4948    1341.7521 
  117500    233.04309   -167.14101   -136.80696   -167.14101            0    2128.7934    18.190108    22.617971    19.228817   0.11184364   -7.3102086 -0.066741959    7911.1841    309.47589     2708.324    3368.5804    2623.6576     706.6313    1633.7931 
  118000    241.37989   -168.22325   -136.80404   -168.22325            0    5605.2335     18.15254    22.672661    19.251201  -0.01735188   -7.3267284  -0.17299545    7923.1473    5853.5187    4583.2813    6378.9003    454.88313   -1903.7951    1552.8618 
  118500    242.76623   -166.70291   -135.10325   -166.70291            0    3491.5569    18.105323    22.759088    19.335657 -0.090980204   -7.1453568 -0.060448726     7967.463     2689.561    4042.0895    3743.0202    142.97914   -443.28016    271.56537 
  119000    242.58758    -167.6144   -136.03799    -167.6144            0    4669.9325    17.963967    22.644404     19.36362 -0.079368169   -6.8669266   0.22359769    7876.7975    6183.0454    5117.8863    2708.8656   -968.74769   -955.27019   -3409.7579 
  119500    242.93735   -166.43977   -134.81784   -166.43977            0    2336.6042    18.076215    22.669527    19.436499  -0.09455066   -6.6939084   0.23611374    7964.6737    2903.2384    2616.0285    1490.5457    1288.2255    2218.4943    983.64519 
  120000    240.61937   -166.48948   -135.16927   -166.48948            0     6109.186    18.146634    22.589945     19.34546  -0.11483792   -6.5626546  0.026023847    7930.3127    9276.3418     4874.124    4177.0921    -2691.318   -690.61188   -2261.0788 
  120500    240.95896   -167.03805   -135.67363   -167.03805            0    8522.5185    18.120879    22.496539    19.313793 -0.049373041   -6.5756446  -0.21463806    7873.4044    12098.268    5858.2136    7611.0742     704.7807   -1782.9434     2780.028 
  121000    238.79103   -166.46777   -135.38554   -166.46777            0    1287.4721    18.096956    22.711483    19.564741   0.17806229   -6.7696271  -0.20440525    8041.2791    4026.4794    508.89521   -672.95822    1403.9649    1095.1181    1051.2271 
  121500    235.93099   -165.66775    -134.9578   -165.66775            0    6239.5809    17.925691    22.524113    19.345948   0.32121233   -7.0402476 0.0073674448    7811.1258    5396.2971    8706.7636    4615.6819   -1061.2121    931.57421   -274.88253 
  122000    240.30014   -165.44051   -134.16185   -165.44051            0    3656.5928    18.186656    22.780833    19.336483   0.14932747   -7.3425737   0.13308587    8011.2431    2934.0525    2469.1406    5566.5853   -542.53551    1359.0629    440.36669 
  122500    245.24496   -164.18384   -132.26154   -164.18384            0    3220.8481    18.109349    22.703059    19.233258 -0.087665563   -7.3181566  0.094099227    7907.5159    3915.1096    3001.9773    2745.4574    1352.1229    595.44161    2362.8467 
  123000    238.87806   -166.02645   -134.93289   -166.02645            0    4295.2124    18.110024    22.641284    19.369186  -0.21137494   -7.1829351  0.063182181    7942.0284    4329.1246    4107.9123    4448.6003    2897.4496   -14.390866    1064.8972 
  123500    235.11359   -165.52567   -134.92212   -165.52567            0    4735.8009    18.041458    22.656096    19.435189  -0.21038834   -6.9055466   0.07203969    7944.1143    2244.9712    4380.0191    7582.4125    2167.4825    777.50499    173.79443 
  124000    243.74868   -166.67562   -134.94808   -166.67562            0    2997.0897    18.055737     22.65432    19.275272 -0.020591442   -6.7004727   0.06250982    7884.3659    8544.0257    2708.0306   -2260.7872   -3475.2214   -1835.1832    3466.2435 
  124500    246.64464   -166.42579    -134.3213   -166.42579            0    2013.3481    18.124923    22.827715    19.245536   0.17358146   -6.6098417   0.02961052    7962.8519    2350.0192    1231.3268    2458.6984   -135.93386   -464.72605   -753.53142 
  125000    248.40883   -165.78524   -133.45111   -165.78524            0    8143.7293    18.071445    22.752395    19.235564   0.25213914   -6.6395931 0.0064502368     7909.061    7319.9649    9493.7153    7617.5077   -41.371264    2748.8843    1745.2198 
  125500    237.21899   -164.92818   -134.05058   -164.92818            0    5695.2919     18.06523    22.726039    19.409832   0.18712981   -6.8427498 -0.069012275    7968.7284    3754.8222    7595.1912    5735.8622   -36.401935    -792.5241    -2918.615 
  126000    242.24288    -166.1767   -134.64516    -166.1767            0    3432.8596    18.039495    22.649708    19.582947   0.07637147   -7.0927256  -0.12422287    8001.3823    4087.6984    5002.1542    1208.7261   -878.40278   -1785.9641    865.24015 
  126500    234.00852    -167.4253   -136.96559    -167.4253            0    6998.4858    18.000021    22.367448    19.402556 -0.029656688   -7.3019051 -0.026898571    7811.7513    8539.9271    6126.2396    6329.2908    880.84982     171.2434   -230.69198 
  127000    237.91678   -166.21339   -135.24496   -166.21339            0    4891.3427    18.382689    22.559956    19.376257 -0.069826714   -7.4451347   0.11919735     8035.579    1806.8238    4069.6022    8797.6022   -602.98666   -120.31111   -2524.0871 
  127500    240.88619   -166.05903   -134.70409   -166.05903            0    5423.0139    18.232553    22.487543    19.235589  -0.12374514   -7.2351199   0.15545875    7886.6938    6058.0674    4330.6756    5880.2988    683.33801    -1071.485    2798.8073 
  128000    242.33691    -167.2168   -135.67302    -167.2168            0    6423.8498    18.123727    22.696375    19.327447  -0.14067793   -6.9788677   0.13215984    7950.2083     7740.576    5956.3436    5574.6298    4516.1927    -1830.586   -275.71258 
  128500    238.47109   -165.74957   -134.70899   -165.74957            0    5588.7739    18.004569    22.821783    19.341975  -0.06045846   -6.7470757  0.065546878    7947.5473     5107.966    6173.8179    5484.5379    226.08687    692.58293    2289.3336 
  129000    240.18954   -164.99532   -133.73106   -164.99532            0    3129.8786    17.917479    22.799035    19.338011   0.11866147   -6.5608846 -0.023986603    7899.6012    2685.9547     3623.955    3079.7262   -1783.7848   -1239.3323    963.92668 
  129500    240.58883   -165.73203   -134.41579   -165.73203            0    4892.9114    18.064261    22.776487    19.353371    0.2627984   -6.6494545   -0.1042683    7962.7589    4142.8535    5747.2127    4788.6679    667.16498    1176.2233    505.45303 
  130000    242.04148   -167.68336   -136.17804   -167.68336            0    5323.6104    18.144522    22.576905    19.330409   0.15842193   -6.9349546 -0.087542955    7918.6468    4194.0561    6499.3489    5277.4261    1300.0207    1088.1176    2355.7816 
  130500    244.81538   -166.63727   -134.77089   -166.63727            0    4969.1348    18.153366    22.430359    19.407033 -0.065719727   -7.2994097  0.039877989    7902.2822    4138.0708    6972.2421    3797.0914    4097.8823    1250.6978    945.32301 
  131000    234.06322   -167.16177   -136.69494   -167.16177            0    3848.8508    18.174883    22.491789       19.584  -0.19854779   -7.4735633   0.16616363    8005.6574    5591.4421    1859.6871    4095.4233     -1077.69    1592.4973   -438.15992 
  131500    225.07132   -165.77709   -136.48069   -165.77709            0     9499.421    18.071889    22.407911    19.385243  -0.20911227   -7.3117699   0.20777083    7850.1177    9167.8981    11436.188    7894.1771   -1053.0721    2289.5242   -2279.8101 
  132000    234.09346   -166.63161   -136.16085   -166.63161            0    4569.6054    18.172895    22.669126      19.2559   -0.1793514   -7.0219976  0.092070909    7932.7305    7573.3659    2473.9904      3661.46   -469.36786   -483.25241    1433.3085 
  132500     238.2087   -164.67249   -133.66606   -164.67249            0    4160.3811    18.154636    22.842258      19.2704 -0.063127211   -6.6798413 -0.040506844    7991.2976     5335.339    2423.4034    4722.4009    65.084545   -845.31133    657.68892 
  133000    251.77702   -165.73597   -132.96342   -165.73597            0    8762.9499    17.971906    22.735673    19.285014  0.061151121   -6.3701021  -0.10000664    7879.9218    3959.1569     8511.023     13818.67   -372.00522    1367.8319    2588.7136 
  133500    246.03462   -166.15311   -134.12803   -166.15311            0    6180.0897    17.996483    22.794637    19.509223    0.1738672   -6.4127712 -0.042957497    8003.1378    3544.6152    8617.0175    6378.6364    1426.7379    973.84151    541.09714 
  134000    237.28643    -168.1181   -137.23172    -168.1181            0    6311.6917    18.023389    22.554045    19.454291   0.17620018   -6.6555139  0.041579071    7908.1762    4847.6979    6288.6125    7798.7648    549.61947    1963.3981   -3314.8771 
  134500    234.96017   -166.48323   -135.89965   -166.48323            0    5183.6124    18.178388    22.385582    19.384672  0.059354351   -7.0202612  0.089995089    7888.2781    2283.3385    7175.4638    6092.0348    791.98971   -152.02896    230.68904 
  135000    228.03265   -166.67146   -136.98959   -166.67146            0    1499.2902    18.258738    22.637813    19.405311 -0.058420424   -7.2441601  0.025707657    8020.9507    269.01918    2361.0306    1867.8207    122.24863    1994.1385   -2633.6834 
  135500    237.73816   -166.65161   -135.70643   -166.65161            0    6055.7658    18.074596    22.594804    19.227163  -0.15723417   -7.1877638 -0.047411236    7852.2188    2969.6645    5528.5213    9669.1117    445.12496    142.54393     2529.163 
  136000    240.73435   -166.31512   -134.97994   -166.31512            0    460.44494    18.018989     22.88919    19.336407 -0.046900244   -7.0148359  0.022542584    7975.1092    1354.8578   -74.656429    101.13346    142.56886    992.47128   -1059.7608 
  136500    242.16997   -166.04552   -134.52347   -166.04552            0    5217.5559    18.040617    22.838046    19.255257   0.10183699   -6.7803064   0.16338803    7933.4053    6429.1466    4153.2599    5070.2612   -867.88186   -1290.8128   -4.6115711 
  137000    241.89327   -166.76503     -135.279   -166.76503            0    5804.8777    18.090662     22.67336    19.231809  0.059492067   -6.6303142   0.10436381    7888.4282    3831.8901    6189.7453    7392.9978    1956.3645   -1969.9972    2929.8948 
  137500    254.01857   -166.72615   -133.66183   -166.72615            0    2740.8661    18.175572    22.605739     19.51176   -0.1136997   -6.6118295 -0.020180262    8016.8402     4523.208      4670.69   -971.29959   -1425.2425   -2478.6782     544.8616 
  138000    239.03228    -165.3477   -134.23407    -165.3477            0     8021.842    18.055673     22.36296    19.559399  -0.20053893   -6.6944255 -0.0042112471    7897.6611    6757.7356    9068.4446    8239.3459   -318.75877    1002.1218   -41.666051 
  138500    243.88248   -167.16538   -135.42043   -167.16538            0     3182.913     18.15042    22.430695    19.491077  -0.16302769    -6.965903   0.08099914    7935.3346    2508.7944    3115.0707     3924.874   -886.79283   -2670.8857   -481.34709 
  139000    231.83293   -167.22433   -137.04781   -167.22433            0    6852.7839    18.254427    22.602362    19.275322 -0.063042671   -7.3269997   0.15527729    7952.8661    2459.5648    9528.5525    8570.2343   -600.18645   -673.95446    -1320.727 
  139500    234.09915   -166.76851     -136.297   -166.76851            0    6133.3232    18.124081    22.705514    19.109019 -0.045539625   -7.4583103   0.10976732    7863.6777    3518.4708    6903.2265    7978.2721    2152.1498    503.02652    2026.2503 
  140000    241.06177    -166.1961    -134.8183    -166.1961            0    4225.7525    18.053086    22.898817    19.417105  -0.04359965   -7.4147222 -0.058760951    8026.9209    4983.7805    4477.8905    3215.5864    1618.2489    1497.0384    4202.7158 
  140500    248.41409   -165.89385   -133.55904   -165.89385            0    6696.3251    17.834146    22.812553     19.43159  0.063131168   -7.0625096  -0.11485609    7905.5949    9175.5542    4797.5846    6115.8366   -2781.1735    1221.4463   -1999.3128 
  141000    237.08361   -166.11138    -135.2514   -166.11138            0    4752.7359     18.06466    22.696224    19.361101    0.1351499   -6.7921509  -0.02900802    7938.0434     596.9056    8032.7125    5628.5897    -1101.874    1024.1058   -231.81574 
  141500    233.02504   -165.98112   -135.64943   -165.98112            0     4317.909     18.17731    22.620607    19.295876    0.1018697   -6.6398487 -0.011615417    7934.1128    3548.6515    4028.8585    5376.2172    2658.8559   -627.57469   -632.27814 
  142000    235.41276   -166.75932   -136.11683   -166.75932            0    3958.6561     18.08988     22.67966    19.319738  0.017703722   -6.5879073  0.029603163     7926.354    5184.5659    4834.8571    1856.5453   -3843.8748    17.103512   -2313.2084 
  142500    238.63478   -165.00196   -133.94007   -165.00196            0    3762.1497    17.978769    22.771223    19.413338   -0.2144195   -6.7073925  0.056313453    7947.7931    4755.6541    1794.7888    4736.0063   -1710.6662   -1098.5451    1264.1822 
  143000    244.29667     -166.133   -134.33413     -166.133            0    4195.3025    18.059966    22.734233    19.372827  -0.29608571   -6.9748439   0.12583697    7954.0852   -456.73538     7520.771    5521.8718    2162.9189    573.41194    1140.1212 
  143500    242.96142   -166.35627   -134.73121   -166.35627            0    4010.3567    18.236103    22.607771    19.256046   -0.1594884   -7.2537316      0.19004    7938.8371     6269.432     3286.607     2475.031    3546.4716   -301.24877   -70.842039 
  144000       241.56   -166.62185    -135.1792   -166.62185            0    4818.9999    18.319466    22.526585    19.238448  0.041556043   -7.3354563   0.14364466     7939.227    3213.0954    5262.0578    5981.8463    274.76784   -906.48067   -1916.0896 
  144500    246.25069   -167.24233   -135.18912   -167.24233            0    2435.3346    18.123933    22.493465    19.496411    0.1821845   -7.1991084  -0.06307163    7948.1027    7437.2381    598.25184   -729.48612    813.09058   -857.03913    169.45519 
  145000    247.59221   -165.94565   -133.71782   -165.94565            0    6028.9044    17.918822    22.517508    19.680381   0.14632698   -6.9357372  -0.27491139    7940.7819    10505.599    4903.9193    2677.1948   -1680.5601    103.30678    3708.7604 
  145500    244.89739   -165.67952   -133.80246   -165.67952            0    1676.0654    18.079089    22.682622    19.445982   0.03567464   -6.7093281  -0.18994986    7974.4303    550.86014     864.2806    3613.0555    1000.9952    -3139.254   -272.97878 
  146000    236.85747   -166.52224   -135.69169   -166.52224            0    5016.1762    18.219343    22.641987    19.158048 -0.025181092   -6.6542127  0.073022212    7903.1187    1998.5488    5937.2138     7112.766    581.64755    1002.1887    1557.1628 
  146500    236.85502   -166.96711   -136.13688   -166.96711            0    4710.3994    18.172715    22.704339    19.314646  -0.11648709   -6.7434707   0.28902494    7969.2127    2424.8129    4564.5663    7141.8189     2583.934    90.256959   -483.82528 
[...]
  365000    243.48091   -166.93859   -135.24591   -166.93859            0    4539.8405    18.125436    22.880916    19.245989 -0.069953629   -7.1529626   0.12120738    7981.8232     1814.312    6002.0911    5803.1184    1125.9196    1089.8162    2874.0807 
  365500    238.80209   -166.33622   -135.25256   -166.33622            0    6442.3279    18.121695    22.633275    19.278689  -0.13914306   -7.0909341   0.04780462    7907.2184    7295.1565    5558.0196    6473.8076    3072.0894   -388.76465   -3223.9059 
  366000     251.9828   -166.76939   -133.97005   -166.76939            0    5139.1887    18.167213    22.438409    19.445918 -0.096869902   -6.9668281  0.057787422    7926.9995    361.33947     8509.172    6547.0547   -117.34979   -879.01763    678.33012 
  366500     228.0468   -164.70307   -135.01936   -164.70307            0    6009.2965    18.153587    22.505596    19.554701 -0.044744827   -6.7915086   0.12772791    7989.2154    7064.3128    5800.3468    5163.2298    931.95946    1825.1697   -999.72632 
  367000    243.87718    -166.8222   -135.07794    -166.8222            0    8939.0723    18.066406    22.486232    19.370885   0.11076106   -6.6284555   0.16173117    7869.3328     8720.401      8872.41    9224.4059   -1186.0691   -1248.6423    -617.9142 
  367500    239.68878   -166.10736   -134.90827   -166.10736            0    6460.7762    18.084552    22.804995    19.275279     0.193823   -6.6481953  0.030557316    7949.4743    8616.1045    4157.2438    6608.9803   -707.06671    879.32247    484.62321 
  368000    239.82043   -165.44783   -134.23162   -165.44783            0    3253.4571     18.00738    22.999797    19.251827  0.073578499   -6.7388538  -0.17404908    7973.4538    3749.0665    3457.0248    2554.2799   -2523.8745    698.51925    637.38536 
  368500    244.82109   -166.90878   -135.04165   -166.90878            0    8519.4399    17.850467    22.900921    19.167309 -0.084632752    -6.841607  -0.16372638    7835.4449    8114.7132    5716.5612    11727.045   -2099.7908    1501.5136   -868.63533 
  369000    237.97272   -166.47634   -135.50063   -166.47634            0    4894.7638    18.106409    22.853562    19.449062  -0.19827176   -7.0957185  0.083507831    8047.9426    5795.2037    4401.2884    4487.7994   -697.75765   -1444.4469    487.89451 
  369500    242.22774   -166.18564   -134.65607   -166.18564            0    5478.7229    18.114107    22.432027    19.437195  -0.13319976   -7.1546813   0.27407295    7898.0347     3164.454    6913.4038    6358.3108   -426.39766    1022.6879   -350.99609 
  370000    252.10338   -166.38992   -133.57489   -166.38992            0    7862.8605      18.2292    22.392381    19.452419 -0.070405937   -7.1147501   0.21304455    7940.3837    10123.257     6317.788    7147.5363   -2907.1549    98.668985    -552.4063 
  370500    237.70863   -166.27063    -135.3293   -166.27063            0    1562.9735    18.195706    22.508478    19.459147  -0.13123397   -6.9413111 -0.057970091    7969.6423    3430.0406     1882.429   -623.54907    1146.9432     1119.141   -643.61241 
  371000    229.41206   -165.32347   -135.46206   -165.32347            0     5406.167    17.986994    22.593556    19.354472  0.014517395   -6.7645151  -0.24549726    7865.4668    4525.6493    5993.8636     5698.988     -1032.96   -24.463926    4372.4974 
  371500    235.60395   -167.00503   -136.33765   -167.00503            0    6524.5575    18.029358    22.810971    19.338992   0.29295357   -6.7469939   -0.1541471    7953.4924     5796.117    4969.4385    8808.1169    1284.9235   -1086.2292    1806.2038 
  372000    240.54338    -166.5711   -135.26077    -166.5711            0    4077.3093    17.990315    22.809649    19.262214   0.34421405   -6.7840733  0.093047623    7904.3027    2176.6953    4097.9251    5957.3076   -329.02336    1352.3958   -539.94687 
  372500    243.23696   -168.20192   -136.54099   -168.20192            0    5203.7759    17.992857    22.823695    19.309755  0.072921178   -6.8557488   0.19943045    7929.8112    2147.3629    5657.9008     7806.064    1059.9985    185.83832    121.11926 
  373000    227.38723   -168.30107   -138.70322   -168.30107            0    4181.5023    18.038348    22.647197    19.302423  -0.36093952   -7.0026907   0.10991054    7885.3874    4429.2068    3271.8199    4843.4802    2479.1727    -1849.707   -87.734509 
  373500    229.98556   -166.66166    -136.7256   -166.66166            0    4975.6594    18.143012    22.510458    19.306101  -0.51702646   -7.1643939  0.048497179    7884.7565    4281.9625    5048.9147    5596.1011    1050.5172    1713.3188    2897.7171 
  374000    244.53092   -166.44471   -134.61536   -166.44471            0    5721.0908    18.260252    22.444394    19.435267  -0.18501647   -7.2321867  0.064936163    7965.3554    2547.8134    7045.6977    7569.7612   -3404.4008   -1467.1744    1982.8689 
  374500    241.31446   -164.78987   -133.37918   -164.78987            0    6545.3666    18.062191    22.396746    19.474646   0.22611704   -7.1215197  0.057339971    7878.1621    11365.174     5889.365    2381.5612   -3229.5071    1095.2167   -308.77652 
  375000     248.5984   -165.59564   -133.23683   -165.59564            0    2669.1455    18.165213    22.598682     19.55247   0.36688228   -7.0654867 -0.037077303    8026.4821    5283.4187    742.52872    1981.4892    1552.7717     1299.027    405.57604 
  375500    247.64735   -167.17569   -134.94068   -167.17569            0    9164.6338    18.047079    22.596817    19.307222   0.19878981   -6.8748125  -0.19098961    7873.6115    6665.2769    8268.7225    12559.902   -1644.8295   -776.46509    2741.1361 
  376000    238.70176   -165.99528   -134.92468   -165.99528            0    5693.2964    18.060792    22.760703    19.264483  -0.14474488   -6.7784606  -0.18082966    7919.1728    5836.0478    5109.9032    6133.9382   -1308.9014    -1096.671    748.76732 
  376500    251.20343   -166.28753   -133.58964   -166.28753            0    3362.9883    18.129666    22.723834    19.340688  -0.30000242   -6.8156094 -0.020243868    7967.8902    1314.4999    4520.4932    4253.9719    1003.2475    1895.1739     346.5453 
  377000    233.08262   -166.84261   -136.50341   -166.84261            0    6481.1524    17.999678    22.659526    19.379564  -0.18078835   -6.8198488   0.27754076    7904.2301    7384.7521    6112.9629    5945.7421   0.11915152    146.62022   -3425.9579 
  377500    236.36927    -166.7235    -135.9565    -166.7235            0    2838.8797    18.024643    22.593875    19.458265  0.031726393   -6.9753236   0.36805518     7924.311    3240.1246    3432.6841    1843.8302    651.07068   -1138.3179     2012.227 
  378000    242.96312   -166.94688    -135.3216   -166.94688            0    3887.3092    18.129975    22.590081     19.42873   0.12412561   -7.2029675 -0.050997345     7957.184    4138.3866    4143.6978    3379.8431   -3015.9737   -20.303466     918.6339 
  378500     236.1658    -167.5945   -136.85399    -167.5945            0    5772.1451    18.168366    22.555721    19.362221   0.19695844   -7.2847461  -0.51474428    7934.6498     6300.747    4102.1425    6913.5459    -359.4891    1844.0109    3877.5355 
  379000    233.71576   -165.69485   -135.27325   -165.69485            0    3383.1758    18.162103    22.587164    19.358703   0.24962416   -7.2267794  -0.38670123    7941.5285     4475.234    5049.5988    624.69444   -1630.8925   -33.904036    662.57894 
  379500    232.49153    -165.9463   -135.68405    -165.9463            0     5480.631     18.12644    22.691903    19.396164   0.22919075   -7.0303163   0.11190803    7978.0964    4012.2038    5865.4219    6564.2673   -1561.0573   -549.47046   -1158.2831 
  380000    245.01063   -168.13713   -136.24533   -168.13713            0    6457.2092    18.013388    22.617801    19.387843  0.061200514   -6.9084972   0.30466013    7899.0573    8071.2881    5390.1912    5910.1482    607.75189    2216.8894   -1266.0213 
  380500    242.09046   -168.27172   -136.76002   -168.27172            0    6276.6787    18.097183    22.650202     19.39529  -0.15996734   -6.8696532   0.16760811    7950.2234    7396.1537    5993.9038    5439.9786   -422.18302   -490.04416    667.73639 
  381000     237.6109   -166.80052    -135.8719   -166.80052            0    3876.9033    18.090664    22.679287    19.277689   -0.1981048   -6.8860262 -0.057035539    7909.3153     1316.737    6698.8998    3615.0732     -2565.98   -419.20477   -69.716408 
  381500    253.27169   -165.47983   -132.51273   -165.47983            0    6895.4705     18.13253    22.779696    19.364147  -0.02225491   -6.9387466  -0.15656933    7998.4291     2940.228    7511.0231     10235.16     4551.113    449.52813     2804.883 
  382000    243.66551   -166.22055   -134.50383   -166.22055            0    6143.2339     18.06848    22.718106    19.354858   0.23825282   -7.0244461 -0.095589323     7944.814    8624.0972    6850.3271    2955.2773   -2400.9605    1870.8586    636.71607 
  382500    246.43049   -164.72612    -132.6495   -164.72612            0    4004.2109    18.010047    22.734057    19.392007   0.28807001   -7.0002572   0.01276942    7939.8907    4381.2843    3019.3498    4611.9985   -2056.2402   -1168.3916    3112.3601 
  383000    239.75709   -164.92646   -133.71849   -164.92646            0    8007.8112    18.084989    22.757632    19.359455  0.035079919   -6.9611727   0.15239985    7967.8001    8716.1365    6121.8668    9185.4304     59.72129    -1020.772    2444.3645 
  383500    241.86477   -163.99322    -132.5109   -163.99322            0     6628.182    18.222305    22.617985       19.303  -0.46193039    -6.856744   0.18871303    7955.7669     3789.832    10061.876    6032.8383    2137.9315    1405.4047    745.00702 
  384000    242.10285   -166.30966   -134.79635   -166.30966            0    4725.0716    18.178547    22.634601    19.340057  -0.68066036   -6.7012472   0.15402321    7957.7403      6563.95    5893.7547    1717.5101   -230.38325    309.22256   -1346.2109 
  384500    230.37165   -165.40534   -135.41902   -165.40534            0    3186.9876    17.998087    22.582471     19.44797  -0.36503963   -6.6047428  0.090885828    7904.4577    3635.8531     3663.357    2261.7526    3801.0962   -1513.1229    318.33694 
  385000    232.01571   -166.68334   -136.48303   -166.68334            0    6220.3945    18.027426     22.57872    19.535554   0.17175268   -6.6775375  0.068827269    7951.6779    7931.5196    6114.2068     4615.457   -1423.1502    1052.4102    -181.3913 
  385500    233.40046   -167.38965   -137.00908   -167.38965            0    4193.8976     18.07544    22.594421    19.425209   0.40501784   -6.8362559  0.045062994    7933.3347    5555.2138     4166.777     2859.702    1173.7641   -510.09697   -2761.8878 
  386000    232.80956   -165.73864     -135.435   -165.73864            0    4294.9698    18.179722    22.722303    19.286902   0.20716734   -7.0214692 -0.075306169    7967.1329    4465.3713    6283.0702    2136.4678    542.29289    1896.3164    641.88767 
  386500    240.42727   -164.87963   -133.58443   -164.87963            0    3430.0198    18.111824    22.784318    19.231237  -0.14282812    -7.161593   -0.1286909    7936.0687    2600.7766    2917.1133    4772.1694    375.92987    1161.0808    1038.2641 
  387000    237.65974    -166.3451   -135.41013    -166.3451            0    5786.4473     18.05329     22.71951    19.395236  -0.35699609   -7.1517492  0.086381112    7955.1866    5231.6113    7735.7732    4391.9574    2348.1693   -286.99247    2102.4302 
  387500     233.9662   -166.14029   -135.68609   -166.14029            0    6577.2604      18.0633    22.488277    19.486211  -0.29395243   -7.0416172   0.29450393    7915.5423    8395.8891    6836.3982     4499.494    556.07152    748.59126   -3017.5863 
  388000    233.16531    -167.8913   -137.54135    -167.8913            0    4055.8572    18.218742    22.459904    19.411023  -0.16991187   -6.9571255   0.28147222    7942.8194    5661.5422    4730.2421    1775.7872   -707.49417    1078.9582    318.54734 
  388500    240.43732   -168.24564   -136.94912   -168.24564            0    4468.7422    18.193391    22.587872    19.318149 -0.016723341   -6.6757364  0.069847378    7938.7932    6378.1077    5405.9603    1622.1586   -53.810327   -1646.3991   -1376.9462 
  389000    231.36534   -166.56436    -136.4487   -166.56436            0    6460.5586    17.997738    22.647287    19.334766   0.14782961   -6.4410191  -0.24671212    7880.8495    7238.8004     5262.789    6880.0865    1335.8936   -3630.3881   -3311.8627 
  389500     230.4355   -166.68782   -136.69319   -166.68782            0    2319.6846    17.994443    22.827134    19.454178   0.26890057    -6.458616  -0.31068196    7991.0283    5543.9052    57.907683    1357.2409   -514.21026   -1410.3877    1540.7712 
  390000    233.53996   -167.22455   -136.82582   -167.22455            0    3718.5064    18.065397    22.600061    19.282917   0.30348567   -6.7966547 -0.062969058    7872.8115    4722.6734    5172.5879    1260.2578    -15.25465      180.984   -1031.0443 
  390500    240.10095   -166.28645   -135.03372   -166.28645            0    2396.1763    18.273554    22.651407    19.235273  0.041350909   -7.2401323   0.20011176    7961.8973    7100.6871   -235.39081    323.23252    1971.9997   -329.41709   -1723.8527 
  391000    248.02987   -165.94683   -133.66203   -165.94683            0    37.727193    18.261439    22.568657    19.280063  -0.29617415   -7.4331945   0.28058323     7946.011    727.92685   -2270.1936    1655.4483   -1891.6883   -620.05557   -2355.3156 
  391500    245.10325   -164.17221   -132.26836   -164.17221            0    3634.5357    18.094381    22.607742    19.435047  -0.41177595   -7.2981928   0.23784428    7950.3546    5988.3244    2057.5231    2857.7594    1524.9425   -358.56382    -465.6851 
  392000    226.04269   -167.24885   -137.82601   -167.24885            0    1308.3373    18.028731    22.676608    19.483271  -0.21363748   -7.0201062   0.12126882    7965.3547    1313.9699    1856.7442    754.29773   -38.943229    609.46616   -2443.7714 
  392500    234.52648   -167.36327   -136.83614   -167.36327            0    1692.2484    18.012181    22.622873    19.327478  0.050048183   -6.8152841  0.011820477     7875.701    1581.5854    3445.7795    49.380467   -234.90768   -1092.2052    -342.0993 
  393000    233.70681   -165.05604    -134.6356   -165.05604            0    2416.4586    18.118937    22.786431    19.281126    0.1514414   -6.7503512 -0.018482639    7960.5196    7355.8912    1161.0536    -1267.569   -1314.1283   -18.421661    645.17446 
  393500      252.976    -165.1046   -132.17599    -165.1046            0    7209.3453    18.138327    22.644947    19.285542  0.052373537   -6.7584692 -0.034631818    7921.3717    3751.2787    8699.2507    9177.5064   -3280.9017   -1880.4361    108.29832 
  394000    242.95268    -167.8471   -136.22318    -167.8471            0    180.14332    18.065586    22.624255    19.497488 -0.063910843   -6.8606323 -0.025912813    7969.0216   -230.91481   -678.54433    1449.8891    311.33749    485.05159    144.78662 
  394500    236.26999    -167.0591   -136.30502    -167.0591            0    3401.5419    18.034061    22.547874    19.562319  -0.22153484   -7.0871336  0.070026416    7954.6204    2543.8006    4338.4322    3322.3928   -227.81613   -2164.1197   -391.59979 
  395000    246.08924   -166.93328   -134.90108   -166.93328            0    5093.5749    18.218825    22.532644    19.383207  -0.31861677   -7.2746643   0.13502509    7957.1611    2655.4935    4587.7416    8037.4895   -851.72855   -404.61874   -87.526106 
  395500    241.91776   -168.07338   -136.58416   -168.07338            0    5164.6063    18.339463    22.561573    19.097917  -0.20868367    -7.341821   0.11213309    7902.0904    4925.7495    4397.8313    6170.2379    -1378.438    520.05975   -3320.6808 
  396000    224.92512   -166.56358   -137.28621   -166.56358            0    7335.9085    18.142073    22.803621    19.265477 -0.0068119275   -7.0942823  0.010172483    7970.2231    4184.1693    8705.3496    9118.2067    1890.3864    1286.9049    617.75215 
  396500    225.22167    -166.0976   -136.78162    -166.0976            0    3660.1545    17.803257    22.821744    19.473879   0.15535197   -6.7083299 -0.075497793    7912.2639    3705.4363    4358.9278    2916.0996   -1444.8677   -174.70327    268.73477 
  397000    233.09289   -166.05419   -135.71366   -166.05419            0    4806.6171     17.90734    22.835395    19.407013   0.19425622   -6.5682812  -0.05469312    7935.9388    6340.4331    2144.9111    5934.5072   -959.93168    -834.3128   -1588.7003 
  397500    238.92446   -165.78769    -134.6881   -165.78769            0    3021.4473    18.184981    22.675327    19.258938  0.031119847   -6.6310283  0.042794329    7941.4304    2973.4647    2317.2986    3773.5787   -920.04863   -2288.6942   -4664.2103 
  398000     234.5283    -166.2296   -135.70224    -166.2296            0    6404.2345    18.273038    22.528571    19.259315  -0.22138967   -6.7759254   0.10964299     7928.394    5334.0684    8873.6712    5004.9639    -738.9777    470.07009     671.3744 
  398500    241.96737   -165.94198   -134.44631   -165.94198            0    5070.5576     18.17226    22.560179    19.387763  -0.35700353   -6.9532976  0.063529532    7948.3907    11101.979    2296.0679    1813.6256   -1300.7545   -1500.3371   -1010.3982 
  399000    224.71996   -167.57004   -138.31937   -167.57004            0    5674.0967    17.976782    22.677802    19.551817  -0.30989502   -7.0869871   0.01572781    7970.7655    5110.6258    5720.2507    6191.4135    388.31715   -483.84658     1207.965 
  399500    235.09505   -166.50251   -135.90137   -166.50251            0     7146.893    17.843849    22.760581    19.412219 -0.080762014   -7.1226096  0.052400995    7884.0082    13256.474    4749.7392    3434.4656   -79.186584   -421.16762   -975.26848 
  400000    236.91492    -168.5906   -137.75257    -168.5906            0    5674.6398    18.123125    22.857597    19.227004   0.18627269   -7.2001276  0.073570286    7964.8069    4955.1161    6527.0818    5541.7216    91.794289   -197.36042    724.62932 
Loop time of 2571.3 on 1 procs for 400000 steps with 1008 atoms

Performance: 6.720 ns/day, 3.571 hours/ns, 155.563 timesteps/s
70.9% CPU use with 1 MPI tasks x 1 OpenMP threads

MPI task timing breakdown:
Section |  min time  |  avg time  |  max time  |%varavg| %total
---------------------------------------------------------------
Pair    | 2210.2     | 2210.2     | 2210.2     |   0.0 | 85.96
Bond    | 0.06046    | 0.06046    | 0.06046    |   0.0 |  0.00
Neigh   | 328.23     | 328.23     | 328.23     |   0.0 | 12.77
Comm    | 11.656     | 11.656     | 11.656     |   0.0 |  0.45
Output  | 1.9805     | 1.9805     | 1.9805     |   0.0 |  0.08
Modify  | 17.512     | 17.512     | 17.512     |   0.0 |  0.68
Other   |            | 1.629      |            |       |  0.06

Nlocal:        1008.00 ave        1008 max        1008 min
Histogram: 1 0 0 0 0 0 0 0 0 0
Nghost:        5091.00 ave        5091 max        5091 min
Histogram: 1 0 0 0 0 0 0 0 0 0
Neighs:         0.00000 ave           0 max           0 min
Histogram: 1 0 0 0 0 0 0 0 0 0
FullNghs:      270224.0 ave      270224 max      270224 min
Histogram: 1 0 0 0 0 0 0 0 0 0

Total # of neighbors = 270224
Ave neighs/atom = 268.07937
Ave special neighs/atom = 0.0000000
Neighbor list builds = 40000
Dangerous builds not checked

unfix		3
unfix		2

write_data	data.final.${pid}
write_data	data.final.0
System init for write_data ...

write_restart   restart.lmp.${pid}
write_restart   restart.lmp.0
System init for write_restart ...
Total wall time: 0:42:54
