LAMMPS data file via write_data, version 23 Jun 2022, timestep = 22575000

2268 atoms
2 atom types

0.8489073037054098 46.6017916962748 xlo xhi
0 20.047001 ylo yhi
0 20.857 zlo zhi

Masses

1 1.008
2 15.999

Atoms # full

2120 0 2 0.5897 1.7127825089521695 2.9107053427486536 1.9137396404391311 0 0 0
167 0 2 0.5897 4.1167361165097045 3.3189355891824173 1.7195838474823162 0 0 1
340 0 1 -1.1794 2.7679394072645356 2.7736124379303613 0.7537782265921376 0 0 0
166 0 1 -1.1794 4.955207474710578 3.4042510624229343 2.2391154621633613 0 0 1
168 0 2 0.5897 5.287291714752665 2.4704621700971385 2.2956170152122017 0 0 1
67 0 1 -1.1794 6.200691505258661 0.8517811650865943 2.7385349914561363 0 -1 3
1898 0 2 0.5897 4.689500492592217 0.7868250023984728 4.126540089237793 0 0 -1
1076 0 2 0.5897 1.20835750765358 2.038885153924341 3.900815708292277 0 1 1
68 0 2 0.5897 6.022390381986583 0.23581628453388104 1.9714558441137997 0 -1 3
342 0 2 0.5897 2.8707741537673392 1.849905963153797 0.4838497578442722 0 0 0
1594 0 1 -1.1794 2.892253061512857 0.07973858309334693 0.5878152690836334 0 0 0
2119 0 1 -1.1794 1.2259016033096792 3.1194412864962398 2.7334788929438165 0 0 0
1630 0 1 -1.1794 10.41144689694501 1.7569293374275212 1.3218352096115356 0 1 1
1632 0 2 0.5897 9.850922584003754 1.3575474656258886 1.9653202443618865 0 1 0
69 0 2 0.5897 7.115365166384487 0.7944019439507458 2.8740614863767955 0 -1 3
1631 0 2 0.5897 11.367627741918213 1.6271915188245398 1.4811853362816427 0 1 0
367 0 1 -1.1794 8.707952994875749 0.5903003975633971 3.494119410680366 0 3 0
2143 0 1 -1.1794 7.471348211092437 3.3441862461986327 0.7907834001508882 0 -1 1
2144 0 2 0.5897 6.708747325545378 3.3073057382037967 1.3817840471296614 0 -1 1
1294 0 1 -1.1794 12.045079844764189 3.8176801321639036 2.992071714401355 0 1 1
2145 0 2 0.5897 8.210921077433753 3.7722227214815716 1.274741380193778 0 -1 1
368 0 2 0.5897 8.8844287058764 1.3190576406650176 4.143436368972561 0 3 0
288 0 2 0.5897 9.011646058367555 4.00207801462018 3.655066726258886 0 -1 0
2028 0 2 0.5897 12.21957972992854 2.2612376296236256 3.8325995593888122 0 0 1
668 0 2 0.5897 10.346867953120077 3.1041189315803375 0.05225376511652851 0 2 0
225 0 2 0.5897 4.996550564491731 4.067782560379466 4.043255027738998 1 0 0
825 0 2 0.5897 2.6315487015128305 6.579105851035864 1.400448653215358 0 2 -2
2048 0 2 0.5897 1.9440339327936265 6.345171923600305 3.884351356493222 0 -2 1
823 0 1 -1.1794 3.067377340165819 6.884859366127346 0.5921769174388268 0 2 -1
2093 0 2 0.5897 4.958325758045629 6.521756940064033 0.8659341904554777 0 0 2
2092 0 1 -1.1794 5.9307220400716485 6.531445206421441 0.8608171764062764 0 0 2
2049 0 2 0.5897 1.769669196438541 5.086091072165938 2.981974596528494 0 -2 1
1398 0 2 0.5897 6.220628577998582 6.16846769147738 2.531093780339262 0 0 0
1396 0 1 -1.1794 6.343679524948778 5.993012701351541 3.4514182673610745 0 0 0
2094 0 2 0.5897 6.211916874617885 7.445722294598918 0.7074441399479879 0 0 2
2047 0 1 -1.1794 1.862942950987266 6.051200383733937 2.9712381733660345 0 -2 1
287 0 2 0.5897 10.292312456513097 4.086902637919781 2.7347498737217877 0 -1 0
286 0 1 -1.1794 9.376525931627539 4.456351055155542 2.875177998336277 0 -1 0
1106 0 2 0.5897 10.099100800621308 6.1432388643195 3.1293063089621964 0 -2 1
1105 0 1 -1.1794 10.825146870015772 6.731579837224697 2.9054903456733547 0 -2 1
1397 0 2 0.5897 7.103080972672695 6.496897550928701 3.8094509706715787 0 0 0
1107 0 2 0.5897 10.571106713883404 7.684719290658431 2.877378850640338 0 -2 1
1853 0 2 0.5897 10.19506450913562 6.303697589438909 1.0922088862292645 0 1 2
1854 0 2 0.5897 8.720251592078291 5.896813438635302 0.7366003798856792 0 1 2
1852 0 1 -1.1794 9.595765464988377 6.19517075480781 0.3598865131434865 0 1 2
335 0 2 0.5897 3.17835774080847 8.504330998267445 0.8918782722120773 0 0 0
636 0 2 0.5897 2.03098261397523 9.745060660419075 2.2588652037668644 0 -1 -1
1811 0 2 0.5897 5.067336681642616 10.896700712383712 3.4104796815771983 0 1 1
336 0 2 0.5897 3.7558840064796564 9.667923581105738 1.6656439518846202 0 0 0
256 0 1 -1.1794 5.601614729115068 10.62010956070431 1.470817143044015 0 2 3
1335 0 2 0.5897 1.5304748412501499 11.897765666654715 3.0068195667405746 0 -1 1
634 0 1 -1.1794 1.4004214977722753 10.033625000067206 2.963658245093288 0 -1 -1
334 0 1 -1.1794 3.047430584626241 9.420494722371812 1.0558088980923508 0 0 0
498 0 2 0.5897 2.0186625632346886 8.702190552327714 4.013149987689767 1 0 0
258 0 2 0.5897 6.34301655686511 10.298152488192004 1.949300759492674 0 2 3
257 0 2 0.5897 5.691408353269617 11.591633276901007 1.3620615028813012 0 2 3
1839 0 2 0.5897 10.90252831675073 9.846311225011123 2.170280485552253 0 0 2
1837 0 1 -1.1794 10.276981989554756 9.137467059903846 1.9472088636510418 0 0 2
1838 0 2 0.5897 9.381356474825374 9.571207400915688 1.9091031919367794 0 0 2
1633 0 1 -1.1794 7.723050583977892 9.874820960466673 3.222019569345809 0 0 0
1634 0 2 0.5897 8.283417890740855 10.514822344611286 3.692835913373438 0 0 0
1797 0 2 0.5897 9.922112315323265 11.578366087916702 4.001657966840335 0 -1 -1
1635 0 2 0.5897 7.592970336692327 9.159531490680244 3.8090087122627474 0 0 0
354 0 2 0.5897 8.64291668727822 11.54200295850882 1.2698985147428437 0 1 2
1043 0 2 0.5897 10.706918403310228 9.101744557597716 0.0737440224383956 0 -1 2
352 0 1 -1.1794 8.722781653711023 11.089762029374313 0.41571963491585906 0 1 2
847 0 1 -1.1794 12.242675742584257 11.013894234357132 2.1845652997447678 0 2 1
1333 0 1 -1.1794 1.6353532190493265 12.859356543296123 2.976943081600144 0 -1 1
1879 0 1 -1.1794 5.724982523603103 13.46481297758365 1.3736863717064034 0 2 2
1881 0 2 0.5897 5.974960589475137 13.405782015452447 2.314683870307648 0 2 2
1334 0 2 0.5897 2.054696438136695 12.963840652590914 2.0788955961046787 0 -1 1
561 0 2 0.5897 3.8341685016751623 13.514246971467534 0.9225226933968841 0 -1 0
559 0 1 -1.1794 2.915086616633055 13.49628647619636 0.6078156049177692 0 -1 0
560 0 2 0.5897 2.7432525823249714 14.459642695299433 0.47141791622103885 0 -1 0
1880 0 2 0.5897 6.050545969064346 14.343035830355573 1.103563430160432 0 2 2
1293 0 2 0.5897 1.687372255635791 15.676206516491568 3.305495209488193 0 -1 1
802 0 1 -1.1794 6.173913000485573 13.337953135518156 4.055769159563335 0 2 2
2099 0 2 0.5897 10.710627147241029 12.68164654168272 2.439330008653169 0 0 2
2098 0 1 -1.1794 9.771563329926053 12.707760863669376 2.490095932748081 0 0 2
2100 0 2 0.5897 9.486949936471143 13.623948107788909 2.7528178825501928 0 0 2
1060 0 1 -1.1794 9.096031559193573 15.116292212394097 3.449802734945358 0 0 -1
481 0 1 -1.1794 11.611887239895626 14.748888586714909 0.24467362867822454 1 -3 1
483 0 2 0.5897 11.786084876136211 14.659985211300754 1.2066085784798632 1 -3 1
1061 0 2 0.5897 8.487129749206815 15.664346616038573 2.961546401191383 0 0 -1
365 0 2 0.5897 10.281710230523636 15.965734793888723 0.05676894189250849 0 -2 1
1317 0 2 0.5897 1.40857148715192 18.336614277390698 2.777290061667561 0 0 0
1090 0 1 -1.1794 3.3848231464843015 16.64512100735721 0.8727743060371244 0 -1 0
1805 0 2 0.5897 5.103196668890991 16.431211893328836 1.162096402386399 0 0 0
1804 0 1 -1.1794 6.024382276368255 16.13236021651808 1.0422903512628454 0 0 0
1092 0 2 0.5897 2.7839981328979415 16.63167414079838 1.6531977999459442 0 -1 0
1291 0 1 -1.1794 1.3415131638261926 16.408660558269183 2.781600658232677 0 -1 1
1596 0 2 0.5897 2.38748618905053 19.739534846928944 1.2792659069016992 0 -1 0
356 0 2 0.5897 4.354397323476819 19.602556747392423 0.5690007875980747 0 0 1
355 0 1 -1.1794 5.263421010877552 19.296993956805565 0.8055870698763663 0 0 1
576 0 2 0.5897 4.2940165591873125 18.306623382274996 2.496964808751196 0 -1 0
574 0 1 -1.1794 4.326237226316539 17.949524113729662 3.3813284474785807 0 -1 0
575 0 2 0.5897 5.047948036304207 18.456233748647122 3.806219339883258 0 -1 0
1091 0 2 0.5897 2.8580820504471705 16.95876493210729 0.11139247317463433 0 -1 0
1806 0 2 0.5897 6.20521540311788 16.428047924843327 0.09062210573870555 0 0 0
357 0 2 0.5897 5.706320699513307 19.057321822298096 0.027647093604798736 0 0 1
1315 0 1 -1.1794 1.303183811876093 19.33929939599005 2.6423588475963258 0 0 0
369 0 2 0.5897 9.068374859440706 19.811556917221523 3.8287385483797185 0 2 0
1523 0 2 0.5897 9.688604227888009 19.827016382988802 0.5465388395269415 0 -2 0
1519 0 1 -1.1794 7.832543524562248 17.53150291621736 2.405472030724655 0 0 0
164 0 2 0.5897 11.33024747700467 16.343199814774092 2.814572672818262 0 0 1
1522 0 1 -1.1794 8.975535324986282 19.172417967221016 0.37322696801688326 0 -2 0
1521 0 2 0.5897 7.210630374026301 17.09885429001499 1.7543984857224393 0 -1 0
1520 0 2 0.5897 7.286207590494486 17.900539692082166 3.0777757313562546 0 0 0
165 0 2 0.5897 10.841590254876511 17.519309516598895 3.6064819534949613 0 0 1
163 0 1 -1.1794 11.22201716646276 17.27678455586388 2.7439214681234865 0 0 1
1524 0 2 0.5897 8.767271276374778 18.675096724380072 1.1491641865544302 0 -2 0
896 0 2 0.5897 11.520208666196009 18.342837392450086 1.2465383489029749 0 -1 2
895 0 1 -1.1794 12.135458117823905 18.821075567586355 0.5889503814912871 0 -1 2
1077 0 2 0.5897 1.4378858261793788 0.453535015979556 4.306052617295419 0 1 1
224 0 2 0.5897 4.638001467784296 3.0640358582931357 5.109138159505014 1 0 0
1075 0 1 -1.1794 1.3436074248994647 1.354238965274954 4.649712919865728 0 1 1
1897 0 1 -1.1794 4.296095559362142 1.1517919363657003 4.881212733440117 0 0 -1
1899 0 2 0.5897 3.3518195565336986 1.1261174055143357 4.804333202803405 0 0 -1
35 0 2 0.5897 2.6058548727623823 3.2991457986293695 6.581919721813252 0 0 1
36 0 2 0.5897 2.754668203638641 1.966200514628871 7.39781403477564 0 0 1
34 0 1 -1.1794 2.708715528000809 2.9167249166431466 7.475026362785736 0 0 1
1041 0 2 0.5897 5.869535617471036 1.1569936162637686 5.901572679142694 1 0 1
1040 0 2 0.5897 6.384446262348496 1.4405542187053906 7.310655132787738 0 0 1
223 0 1 -1.1794 4.786061301509836 3.980566763461725 4.974051218522082 1 0 0
598 0 1 -1.1794 3.1398108685207173 0.17100046851923095 7.626378661235567 0 0 0
1039 0 1 -1.1794 6.637719319629073 1.4759234679082618 6.369190472793665 0 0 1
610 0 1 -1.1794 10.716616444952155 3.0117031521976836 6.397866010068058 0 1 2
260 0 2 0.5897 9.071983716767235 3.022852269738762 5.584449467407463 0 -1 2
259 0 1 -1.1794 8.424207723949273 2.833027931106089 4.954613872787888 0 -1 2
261 0 2 0.5897 7.632339370766496 2.450326699877932 5.238712132814549 0 -1 2
612 0 2 0.5897 11.377406876479517 3.235219913043065 6.999411011908847 0 1 2
611 0 2 0.5897 11.076915066758662 2.322362820463135 5.777277789523904 0 1 2
1574 0 2 0.5897 8.460297704082489 0.3884503608265187 6.839401969333666 0 1 0
2026 0 1 -1.1794 11.858116519337507 1.6019452532956377 4.452555982208039 0 0 1
1575 0 2 0.5897 9.916726735219545 0.18259683935326243 7.44569356444071 0 1 0
893 0 2 0.5897 9.438570749610738 2.400950677166386 7.970982714953678 0 0 0
1643 0 2 0.5897 5.37625110071636 7.365984302037624 4.460006039508511 0 2 3
1023 0 2 0.5897 3.5611281983123195 4.734490077899888 5.358204798745923 0 0 -1
1021 0 1 -1.1794 2.637103760849441 5.1416183518042695 5.54949688096312 0 0 -1
1022 0 2 0.5897 2.738501953886413 6.017380992302463 5.925685368241027 0 0 -1
1303 0 1 -1.1794 3.4302509407109825 6.953456417065457 7.397355887784785 0 -1 0
545 0 2 0.5897 5.575787890432191 4.709296758624873 6.2710672233298075 0 0 1
1304 0 2 0.5897 4.257434934805248 6.486434808747517 7.604759231118809 0 -1 0
544 0 1 -1.1794 5.842271049802778 5.222000370170781 7.055534846923477 0 -1 1
1642 0 1 -1.1794 4.9853630192129 7.934254053103069 5.076419186312939 0 2 3
1644 0 2 0.5897 5.449748456165195 7.890643165035816 5.89927669723745 0 2 3
1305 0 2 0.5897 2.842398629236223 6.749874919055415 8.166949675264144 0 -1 0
48 0 2 0.5897 1.0206632528996025 4.566142879668512 5.817029066050724 0 0 0
546 0 2 0.5897 6.759738432407156 5.451545429994515 6.914666555781534 0 -1 1
1059 0 2 0.5897 9.304780796446218 5.506104421337527 7.155667256892216 0 1 -1
1780 0 1 -1.1794 10.472569235286198 5.853707229436502 5.647993612605254 0 -1 -1
1781 0 2 0.5897 11.109211624402317 6.394998564807532 5.2378700299127665 0 -1 -1
1782 0 2 0.5897 10.807367128324223 4.9337006245758666 5.757313036097805 0 -1 -1
838 0 1 -1.1794 8.07473293153232 7.490761491066919 4.949786808943012 0 0 0
840 0 2 0.5897 7.688192192777759 7.412959308944345 5.808613582969921 0 0 0
839 0 2 0.5897 9.005466443443913 7.221469704250397 5.110347879490682 0 0 0
1058 0 2 0.5897 8.668406283080506 4.406155596996527 7.983704918167076 0 1 -1
1057 0 1 -1.1794 8.56954249755238 5.368853527581562 7.828374279699681 0 1 -1
1812 0 2 0.5897 5.007977610686912 9.681261627484242 4.407988904640619 0 1 1
1810 0 1 -1.1794 4.655134644613387 10.543988904455153 4.1849715183444385 0 1 1
496 0 1 -1.1794 2.391425508987908 8.151527520642027 4.738956139054103 1 0 0
497 0 2 0.5897 3.359958687361891 8.043681807440937 4.691527318275169 1 0 0
591 0 2 0.5897 6.330626524589579 8.040741414607412 8.334423491450442 0 0 2
596 0 2 0.5897 3.3053895124359367 8.866443795422146 7.5016617701515 0 0 0
595 0 1 -1.1794 3.4524174359724467 9.797413460850693 7.698773266527382 0 0 1
597 0 2 0.5897 3.2984401085951 10.295354509318939 6.858836503135335 0 0 1
2076 0 2 0.5897 3.3761372683265054 11.861832510452263 4.927509329221971 0 0 1
2074 0 1 -1.1794 2.843838352682127 12.001084940827964 5.7233303842258865 0 0 1
1911 0 2 0.5897 6.448463393869933 11.621453291369606 7.115364245349005 0 -1 0
1910 0 2 0.5897 6.0127819521858346 10.971499389233875 5.710807880783379 0 -1 0
1029 0 2 0.5897 1.0065617609562585 11.724142239849463 6.311125835740224 1 0 0
1994 0 2 0.5897 0.8620259979917111 8.106641329007848 5.759160146192059 1 0 0
1795 0 1 -1.1794 9.717869991476308 10.99499435684974 4.794968067752219 0 -1 -1
135 0 2 0.5897 12.283813586772935 8.76986775959175 5.025570583299769 0 3 0
589 0 1 -1.1794 6.585018893483255 8.16814086421302 7.400607812498619 0 0 2
1909 0 1 -1.1794 6.608856473005571 10.881344614103986 6.481805034028638 0 -1 0
590 0 2 0.5897 6.597651987715004 9.12811923481445 7.189407008606153 0 0 2
1796 0 2 0.5897 10.319329515195356 10.202637597059425 4.806647011620809 0 -1 -1
134 0 2 0.5897 11.489644902157053 8.756408287646947 6.30535979578813 0 3 0
133 0 1 -1.1794 11.360576028582685 8.8407777528584 5.331980376161122 0 3 0
1682 0 2 0.5897 9.959937995350268 9.535925844296642 8.195395252507824 0 0 0
2103 0 2 0.5897 8.554274394356181 10.752259173894009 6.920311671490937 0 -1 1
2101 0 1 -1.1794 9.103591937123834 10.9739514948225 7.658052009386058 0 -1 1
1681 0 1 -1.1794 10.463649554210816 8.712557575385413 8.188743860770321 0 0 1
2102 0 2 0.5897 8.523405394136896 11.46715927025221 8.287781826527727 0 -1 1
2060 0 2 0.5897 10.954574237993993 11.806576949486978 7.294800730030432 0 1 1
2010 0 2 0.5897 1.9949522948333371 13.97028098098756 4.196296688719258 0 -1 1
803 0 2 0.5897 5.6262297915867014 14.037316533087422 4.467367717165372 0 2 2
2008 0 1 -1.1794 2.1274380949763128 14.817655234727155 4.671807379013237 1 -1 1
2075 0 2 0.5897 3.134466698297013 12.837856787415399 6.0904146326838005 0 0 1
2118 0 2 0.5897 3.862196038730509 15.488633757835041 5.148806121255389 0 0 0
2116 0 1 -1.1794 4.791854308328931 15.552856548126098 4.905708319247931 0 0 0
1807 0 1 -1.1794 3.189200435058272 13.888336190871552 7.95593023250469 0 -1 -1
1809 0 2 0.5897 3.339166965904315 14.858143284388392 7.990596725463014 0 -1 -1
1808 0 2 0.5897 4.077935735993906 13.530289075478409 8.11313565715923 0 -1 -1
385 0 1 -1.1794 5.995456795390805 13.23803497707869 8.077160205373564 0 0 0
386 0 2 0.5897 6.212941289724176 14.162134434970769 7.833691263957303 0 0 0
1545 0 2 0.5897 5.983118620105836 15.790177014499756 6.496285148967434 0 1 1
1543 0 1 -1.1794 6.512111193471109 15.814897578694685 7.325486791086559 0 1 1
2009 0 2 0.5897 1.4164228034617623 14.897504122343584 5.341285058426159 1 -1 1
2061 0 2 0.5897 12.245140919789376 12.083386722269093 8.028437731927268 0 1 1
1062 0 2 0.5897 9.073811470670838 15.344679307509791 4.384871690183782 0 0 -1
2059 0 1 -1.1794 11.84939601665407 12.17589324817704 7.16507692204063 0 1 1
804 0 2 0.5897 7.0351557130373985 13.672901857020422 4.408270684708846 0 2 2
419 0 2 0.5897 10.812731535824515 14.057591735533181 5.406275387373719 0 -1 -1
1887 0 2 0.5897 8.892050556505188 12.6463097443181 5.8611428838099835 0 1 2
1886 0 2 0.5897 8.990756566361085 13.887276014517015 6.694742643450467 0 1 2
1885 0 1 -1.1794 8.85630830929333 13.607969230972415 5.762642709731187 0 1 2
418 0 1 -1.1794 11.721425842156075 14.424953923134813 5.467122513259368 0 -1 -1
420 0 2 0.5897 12.122527448487634 13.73742919630408 6.026802453341758 0 -1 -1
828 0 2 0.5897 12.088348412326116 15.587682853311426 7.785724114972013 0 1 0
2117 0 2 0.5897 4.879679187255654 16.26565208585888 4.284779014484487 0 0 0
529 0 1 -1.1794 3.2311113223101335 16.63551211544941 7.408573928946481 0 0 -1
531 0 2 0.5897 3.972619562143714 16.877555364130902 8.016256726005858 0 0 0
1544 0 2 0.5897 6.081070558297327 16.477962031924704 7.870344237692266 0 1 1
530 0 2 0.5897 3.0747318871442872 17.322505315526755 6.702175620982493 0 0 0
599 0 2 0.5897 2.804510311524214 19.51703864379612 6.966881720868102 0 -1 0
1757 0 2 0.5897 3.0358513494071615 18.168181424463345 4.627219614361647 1 0 0
1756 0 1 -1.1794 2.485109893601754 18.24827273516331 5.45289414331303 1 0 0
1758 0 2 0.5897 1.5719161199378786 17.872407636445963 5.32451883545726 1 0 0
1846 0 1 -1.1794 5.706090095995606 18.72900631845344 7.451035165043661 0 0 1
1847 0 2 0.5897 5.071012888284349 19.307825831452185 7.825728312882428 0 0 1
123 0 2 0.5897 5.964011119423853 18.78935265409463 5.5979273090682256 0 0 0
1848 0 2 0.5897 6.473198410250581 18.673461843061094 8.075862549324057 0 0 1
121 0 1 -1.1794 6.470773501983681 18.744803591351666 4.751424174200901 0 0 0
1934 0 2 0.5897 10.842156588828358 19.881020341393363 4.448974960146093 0 -1 1
579 0 2 0.5897 11.720268388639074 19.98041243465232 8.267006039257287 0 1 0
1799 0 2 0.5897 8.123321237166692 16.236938780092448 6.304069377119983 0 -1 0
122 0 2 0.5897 6.6015322249181345 19.683573486794472 4.549971118418467 0 0 0
1933 0 1 -1.1794 10.449035542975174 19.02583249769123 4.605172130327972 0 -1 1
1573 0 1 -1.1794 9.231859569094327 19.818728658913553 6.8861163546316275 0 0 0
807 0 2 0.5897 10.210923438047017 16.722358857879232 6.671624854352795 0 1 0
1798 0 1 -1.1794 8.601008347558011 16.76408921496208 5.644617345132363 0 -1 0
1935 0 2 0.5897 10.012397360379708 19.15408735621565 5.507684712732902 0 -1 0
1800 0 2 0.5897 7.910067340173789 17.225473953377204 5.1497319822493495 0 -1 0
805 0 1 -1.1794 10.969384783808438 16.84344234781261 7.234736415582051 0 1 0
806 0 2 0.5897 10.639096568065506 17.017008354074804 8.138492720938133 0 1 0
114 0 2 0.5897 12.214594116440574 18.122994328517503 6.9109001836761506 0 -1 -1
1428 0 2 0.5897 5.380847444394472 3.948790311761174 8.409714998541139 0 1 1
1427 0 2 0.5897 4.037460082199726 3.323305066170442 8.67704468327331 0 1 1
795 0 2 0.5897 1.6125605331966013 3.3850502874722594 8.956406343672006 0 0 1
303 0 2 0.5897 1.348772092392325 2.468753456711122 11.098292397729717 0 0 1
301 0 1 -1.1794 1.5329590495981296 1.71965183956693 11.671294926899513 0 0 1
1905 0 2 0.5897 4.181630393582345 1.6578205372818497 11.65007020694406 0 0 1
1903 0 1 -1.1794 4.896856160826216 1.055844379665535 11.794585763280626 0 0 1
302 0 2 0.5897 1.4862846857857237 0.9351826836072573 11.06745361372349 0 0 1
1113 0 2 0.5897 6.164500213514218 2.1742271486420677 9.439086997682283 0 1 -1
1112 0 2 0.5897 6.538705824393781 0.7815217755144916 10.023206446289015 0 1 -1
1111 0 1 -1.1794 6.5381608376358775 1.3196587200979661 9.23603373433868 0 1 -1
1426 0 1 -1.1794 4.910861853983448 3.4054034624488967 9.092869419821556 0 1 1
1904 0 2 0.5897 5.601700335014745 1.375626830620627 12.427916001938431 0 0 1
793 0 1 -1.1794 1.0910242907630017 3.547079594535339 9.783498517048846 0 0 1
894 0 2 0.5897 8.166008037663804 1.9599646587225312 8.746450087757884 0 1 0
892 0 1 -1.1794 8.74332962415874 2.747066616513486 8.537108098534913 0 0 0
384 0 2 0.5897 9.09537186942165 3.677728171116809 10.287456583214919 0 1 0
759 0 2 0.5897 11.747905314442566 2.324953119735745 8.971386418451022 0 -1 3
577 0 1 -1.1794 11.245329492812921 0.5615919093695536 8.779185221448094 0 2 0
1641 0 2 0.5897 7.685612810699918 0.3003974204768734 12.076608303054861 0 0 -1
578 0 2 0.5897 11.162479094375051 0.23652775726257463 9.682629496953775 0 2 0
50 0 2 0.5897 7.387728287666234 3.127849772555645 12.495287574097953 0 2 0
757 0 1 -1.1794 12.159269851215953 3.1533529751491733 8.666196157459458 0 -1 3
794 0 2 0.5897 1.4249246411893828 4.436870450655233 9.997884784869472 0 0 1
2040 0 2 0.5897 4.875593816647661 4.378403742300364 10.48779290138951 0 -1 -1
2039 0 2 0.5897 4.180535884195935 5.0192817374590915 11.663427975493951 0 -1 -1
2038 0 1 -1.1794 5.002396040922353 5.072114103583007 11.151988314940835 0 -1 -1
1095 0 2 0.5897 1.9580318657280464 6.894681881236669 10.44681664315086 0 0 0
1351 0 1 -1.1794 5.946747849159031 7.281217213652174 9.995970472451106 0 -1 0
1352 0 2 0.5897 5.587810659177927 6.440516917893014 10.27282544136247 0 -1 0
1093 0 1 -1.1794 1.7318759318324917 6.187547499080543 9.825434026525167 0 0 0
858 0 2 0.5897 1.8805976584152695 5.132101407241488 12.405781714817447 0 0 -1
1094 0 2 0.5897 0.8517371387656891 6.413725968139885 9.50987813917771 0 0 0
382 0 1 -1.1794 9.502890010877053 4.328206381662122 10.793598745787673 0 1 0
1014 0 2 0.5897 6.650713044455592 5.057574689656761 12.465212302513057 0 1 1
383 0 2 0.5897 8.7159199521046 4.640281366511241 11.30697575964729 0 1 0
1353 0 2 0.5897 6.846542259496307 7.051042091519515 9.779914877534216 0 -1 0
1646 0 2 0.5897 11.557798153571582 4.692278197643215 9.7555038679616 0 2 0
56 0 2 0.5897 8.742874318802603 6.214329074940341 9.410476399958236 0 2 -1
55 0 1 -1.1794 8.690333169203125 7.003506890229457 9.946534601835314 0 2 -1
57 0 2 0.5897 9.342797115017122 6.751635143295175 10.674116929756279 0 2 -1
843 0 2 0.5897 11.279478657785095 6.436079745791871 11.300954971283264 0 -1 0
841 0 1 -1.1794 10.673959259979956 7.039265774766671 11.746356043884582 0 -1 0
1310 0 2 0.5897 10.646144177342288 4.021733918887652 12.197763802985762 0 1 -1
1645 0 1 -1.1794 12.11145075306301 5.4542516684077 10.014569923452754 0 2 0
1348 0 1 -1.1794 2.2407229887546007 8.359583589446824 11.53036864207158 0 0 0
1350 0 2 0.5897 3.0761948005692945 8.447083102430645 12.007983126225714 0 0 0
933 0 2 0.5897 4.6391513084091685 9.973453833444847 9.06065317316483 0 0 0
1147 0 1 -1.1794 4.970851211110513 8.649812195719173 12.370838217335892 0 -2 -1
1264 0 1 -1.1794 1.5201991627556928 10.474995637269535 9.770683785247902 0 -1 0
1266 0 2 0.5897 1.3991946992612407 11.440356974533737 9.995270880958602 0 -1 0
1265 0 2 0.5897 2.165988692020898 10.523345469885147 9.045507933360517 0 -1 0
932 0 2 0.5897 5.401092655712502 9.166518813013388 10.10351736810981 0 0 0
931 0 1 -1.1794 5.252808136305432 10.05241006937858 9.817872800094813 0 0 0
1349 0 2 0.5897 2.0006045388316984 9.130479884524583 11.014310289692109 0 0 0
1319 0 2 0.5897 4.451346546459643 11.053256771047915 10.830662239985287 0 -1 0
1320 0 2 0.5897 3.471756305799888 11.519521632953373 11.947118764553316 0 0 0
1318 0 1 -1.1794 4.221108079759372 11.83133536829647 11.362750361285148 0 -1 0
315 0 2 0.5897 5.759216101412493 11.964391629234427 12.229328808316046 0 -1 0
1929 0 2 0.5897 12.129928030948722 9.810280830419785 11.52730312643683 0 2 -2
1683 0 2 0.5897 10.059263180390245 8.19000582151097 8.892444194389878 0 0 0
1829 0 2 0.5897 8.222438981453113 8.623820454848856 11.216413676871523 0 -1 0
1830 0 2 0.5897 6.914895593255301 8.914569228572502 11.910981283496724 0 -1 0
1928 0 2 0.5897 11.048215650454 8.649882423756843 11.46904989877032 0 2 -2
290 0 2 0.5897 6.865949869777541 11.030676157772309 9.967109530245502 0 0 1
1828 0 1 -1.1794 7.82482740021065 9.220049315769534 11.853314520420877 0 -1 0
1927 0 1 -1.1794 11.253280716894233 9.55748891549026 11.149222852834246 0 2 -2
2181 0 2 0.5897 10.070516627187034 11.269437729201762 11.72139244474717 0 2 1
291 0 2 0.5897 8.115047504734722 11.899699550572757 10.344485312769347 0 0 1
289 0 1 -1.1794 7.368654774269246 11.792785565109911 9.711138363942025 0 0 1
2179 0 1 -1.1794 9.496939870990463 11.93202828637714 11.259220824736527 0 2 1
314 0 2 0.5897 7.092081478798178 11.225355283983713 12.095436966940872 0 -1 0
2124 0 2 0.5897 11.69147893993084 11.31450431814686 10.235831723260034 0 -1 0
1539 0 2 0.5897 1.017741035230783 15.185160356329254 12.454934339704316 0 0 0
1000 0 1 -1.1794 1.5254306001849578 13.140215211266483 10.035555154699717 1 -1 0
1001 0 2 0.5897 1.414351666141651 13.851625127719918 10.631548844648767 1 0 0
1599 0 2 0.5897 4.110764612452618 13.516155131737255 11.274874552679325 0 -2 1
1002 0 2 0.5897 2.2782472984534885 13.269710362460431 9.36029821821997 1 -1 0
1537 0 1 -1.1794 1.6465409953737586 15.339651395680892 11.72872973429413 0 0 0
1598 0 2 0.5897 3.3694831219633996 14.842567272500668 11.724524658601323 0 -2 1
1597 0 1 -1.1794 4.2257880301888875 14.460527785013333 11.448448250398556 0 -2 1
1130 0 2 0.5897 5.056183192530572 15.754340117685135 10.284031359447926 0 1 0
1032 0 2 0.5897 6.035788305925717 14.580701205792044 12.437541113244816 0 1 -1
799 0 1 -1.1794 9.571310650653897 13.999559424617708 8.392877315823469 0 0 0
801 0 2 0.5897 10.426838640165998 14.462540202518023 8.454235835005639 0 1 0
800 0 2 0.5897 8.979522763469431 14.505313453773683 8.929615806078026 0 0 0
387 0 2 0.5897 6.575446724495992 12.971049379708772 8.801280431543423 0 0 0
1856 0 2 0.5897 11.378499166185273 13.518987845530834 10.774716751381558 0 -2 0
2180 0 2 0.5897 9.425084432366676 12.728982849602692 11.795903833408904 0 1 1
1855 0 1 -1.1794 11.273968787443277 14.433762320464277 11.213678946785734 0 -2 0
1857 0 2 0.5897 11.406474050306947 15.10127852404868 10.549684248979846 0 -2 0
902 0 2 0.5897 7.474706913781035 15.564724035572164 10.980602456381023 0 -1 0
901 0 1 -1.1794 7.9142532523368345 15.763202147396195 10.124283100121469 0 -1 0
278 0 2 0.5897 9.980131435980729 14.672679340560723 12.494464489304725 0 1 -1
600 0 2 0.5897 2.755118241435296 19.92015880314214 8.423769594592594 0 -1 0
1538 0 2 0.5897 1.4584571681793137 16.204427015428408 11.302695066049166 0 0 0
1861 0 1 -1.1794 1.2860494800009454 16.988525047986872 9.440160365132366 0 0 0
1843 0 1 -1.1794 1.3239126019577165 19.731083448306595 9.994984668694041 0 -1 0
1844 0 2 0.5897 1.3667889293584345 18.755589137891814 9.960671427993422 0 -1 0
1129 0 1 -1.1794 5.302440996426577 16.544419791215375 9.81468070054112 0 1 0
1863 0 2 0.5897 1.9247920247889223 16.72184287021003 8.71190551614716 0 0 0
1131 0 2 0.5897 4.890931911460196 17.233772651441686 10.314822319195423 0 1 0
1104 0 2 0.5897 4.067815263016635 19.684726026461465 11.207580603023466 0 0 0
1102 0 1 -1.1794 4.0597633599705 18.728146772789344 11.186738651291849 0 0 0
1103 0 2 0.5897 3.1960675949829405 18.480152740299257 11.606937190469859 0 0 0
1323 0 2 0.5897 5.252785226294768 18.238369099089525 12.44469667515085 0 -1 -1
903 0 2 0.5897 7.333836884439562 16.28399916119816 9.573847794454643 0 -1 0
306 0 2 0.5897 8.449156174014213 18.956483902670858 8.389377601985515 0 0 2
900 0 2 0.5897 9.526009654704188 16.84597349355479 9.97108165226122 0 0 0
898 0 1 -1.1794 10.50271160394574 16.895130699056583 9.984479648228932 0 0 0
304 0 1 -1.1794 7.753586056893115 18.478941479204327 8.896859584380314 0 0 2
305 0 2 0.5897 7.768978576152567 18.928779297695225 9.768744976777418 0 0 2
899 0 2 0.5897 10.690552251368958 17.703531336921447 10.483177570692174 0 0 0
346 0 1 -1.1794 10.691025270809348 19.505322827659352 11.123398592952883 0 0 3
1639 0 1 -1.1794 7.903035891492339 19.627887318079143 11.512608899518817 0 -1 -1
1640 0 2 0.5897 7.948003848678509 18.827324894641997 12.080993187833409 0 -1 -1
347 0 2 0.5897 9.848948132413508 19.722204700243832 11.59741235415958 0 0 2
348 0 2 0.5897 11.332858206603973 19.722224518635795 11.84189743040831 0 0 2
1036 0 1 -1.1794 3.2447033094830657 2.868610959210035 14.373519299430223 0 -1 -1
1037 0 2 0.5897 2.988837637211315 3.606523581548792 13.773022745462175 0 -1 -1
1038 0 2 0.5897 2.8466416654400515 2.0992660930594687 13.937103802861914 0 -1 -1
78 0 2 0.5897 2.0800866357517025 3.140460330878391 15.797855701424277 0 0 -1
2063 0 2 0.5897 4.885111978801947 3.3577996452741363 14.964836092080821 0 1 1
2064 0 2 0.5897 6.3482617529943575 3.275087265464787 15.497602862521571 0 1 1
2062 0 1 -1.1794 5.586524727330093 3.8573284769308156 15.417831838252392 0 1 1
76 0 1 -1.1794 1.5445601036047982 3.350435713786984 16.53293092807777 0 0 -1
1051 0 1 -1.1794 2.51080710129355 0.15954838940174307 14.404158188209795 0 -1 1
754 0 1 -1.1794 4.701091412426152 0.15945885896422135 16.127885784624382 1 1 0
755 0 2 0.5897 4.411460564495314 0.9070585656793109 16.67619166645055 1 1 1
1527 0 2 0.5897 12.246985023881756 1.9192265766836771 15.410580438379235 0 -1 0
324 0 2 0.5897 12.014492605163822 0.45091196063111394 14.139368756086231 0 2 0
49 0 1 -1.1794 7.268485737744891 2.2322844770779935 12.810605606221726 0 2 0
51 0 2 0.5897 7.509293444849183 2.272565497872595 13.77021604500798 0 2 0
1311 0 2 0.5897 11.238612589437711 2.9925284729630763 13.306211881178557 0 1 -1
1114 0 1 -1.1794 7.695750715983182 2.0941782864992504 15.44300977973329 0 0 -1
1115 0 2 0.5897 8.399533020252385 2.4213047033385404 16.028613391774318 0 0 -1
1526 0 2 0.5897 10.901052694152918 1.2531872225155725 15.7129885175802 0 -1 0
1525 0 1 -1.1794 11.297870974941906 1.9248373536169838 15.167101295124453 0 -1 0
1116 0 2 0.5897 7.483661651901025 1.2127740378952996 15.75665176353258 0 0 -1
1309 0 1 -1.1794 11.424997545108218 3.80299254815322 12.768397773246575 0 1 -1
1268 0 2 0.5897 10.339412925347306 3.843204160366582 15.857243726469978 0 1 0
1148 0 2 0.5897 5.181967114982981 7.733108742535764 12.650683362138281 0 -2 -1
856 0 1 -1.1794 2.7819400703065735 5.073350308899319 12.796096729223157 0 0 -1
857 0 2 0.5897 2.904740037381314 5.716847426828943 13.47343632526262 0 0 -1
28 0 1 -1.1794 3.359527058939149 6.885997834888331 14.773375519485182 0 -1 0