LAMMPS data file via write_data, version 23 Jun 2022, timestep = 11327000

2268 atoms
2 atom types

0.9472639353145169 46.50343506467986 xlo xhi
0 20.047001 ylo yhi
0 20.857 zlo zhi

Masses

1 1.008
2 15.999

Atoms # full

307 0 1 -1.1794 1.8310378058624512 0.9178535097564046 2.1592408635771116 0 1 0
1596 0 2 0.5897 2.0505705748374856 2.3932106795243233 3.102527981220862 0 0 0
309 0 2 0.5897 2.264703274899769 0.3514896750594142 2.8142761292678857 0 1 0
1018 0 1 -1.1794 4.699203352504075 0.45449309764168194 2.230498348873329 0 -1 0
1019 0 2 0.5897 4.17321220228131 0.7239094784979883 1.4360441360881029 0 -1 0
1784 0 2 0.5897 5.512094955113051 3.823617480408384 2.8941644703831457 1 1 0
1767 0 2 0.5897 4.86493905506658 1.479802841800585 3.5721704971934893 0 -1 0
297 0 2 0.5897 6.3550003234143455 1.3883266735163537 1.6813198871216517 0 0 0
1594 0 1 -1.1794 2.1419797552757625 3.1859078692335174 3.6429984005468543 0 0 0
1765 0 1 -1.1794 4.993293168103842 2.340877643850154 4.063741841940742 0 -1 0
1850 0 2 0.5897 1.345907467432236 3.436762558700843 0.028748301046016993 0 0 1
1851 0 2 0.5897 1.212370915477338 1.9282177389293345 0.09285344566064416 0 0 1
45 0 2 0.5897 10.395557632412489 0.5666818328162538 0.15014768498827408 0 0 1
295 0 1 -1.1794 7.277631893246891 1.5533226184356728 1.5218927154610462 0 0 0
2090 0 2 0.5897 9.067372743781062 3.735722198353648 2.9451922346414148 0 -1 2
1907 0 2 0.5897 8.19898725211814 1.7795938983318176 3.1058286241653494 0 1 1
296 0 2 0.5897 7.3143163826527555 1.7775326728256406 0.5513486008575852 0 0 0
86 0 2 0.5897 11.926991054631982 2.1948467004309475 1.250253795132808 0 0 1
1906 0 1 -1.1794 8.69831112718504 2.189715814414372 3.79647672722112 0 1 1
87 0 2 0.5897 11.458880254957982 1.7638573382615204 2.714038993085154 0 0 1
1390 0 1 -1.1794 12.118153282170624 3.4690543095667112 0.11881695122698867 0 0 0
85 0 1 -1.1794 11.728001438792774 1.3993065995840834 1.8095424425235358 0 0 1
1115 0 2 0.5897 5.268870272853461 4.075488362324785 0.6700903963201607 0 0 0
1783 0 1 -1.1794 6.013126104937651 4.526051287574117 2.443932910557151 0 1 0
638 0 2 0.5897 3.01461996877083 4.582380418293931 0.7882831862596008 0 0 1
637 0 1 -1.1794 2.131347648528619 4.9071214334043365 0.9135278883680946 0 0 1
341 0 2 0.5897 2.780380357657786 6.402908790631218 3.2807580481611756 0 0 0
342 0 2 0.5897 2.5073013560780026 4.972553907269281 3.6222221665820014 0 0 0
2021 0 2 0.5897 6.137854139083699 7.433082712314026 1.3352391979499894 0 0 -1
340 0 1 -1.1794 2.7150022470762725 5.7881604770511235 4.0361326660743435 0 0 0
639 0 2 0.5897 2.001195830050327 5.635385558969602 0.32281568635054725 0 0 1
2022 0 2 0.5897 6.4416920260691075 6.329011936670899 2.377643861622174 0 0 -1
477 0 2 0.5897 2.028060183782995 7.962594383613043 1.961745683420159 1 0 0
475 0 1 -1.1794 2.917835589294926 7.743253138456943 2.28763164263566 1 0 0
476 0 2 0.5897 3.38860975254838 7.5724574590352685 1.4731554741322512 1 0 0
1048 0 1 -1.1794 4.815452381312147 7.6424045198632475 0.1482120524891361 0 -1 0
1114 0 1 -1.1794 4.4947103246033455 4.017420722805415 0.10900771343343357 0 0 0
2020 0 1 -1.1794 6.700974084816888 7.216966315449679 2.0953554143413746 0 0 -1
1785 0 2 0.5897 6.930512219919799 4.273565157893884 2.6413517090990903 0 1 0
2089 0 1 -1.1794 9.158119362833265 4.4933132342226285 2.3353475391393985 0 -1 2
2091 0 2 0.5897 9.564638209393166 5.2466868770923725 2.8286833621729937 0 -1 2
1290 0 2 0.5897 8.261463358963397 7.578476146654488 1.9866573834005041 0 -1 -1
384 0 2 0.5897 8.915129206752013 4.378057282621558 0.47049376541809457 0 1 1
1397 0 2 0.5897 10.00088406568579 6.903873780302569 0.8089435612874107 0 0 0
1398 0 2 0.5897 10.378832809840036 5.670401513414532 0.06946937366222815 0 0 0
1396 0 1 -1.1794 10.661621990412845 6.560370552030308 0.1838059475902211 0 0 0
1064 0 2 0.5897 6.260814590281931 8.37278842258552 3.4911874678565407 0 0 1
336 0 2 0.5897 2.987601626700248 9.373354697531177 3.271301161803002 0 0 0
832 0 1 -1.1794 2.064271481082487 10.912885028783654 0.6126473731347936 0 1 2
834 0 2 0.5897 2.96184880384702 10.628411068067878 0.9057295701940485 0 1 2
1733 0 2 0.5897 5.402761622272453 10.551521554676139 0.9781815323659854 1 -1 1
2102 0 2 0.5897 2.8298634548913295 11.69908347987005 3.5993259952006125 0 -1 1
1732 0 1 -1.1794 4.613191774633648 10.305418647746984 0.5714622629929755 1 -1 1
334 0 1 -1.1794 3.2659521654449533 10.033392119721858 3.923525465889451 0 0 0
1049 0 2 0.5897 4.7562336958061575 8.603898317414266 0.07845999319240526 0 -1 0
833 0 2 0.5897 1.7377939694328268 10.165993011967105 0.020456624627595687 0 1 2
1063 0 1 -1.1794 6.075386287303699 9.072098823022099 4.13144029743269 0 0 1
1152 0 2 0.5897 6.7096093457259505 10.447965811067206 2.913335328627328 0 1 -1
1150 0 1 -1.1794 6.8599924667089685 11.15449472767404 2.2667315543877264 0 1 -1
1288 0 1 -1.1794 9.089583847806821 8.027371777460521 1.6823640127150834 0 -1 -1
1289 0 2 0.5897 9.309746799375853 8.838239514061724 2.1547573584387747 0 -1 -1
1151 0 2 0.5897 7.842990368878738 11.094723719100108 2.237668880779115 0 1 -1
613 0 1 -1.1794 9.592170844234575 10.756234130177956 2.469678219619245 0 2 0
614 0 2 0.5897 9.646729941041341 11.526224290584528 1.8941310748638462 0 2 0
1545 0 2 0.5897 11.54654277681189 9.656289900009945 0.4360100520385925 0 1 1
615 0 2 0.5897 10.046160577355161 10.996453543581548 3.2861627586645112 0 2 0
1656 0 2 0.5897 11.81986228558166 9.124849476017587 3.6054441996105866 0 0 1
2101 0 1 -1.1794 2.748721830741329 12.641257120098887 3.7625016032040177 0 -1 1
2103 0 2 0.5897 2.635561731382597 13.144580436121368 2.96179108500042 0 -1 1
1579 0 1 -1.1794 2.321466079945033 14.785964813403124 1.9467467312690545 0 0 0
1581 0 2 0.5897 2.9485755970974252 14.792593110581556 1.1835492903248699 0 0 0
1580 0 2 0.5897 2.643983023872955 15.396669254822083 2.682141842105852 0 0 0
519 0 2 0.5897 5.559718564290299 13.901800852712254 1.414389358365497 0 -1 1
517 0 1 -1.1794 6.000796479521858 13.809049584220679 2.2579720826583998 0 -1 1
2125 0 1 -1.1794 4.577207262687002 14.613941026942285 0.21310247139804375 0 0 0
518 0 2 0.5897 6.246656519875316 12.874925771547346 2.3357098116076855 0 -1 1
2126 0 2 0.5897 4.606554980380119 15.564850152045459 0.014834032814756044 0 0 0
828 0 2 0.5897 5.892045427919867 14.962726076292801 3.556242405993507 0 1 0
826 0 1 -1.1794 5.7128735631673315 15.775548478315518 4.056017389967323 0 1 0
1284 0 2 0.5897 7.377886786882573 14.972427150639831 1.8405252872139868 0 -1 0
1282 0 1 -1.1794 8.241694976375559 15.39540399396724 1.718658953997064 0 -1 0
1577 0 2 0.5897 9.449739734479703 14.1911790373092 2.0945867304325536 0 -1 2
1576 0 1 -1.1794 10.219011173108678 13.654718838010472 2.3296817781778665 0 -1 2
1578 0 2 0.5897 10.343854810951944 13.861486676151898 3.2396982588691627 0 -1 2
129 0 2 0.5897 10.695796946009366 14.88907352495293 0.858189050512621 0 1 2
1283 0 2 0.5897 8.20851688761373 15.908051615205043 0.8836609937018687 0 -1 0
1059 0 2 0.5897 7.636417117480564 12.597345995443225 4.07349843098653 0 1 0
2138 0 2 0.5897 11.177776703996201 15.890096235778158 3.4781218278146375 0 -1 1
2137 0 1 -1.1794 12.058898719633762 15.713507923719709 3.868210343443307 0 -1 1
559 0 1 -1.1794 2.8795292526619565 16.491330241869676 4.004783941758794 0 -1 0
1020 0 2 0.5897 4.755909467938437 19.53495828691024 2.3002043459536194 0 -2 0
371 0 2 0.5897 4.917792783510364 17.490832897366467 1.0383588571684697 0 -2 2
280 0 1 -1.1794 1.7256137940989311 17.851302512834707 0.9274654285238266 0 -1 0
372 0 2 0.5897 3.527792692308007 17.472438768433978 0.5087259165439806 0 -2 2
1090 0 1 -1.1794 2.738646615490853 19.12018415674825 3.887377491785284 0 -1 0
560 0 2 0.5897 2.7912607735738266 17.432370019267445 3.7566796888972207 0 -1 0
370 0 1 -1.1794 4.442562152050515 17.314330069094513 0.18830389471151776 0 -2 2
282 0 2 0.5897 1.700674851430886 18.811873764942376 0.5744408614884483 0 -1 1
1804 0 1 -1.1794 5.948801127423752 17.917107649731793 2.363724399852767 0 0 0
1805 0 2 0.5897 5.8934422638351 17.302952385543644 3.098798431459893 0 0 0
561 0 2 0.5897 3.8707186936123232 16.33861380881746 4.144802630976463 0 -1 0
281 0 2 0.5897 1.18537497118617 17.891307412244807 1.7047010547775727 0 -1 0
1869 0 2 0.5897 11.180595551304481 19.70713901291579 2.1240302118013155 0 0 1
11 0 2 0.5897 8.76061087565309 16.257695527638447 3.099399038679718 0 0 -1
1868 0 2 0.5897 9.969320257877396 18.760296783664558 2.1898509344892485 0 0 2
1867 0 1 -1.1794 10.957686257944784 18.797207670245722 2.2758615607744686 0 0 1
1812 0 2 0.5897 7.93136204412846 19.90658279811027 1.5184031060367795 0 1 1
1810 0 1 -1.1794 8.253278266385653 18.948506056089467 1.4833646364791686 0 1 1
1806 0 2 0.5897 6.856221794378939 18.10062511917774 2.0742893876212762 0 0 0
1811 0 2 0.5897 7.9555169219149855 18.642395886594922 0.6003802900964721 0 1 1
1678 0 1 -1.1794 12.059282058738555 17.627102549781053 0.12490778848821732 0 0 1
10 0 1 -1.1794 9.119923314743167 16.830466188133535 3.7988267697180715 0 0 0
1679 0 2 0.5897 11.30028440510518 18.07630330775071 0.5646085749876717 0 1 1
128 0 2 0.5897 11.178195073835921 16.136373635989532 0.019445698527565725 0 1 2
1766 0 2 0.5897 4.115032430857268 2.6875659732657495 4.233427524529767 0 -1 0
1595 0 2 0.5897 1.7393181798484028 2.9062649771994 4.491178033893064 0 0 0
574 0 1 -1.1794 4.241272706202221 1.3675710970091026 7.056546410434637 0 0 0
575 0 2 0.5897 4.296944886054211 2.294102545347404 6.86935053089126 0 0 0
576 0 2 0.5897 4.6072014345158525 0.9016371379244117 6.280045025980286 0 0 0
1077 0 2 0.5897 1.699238926576144 3.6552695826990025 7.198695372592963 0 1 1
1316 0 2 0.5897 0.9844017665608009 1.7125235609423366 6.201288387456285 0 0 0
1791 0 2 0.5897 6.098604975769756 2.7787256912172835 5.496773959254381 0 -1 0
1757 0 2 0.5897 2.6370375285484116 1.1880894158190638 8.196979687396633 1 1 0
820 0 1 -1.1794 11.45885652546109 1.836872141837212 4.569755558329779 0 0 1
821 0 2 0.5897 11.788706326979051 1.2027156615826096 5.211934687742209 0 0 1
822 0 2 0.5897 10.477209456701155 1.9149150646182893 4.4836738639121005 0 0 1
1790 0 2 0.5897 7.0093583942605315 2.9214417094096388 6.792523044024397 0 -1 0
1908 0 2 0.5897 8.223012291535017 2.2530253100232485 4.599907827089236 0 1 1
1877 0 2 0.5897 9.262587106443222 3.119274924283283 6.877918197181062 0 1 1
1878 0 2 0.5897 10.415610401687978 2.1835715718158757 7.1253632567030305 0 1 1
1876 0 1 -1.1794 9.544968980110331 2.240863888026647 6.592061638510874 0 1 1
1789 0 1 -1.1794 6.820080810748229 3.2351403753312273 5.9121293819014396 0 -1 0
2030 0 2 0.5897 12.180571508666718 3.602148125290338 4.973212865879934 0 -1 1
1130 0 2 0.5897 8.493001925761234 0.9834018673275202 7.683841303829547 0 1 0
1129 0 1 -1.1794 8.38592731984239 0.18138026694827686 8.211807020676577 0 1 0
1076 0 2 0.5897 2.9097498983763987 4.39595427274419 7.916583709555345 0 1 1
1519 0 1 -1.1794 4.535491157452726 4.0404987228463085 7.478365717032857 0 1 0
1521 0 2 0.5897 5.342909556244022 4.124427589715249 8.111755628171792 0 0 0
1075 0 1 -1.1794 1.9399130653569154 4.435294102232712 7.72882748891805 0 1 1
1520 0 2 0.5897 4.712119012824328 4.744225120889578 6.835454705208742 0 1 0
225 0 2 0.5897 4.080176460816364 6.0827143133614925 4.860479421397984 1 0 0
2121 0 2 0.5897 1.5068391014052867 6.2698724595479005 5.445958264023853 0 0 0
223 0 1 -1.1794 4.779900926776801 6.333835376813477 5.499833493986304 1 0 0
224 0 2 0.5897 5.599598404463372 6.095553238920551 5.062708295610927 1 0 0
2145 0 2 0.5897 4.952639117601583 7.871383332408791 6.6610671724057235 0 -1 1
2120 0 2 0.5897 1.2702405069762908 5.796427400390639 6.859749881467765 0 0 0
2119 0 1 -1.1794 1.024812798895013 6.500972264617071 6.23541788725854 0 0 0
880 0 1 -1.1794 10.181569771653251 6.105274898939437 4.2483220649426245 0 1 1
881 0 2 0.5897 10.169028402916217 7.07715352230564 4.251996922538175 0 1 1
2031 0 2 0.5897 11.639264778750455 4.880093068688512 4.401867986588667 0 -1 1
882 0 2 0.5897 9.435274130484473 5.766769078195125 4.815048479524818 0 1 1
68 0 2 0.5897 11.645304287469253 5.138001497232 8.215283428487671 0 -1 2
1030 0 1 -1.1794 7.842741510206393 5.702225203695105 5.355776108740408 0 1 -1
1032 0 2 0.5897 7.337467772013151 4.874448177102142 5.66753648556603 0 2 -1
1031 0 2 0.5897 7.914120421980801 6.34815363979988 6.1095980777626115 0 1 -1
2149 0 1 -1.1794 8.374645886767606 7.639566013381362 7.692864781448931 0 -1 2
69 0 2 0.5897 12.030143076928429 5.021342958562509 6.699619516238934 0 -1 2
31 0 1 -1.1794 9.02759322113323 4.610211909833143 7.914811793728922 0 -1 0
32 0 2 0.5897 9.75509295700368 4.998825182554984 8.29347199075143 0 -1 0
2150 0 2 0.5897 9.197452784810329 7.650619914389395 8.159457283475364 0 -1 2
1560 0 2 0.5897 12.333858943938997 7.091902519077597 6.678347631244668 0 1 -1
67 0 1 -1.1794 12.316173155303522 5.286154008846548 7.613479491228741 0 -1 2
2143 0 1 -1.1794 4.897345166686161 8.283122586225604 7.5331545404941505 0 -1 1
2049 0 2 0.5897 1.323659652045622 8.347485734822996 6.497621570347117 0 -2 1
1065 0 2 0.5897 5.121986202601556 9.280606782383531 4.188553326729127 0 0 1
2048 0 2 0.5897 1.744904173359293 9.817023160004005 6.809617917904575 0 -2 1
335 0 2 0.5897 2.9230243889256022 9.65705730667173 4.747456832466278 0 0 0
2144 0 2 0.5897 5.184615510363163 9.237362809774003 7.4637000624937135 0 -1 1
1522 0 1 -1.1794 5.057056630249864 10.965759111808541 7.583698717624718 0 -1 0
1524 0 2 0.5897 5.082478645308909 11.688984500622901 6.931023697140664 0 -1 0
496 0 1 -1.1794 2.464704865547299 11.203340660005004 8.119895100770748 1 0 0
497 0 2 0.5897 3.4446657096444993 11.124920022828013 7.970892030001445 1 0 0
498 0 2 0.5897 2.2127145263044623 11.972594881939154 7.6006672641713875 1 0 0
2047 0 1 -1.1794 1.6863182267164707 9.181575489788186 6.075188075708659 0 -2 1
229 0 1 -1.1794 10.43234563306899 8.720296479069118 4.797954935019439 1 -1 0
1896 0 2 0.5897 7.386896143230872 9.651053245486331 5.395183515237404 0 -1 0
2151 0 2 0.5897 8.22714213790007 8.492087845705532 7.188781190453374 0 -1 2
231 0 2 0.5897 11.01587138350303 8.551039231991957 5.600092003623283 1 -1 0
230 0 2 0.5897 9.888015703031622 9.4586680411509 5.0215925107814945 1 -1 0
1895 0 2 0.5897 7.927087701538539 10.8365578131948 6.172894310152186 0 -1 0
1894 0 1 -1.1794 8.142297488942802 9.947616792666047 5.917034070588883 0 -1 0
1361 0 2 0.5897 11.464938829584078 11.240740745327907 5.491720095370475 0 1 1
2053 0 1 -1.1794 10.810535235902133 10.009567880612956 7.5991731099631465 0 -1 1
2054 0 2 0.5897 9.981695300841162 10.495788051183439 7.570831426758284 0 -1 1
1360 0 1 -1.1794 10.894488530343484 11.634347628238507 4.831310565090943 0 1 1
1833 0 2 0.5897 11.761669989540362 11.920265002590018 7.916346125220147 0 -1 1
636 0 2 0.5897 1.9882542962492131 12.870278325959967 5.329361871960783 0 -1 -1
1061 0 2 0.5897 4.310585240939506 12.554692651183874 4.848529979683154 0 0 -1
1060 0 1 -1.1794 4.923722778365655 12.926585479787299 5.493120991412526 0 0 -1
1062 0 2 0.5897 4.64267376516227 13.786549554462878 5.779255059195933 0 0 -1
1885 0 1 -1.1794 4.677822656221808 14.931782435364253 7.463563990800615 0 1 2
1886 0 2 0.5897 5.162819736878931 14.643503336752168 8.287772707724065 0 1 2
1335 0 2 0.5897 1.4371180377520774 14.808338263648283 6.505727990959248 0 -1 1
1887 0 2 0.5897 4.826466606306856 15.890304642910197 7.357020190371048 0 1 2
1333 0 1 -1.1794 1.2842144362809012 15.751487588074086 6.369535011679776 0 -1 1
827 0 2 0.5897 6.213231135861617 15.936508823111787 4.874418955104499 0 1 0
634 0 1 -1.1794 1.6020269785817052 12.985780550319847 6.283588753712478 0 -1 -1
1058 0 2 0.5897 6.608746340727406 12.923884909679941 5.15008805925657 0 1 0
1334 0 2 0.5897 1.8418700484582629 15.876738664699749 5.586375897766131 0 -1 1
1831 0 1 -1.1794 11.911267867796361 12.80940141347765 8.194802442803164 0 -1 1
1362 0 2 0.5897 10.836764018240146 12.584832630753407 5.137425162640723 0 1 1
1057 0 1 -1.1794 7.56919180019245 12.677865638656641 5.050252264170751 0 1 0
580 0 1 -1.1794 10.20948689843165 14.203053189045935 5.219576974926717 0 0 0
582 0 2 0.5897 9.25038325747502 13.948984656638054 5.240253808855349 0 0 0
581 0 2 0.5897 10.355851923777061 14.892473528918917 5.87775358702114 0 0 0
1072 0 1 -1.1794 7.991620926987708 14.5222552502571 7.944953302375069 0 -2 0
1074 0 2 0.5897 8.10295809595132 13.598921676572008 7.60098606063687 0 -2 0
1014 0 2 0.5897 7.450752465035508 15.574493626410023 6.895595906073164 0 0 1
1531 0 1 -1.1794 10.590239927628629 15.579029479435023 7.400726716709053 0 -1 2
1073 0 2 0.5897 8.894981087410695 14.872178611571622 8.10551311585298 0 -2 0
1533 0 2 0.5897 11.21601942945722 14.88565080527262 7.627125782010978 1 -1 2
2139 0 2 0.5897 11.868028857509787 15.369976538671711 4.722114492268249 0 -1 1
1091 0 2 0.5897 3.620806604198806 19.272885619390554 4.340783744170498 0 -1 0
1092 0 2 0.5897 2.1012788435758587 19.480582371043806 4.4907930071234965 0 -1 0
1293 0 2 0.5897 1.4940332713618407 19.125081320613887 6.5630588041707085 0 -1 1
1294 0 1 -1.1794 5.106742588511158 19.341935075742875 5.620114981135267 0 0 1
1296 0 2 0.5897 4.768481299129952 18.713025669860816 6.2593868264122285 0 0 1
2010 0 2 0.5897 1.4184991783742191 17.318894350222056 7.394958780314945 0 -1 1
2116 0 1 -1.1794 4.618999224905214 17.71213454684306 7.654042988937874 0 0 0
2008 0 1 -1.1794 1.8640128464935617 18.06142416681739 7.855257455952225 1 -1 1
2118 0 2 0.5897 3.668492514404558 17.82258539529919 7.960177219516903 0 0 0
1295 0 2 0.5897 6.068456406640862 19.15008321518455 5.5247202655281855 0 0 1
1291 0 1 -1.1794 1.102685277290658 19.824625316805847 5.975902062750637 0 -1 1
12 0 2 0.5897 8.646369318970923 16.509587036737226 4.556489891789954 0 0 0
1012 0 1 -1.1794 7.220547885280735 16.160408195777116 6.078423881533132 0 0 1
1532 0 2 0.5897 10.857309993755347 16.45436585652662 7.778666522118191 0 -1 2
1259 0 2 0.5897 10.329004160510888 18.19362601590523 4.6629468445100075 1 0 1
1260 0 2 0.5897 10.938500543115813 19.56571206797065 4.69577931262015 1 0 1
1258 0 1 -1.1794 10.65857187946012 18.835557350948356 5.21254317645645 1 0 1
1043 0 2 0.5897 7.897448664745953 19.30514756016822 6.732241497818841 0 -1 1
1044 0 2 0.5897 8.766181459441315 18.866083075458928 5.587578695272725 0 -1 1
1042 0 1 -1.1794 7.936026675801459 18.65247265251701 5.998278737610584 0 -1 1
2261 0 2 0.5897 10.791029310408266 18.65134077805972 7.2332551656482735 1 2 1
1013 0 2 0.5897 7.5757386363516614 17.02747853987212 6.333857492337851 1 0 1
2260 0 1 -1.1794 11.141438265607137 18.237295571224962 8.031000753006492 1 2 1
2262 0 2 0.5897 12.063726099126182 18.63001747607576 8.157495448403914 1 2 1
1758 0 2 0.5897 1.2634046005762931 0.9586288473336798 8.802000681389623 1 1 0
102 0 2 0.5897 5.174878452572114 0.7219234335151635 8.597122357433904 0 -1 2
599 0 2 0.5897 2.7574978889881763 2.4294751080726464 10.039785328647485 0 0 0
1111 0 1 -1.1794 5.446381516392091 2.5525466730659883 11.240640442650133 0 1 -1
598 0 1 -1.1794 2.976170649471131 2.9519634868679985 10.81037406891834 0 0 0
1112 0 2 0.5897 4.476792580874671 2.828956330055242 11.428359218453958 0 1 -1
1756 0 1 -1.1794 2.2071914840969398 1.032748155375626 9.035392542972732 1 1 0
600 0 2 0.5897 2.207361417866526 2.7860298952083276 11.382556471565934 0 0 0
101 0 2 0.5897 5.519772859586895 1.359650920223445 9.969105949198136 0 -1 2
100 0 1 -1.1794 5.8356483952686835 0.6818570131786055 9.314801665148185 0 -1 2
1113 0 2 0.5897 5.6445653452977345 2.1432516095417236 12.065146213470449 0 1 -1
1587 0 2 0.5897 6.41206681012828 3.7326508961883387 9.95077271758638 0 1 0
875 0 2 0.5897 12.160992643557538 2.774047128772716 8.939122188204319 0 -1 -1
874 0 1 -1.1794 11.947054109270917 1.9512224939212375 8.42547003193304 0 -2 -1
1131 0 2 0.5897 7.5739270224572515 0.34106738834700967 8.729396108411265 0 1 0
2057 0 2 0.5897 9.245502679053867 2.07785564563078 10.947320530309785 0 1 0
2056 0 1 -1.1794 9.091321751503996 2.7338122393199864 11.615461762720264 0 1 0
2058 0 2 0.5897 8.209177698620618 2.431040890893453 11.90204433108929 0 1 0
876 0 2 0.5897 11.34557256757176 1.443457306776243 9.019219837948588 0 -2 -1
2059 0 1 -1.1794 10.248637944509658 0.7050514395830485 10.08666390046655 0 2 0
2061 0 2 0.5897 9.51191334542306 0.48130862526546203 9.505240537693874 0 2 0
852 0 2 0.5897 12.175965347003395 2.4358514675383978 11.730916287890187 0 0 -2
48 0 2 0.5897 1.013954415888779 7.442467970173912 8.801575324989049 0 0 0
1898 0 2 0.5897 5.895874615738701 7.567112513808911 8.96841616667551 0 0 -1
36 0 2 0.5897 3.007358349807224 4.576755458268076 10.4098328092582 0 0 1
34 0 1 -1.1794 3.2001845348688884 5.55667699279123 10.447696588993095 0 0 1
35 0 2 0.5897 3.123872504085054 5.999618960809682 9.540180247728097 0 0 1
1040 0 2 0.5897 4.987212576564361 5.876230464376549 11.213677013082657 0 0 1
795 0 2 0.5897 2.075241256322978 6.09597696722137 11.994369991731533 0 0 1
1897 0 1 -1.1794 6.496034247695427 7.210333615392488 9.66640504036915 0 0 -1
1585 0 1 -1.1794 6.6002324180328085 4.339033255671416 9.21534545801921 0 1 0
1586 0 2 0.5897 6.450610757451331 5.185095460999712 9.614544321090651 0 1 0
1041 0 2 0.5897 6.347483668740971 6.251871124787097 11.837385372443713 1 0 1
1039 0 1 -1.1794 5.670219946216183 5.547521410708975 11.802765799408201 0 0 1
607 0 1 -1.1794 12.15335364865754 4.105024808113862 10.201826906996084 0 0 0
609 0 2 0.5897 11.504724683172148 4.296165383504344 10.908565129254542 0 0 0
33 0 2 0.5897 8.319033134970024 4.715284996914923 8.536655236220748 0 -1 1
765 0 2 0.5897 8.810784326998801 5.013880477336075 11.505028426083758 0 0 0
1899 0 2 0.5897 7.367660723772013 7.263829221353431 9.137002030237486 0 0 -1
505 0 1 -1.1794 10.729662707314247 7.202470050117856 9.439092960780872 0 0 0
763 0 1 -1.1794 9.548481603653592 5.587777698751459 11.650416813198532 0 0 0
507 0 2 0.5897 10.412802715731736 6.744079243301205 10.23425322541756 0 0 0
506 0 2 0.5897 11.687109376870733 7.318209784448921 9.650479405698762 0 0 0
764 0 2 0.5897 10.142686798434832 5.183562124370558 12.286610811639711 0 0 0
1994 0 2 0.5897 1.094180975322697 11.343751140984061 9.4227056683868 1 0 0
1523 0 2 0.5897 5.343970673739738 11.355903509880125 8.47190592375614 0 -1 0
1023 0 2 0.5897 3.355984118885383 8.224666805709138 8.375309270357823 0 0 -1
1021 0 1 -1.1794 2.456241469370762 8.04054254913088 8.746145553803826 0 0 -1
1022 0 2 0.5897 2.5946397100707843 8.587495681641968 9.548233130035932 0 0 -1
894 0 2 0.5897 6.205201194296599 8.483335053367739 10.865559033020373 0 1 0
1304 0 2 0.5897 3.2521488120990423 10.609402446524006 10.664464748907687 0 -1 0
1303 0 1 -1.1794 3.3165473213347094 9.66811207885699 10.838599736832132 0 -1 0
892 0 1 -1.1794 5.78080874273182 9.029581912562804 11.561471424860155 0 0 0
893 0 2 0.5897 4.859134365067491 9.167069454796708 11.246437732447609 0 0 0
1305 0 2 0.5897 2.8993496500610645 9.474650396190517 11.684361641956693 0 -1 0
807 0 2 0.5897 5.945014105640045 10.773077072867256 10.742137670537543 0 1 0
805 0 1 -1.1794 6.133303336452714 11.385502548847931 10.004351090436373 0 1 0
2055 0 2 0.5897 10.737040375303328 9.395515767336567 8.357225768488988 0 -1 0
1389 0 2 0.5897 7.93636570337987 11.296986992131172 8.885258759263362 0 0 0
1387 0 1 -1.1794 8.666884063262529 11.724696650377918 8.456278820029132 0 0 0
1084 0 1 -1.1794 11.120832305813188 9.774962787961977 11.915119304981564 0 0 1
1085 0 2 0.5897 10.20932006452431 10.143807411097178 11.880791308548638 0 0 1
1388 0 2 0.5897 9.383893924519906 11.843622342996897 9.175667984655224 0 0 0
134 0 2 0.5897 7.69800771429641 9.950738891736824 12.212993599713835 0 2 -2
133 0 1 -1.1794 8.441503562147247 10.499877639356638 12.40189043803048 0 2 -2
2076 0 2 0.5897 2.977530591605811 14.808197222201626 8.401327283835208 0 0 1
595 0 1 -1.1794 3.0882154412261205 12.448291732912322 10.87981291098142 0 0 1
596 0 2 0.5897 3.793042385680542 12.78367895516782 11.443306128861249 0 0 0
1265 0 2 0.5897 1.8510785628297222 12.835217543590435 12.271697096455357 0 -1 0
597 0 2 0.5897 3.0051258259683467 13.09624127354443 10.161397857474519 0 0 1
2074 0 1 -1.1794 2.459934616656369 14.749185361777695 9.254755876855716 0 0 1
2075 0 2 0.5897 2.8042962023999904 15.414285027685803 9.924240372976733 0 0 1
2063 0 2 0.5897 6.152914438086803 14.450589137613449 10.76743044425149 0 0 1
2062 0 1 -1.1794 6.039314242873757 14.035992451486974 9.856005508360008 0 0 1
806 0 2 0.5897 6.039240330203705 12.324269925479495 10.15640853051811 0 1 0
1002 0 2 0.5897 2.214306564455038 15.928492749197744 12.43445438834925 1 -1 0
1374 0 2 0.5897 12.149931040012659 15.94133626228306 11.27746093196433 0 1 0
1832 0 2 0.5897 11.631112581132573 12.79852512683234 9.144455843568396 0 -1 1
140 0 2 0.5897 11.31895982453433 12.51211180694731 11.296158621190806 0 2 -1
139 0 1 -1.1794 10.707136939350749 12.683973290003 10.573650108700805 0 2 -1
2064 0 2 0.5897 6.8963617113517905 14.20450063108713 9.385234774362884 0 0 1
141 0 2 0.5897 10.32040364630284 13.575232718092021 10.804249374831468 0 2 -1
1600 0 1 -1.1794 9.218437999244873 15.27666023714721 10.905707731314433 0 -1 0
1601 0 2 0.5897 8.84433835972844 14.9204935008736 11.765621018733725 0 -1 0
1602 0 2 0.5897 10.018336516460593 15.81105854279411 11.25688305416086 0 -1 0
785 0 2 0.5897 7.8891790809622595 12.380807272210221 12.188947017287006 0 1 0
784 0 1 -1.1794 7.5657966026646575 13.249797211299413 12.440023996629918 0 1 0
2117 0 2 0.5897 5.180226767323595 17.874554355755755 8.434375541929624 0 0 0
530 0 2 0.5897 3.2525120737122304 19.797855295274427 10.072275485716553 0 0 0
385 0 1 -1.1794 5.999153760123924 16.058852214443313 11.653973816189502 0 0 0
1808 0 2 0.5897 4.294718120512373 16.183597374210798 11.4850348670146 0 -1 -1
1807 0 1 -1.1794 3.3654973023136656 16.385557149711076 11.319000126383242 0 -1 -1
531 0 2 0.5897 3.9951771332846726 19.656657267243922 11.446903573012808 0 0 0
529 0 1 -1.1794 3.2990743307518398 19.28138143953251 10.882009258788724 0 0 -1
1809 0 2 0.5897 3.3528043388122573 17.32777946373748 11.06192575393933 0 -1 -1
1863 0 2 0.5897 1.9269274715394191 19.225230612743506 11.86485507118104 0 0 0
386 0 2 0.5897 6.067025660348777 16.835736561195407 11.08514035800013 0 0 0
1814 0 2 0.5897 6.154409698684986 18.854785536263662 9.879506754528064 0 -1 -1
387 0 2 0.5897 6.438594627871278 16.258609921823695 12.48349979334205 0 0 0
1813 0 1 -1.1794 6.317146880952712 17.92378198414182 9.852828050811452 0 -1 -1
1573 0 1 -1.1794 5.837162464214683 19.370062915731882 12.34571834996588 0 0 0
2009 0 2 0.5897 1.4411033366210546 18.109138529276365 8.700934222726179 1 -1 1
1372 0 1 -1.1794 11.510736331118938 16.459202496958948 11.73247613600721 0 1 0
1611 0 2 0.5897 11.857045614330035 18.14447149059969 11.441803702213607 0 -1 -1
2060 0 2 0.5897 10.610490282336512 19.947884314339593 10.46933358137358 0 1 0
734 0 2 0.5897 8.72452697004038 18.718847958345382 11.791267804780988 1 0 -2
588 0 2 0.5897 9.741027119019593 18.296108333850956 9.314124317541978 0 0 0
586 0 1 -1.1794 9.09805317834373 18.016940662266613 10.033518272884413 0 0 0
1815 0 2 0.5897 7.287960547247536 17.795652454993633 9.907981273840027 0 -1 -1
587 0 2 0.5897 9.333750090455442 17.072485425968416 10.114411548841154 0 0 0
1610 0 2 0.5897 12.308681608134071 19.48865450280861 11.972977200449044 0 -1 -1
1574 0 2 0.5897 6.8294529111993905 19.336335056872628 12.392548854445451 0 0 0
1609 0 1 -1.1794 11.978768278945171 19.092371375480873 11.17620141151029 0 -1 -1
1843 0 1 -1.1794 1.1638720034556176 2.1161512878803466 12.944825481809202 0 0 0
1103 0 2 0.5897 4.453142329812216 2.3469715441110606 13.979733566891241 0 1 0
1102 0 1 -1.1794 4.136123081106594 1.4426301919149467 14.059446554704815 0 1 0
255 0 2 0.5897 2.4115398580040712 1.2136980709264824 15.092906590542732 0 0 -1
1104 0 2 0.5897 4.892265585382379 0.8876789835673934 13.841530588548899 0 1 0
253 0 1 -1.1794 1.9203316715094354 0.9728809250136633 15.880444097157667 0 0 -1
254 0 2 0.5897 0.9650120278962611 0.8580510391283291 15.722165803958609 0 0 -1
303 0 2 0.5897 1.6693936694241678 3.439306973592978 14.109850699744138 0 0 1
1845 0 2 0.5897 1.3689466829271075 1.205153045092202 12.954401386572622 0 0 0
390 0 2 0.5897 6.669682148224592 1.8346973232485304 14.53178901493966 0 1 -1
1321 0 1 -1.1794 6.8565722506574485 0.6297378561856216 16.090783738407776 0 1 -1
359 0 2 0.5897 11.266230188262094 0.7880401964690144 13.149709788847959 0 0 -1
388 0 1 -1.1794 6.915353654287212 2.174570718590576 13.639803240788105 0 1 -1
360 0 2 0.5897 10.044842608499774 1.793787688195756 13.10272458303341 0 0 -1
358 0 1 -1.1794 10.530739046628725 1.130391714822411 13.658399770059443 0 0 -1
1082 0 2 0.5897 9.995698850775835 1.601905908109562 15.414704964667 0 0 -1
389 0 2 0.5897 7.478964846969971 2.9486722099863707 13.88557203772289 0 1 -1
1081 0 1 -1.1794 9.593892945348596 1.5124934663912144 16.316532915189164 0 0 -1
1322 0 2 0.5897 7.783097813382182 0.8318441719630911 16.35744415041262 0 1 -1
1083 0 2 0.5897 9.98674596152646 0.6888942479043423 16.68344162385513 0 0 -1
1903 0 1 -1.1794 4.589888057031086 4.322968466812503 14.303447242942847 0 0 1
301 0 1 -1.1794 1.8411661185136605 4.166622132112294 14.746746662710164 0 0 1
302 0 2 0.5897 2.808454320860922 4.20505627366496 14.651584279013997 0 0 1
1904 0 2 0.5897 4.932988879235129 4.876550081485281 15.023204286829875 0 0 1
794 0 2 0.5897 1.837357712899188 5.553350937922627 13.499143428228223 0 0 1
1905 0 2 0.5897 4.942949974052217 4.7281041639259085 13.50536295690177 0 0 1
755 0 2 0.5897 5.741972234816336 7.771914141342816 15.237993432858486 1 1 1
754 0 1 -1.1794 6.173303275339461 7.5157065743232945 16.078398120083335 1 1 0
793 0 1 -1.1794 1.5061535319815154 6.194896889017581 12.805074819106638 0 0 1
858 0 2 0.5897 1.3858776861528443 7.515978535516174 15.819577596553962 0 0 -1
1094 0 2 0.5897 1.578407978149201 7.897438557797534 13.243931749355196 0 0 0
856 0 1 -1.1794 2.398445161842559 7.511913649930065 15.674477880753361 0 0 -1
756 0 2 0.5897 5.865171636006588 6.604759460581885 16.262126177132256 1 1 1
1037 0 2 0.5897 3.189893732117023 6.2782950807398805 16.50061266451936 0 -1 -1