LAMMPS data file via write_data, version 23 Jun 2022, timestep = 0

2268 atoms
2 atom types

0.9862352027998895 46.464463797201056 xlo xhi
0 20.047001 ylo yhi
0 20.857 zlo zhi

Masses

1 1.008
2 15.999

Atoms # full

2136 0 2 0.5897 5.469622028277247 1.5730061246589506 0.9459609567669601 0 0 1
2135 0 2 0.5897 5.191210132736811 2.3713091641913984 2.1608051941156137 0 0 1
2134 0 1 -1.1794 5.503521592155534 2.473625758527474 1.2766234013711328 0 0 1
1020 0 2 0.5897 3.2475949231079797 1.284899228562427 3.0624830526794775 0 0 0
1072 0 1 -1.1794 1.915793723476144 0.6343760036615396 2.173242629722046 0 -1 0
564 0 2 0.5897 2.0888782604941007 1.594961132161826 0.7315816618981323 0 1 0
1529 0 2 0.5897 3.0837983983783213 3.512866816762327 3.3712603430305808 0 0 0
1018 0 1 -1.1794 3.822420039836674 1.8996362246574654 3.5333767492691166 0 0 0
1073 0 2 0.5897 1.1775644650885466 0.7285456374280674 2.878012779494529 0 -1 0
1854 0 2 0.5897 7.361760113068788 2.6266058264652705 1.417423338400193 0 0 1
1853 0 2 0.5897 8.92036553055875 2.8312682294425406 1.0265379166285669 0 0 1
1852 0 1 -1.1794 8.268063205241146 2.670330285666258 1.7873524761711597 0 0 1
735 0 2 0.5897 8.565554276692916 1.6667411613551586 3.0170173063188397 1 1 0
1277 0 2 0.5897 11.56429024697763 3.515461274733955 3.3783651939662738 0 0 0
733 0 1 -1.1794 8.648339454086013 0.9175043534977048 3.618241898393037 1 1 0
1276 0 1 -1.1794 10.846250911317977 3.560202053859225 2.701694366289745 0 0 0
1538 0 2 0.5897 12.081909847941082 1.1027855506828745 1.4995861786576241 0 1 1
1537 0 1 -1.1794 11.908486062445899 0.9258589581616005 0.5848051663807644 0 1 1
1278 0 2 0.5897 10.067354098623472 3.723652542370724 3.1969049699188585 0 0 0
2157 0 2 0.5897 10.389040880280833 0.15054751267947974 0.04865798076745099 0 0 -1
1530 0 2 0.5897 2.0903820742312735 4.582228023710132 3.230800838188457 0 0 0
1528 0 1 -1.1794 3.015038715135641 4.422847317284665 3.1698180831043343 0 0 0
105 0 2 0.5897 3.80537738776116 5.134229857545793 0.9003738203525767 0 0 0
103 0 1 -1.1794 4.762422621012028 5.176180767077572 0.6970678150209992 0 0 0
100 0 1 -1.1794 6.376751664039699 8.00604855152893 0.8479165354883637 0 -1 2
1059 0 2 0.5897 1.640633906816019 6.283979150619657 1.1749434244024728 0 1 0
1057 0 1 -1.1794 1.6783714382938708 7.26565408703772 1.2264277019722252 0 1 0
104 0 2 0.5897 5.070812037957551 4.2871009180568755 0.9920583413822716 0 0 0
1091 0 2 0.5897 2.95797104722131 7.842327257622946 2.531752428118508 0 0 0
1017 0 2 0.5897 6.043330003685637 5.557524053502981 3.672515855691074 0 0 0
1092 0 2 0.5897 2.780415895081799 7.726606938629667 4.026756940063345 0 0 0
1016 0 2 0.5897 4.495996880869405 5.294162038183046 3.7507323542151876 0 0 0
102 0 2 0.5897 6.427925253900593 7.388106539558797 1.523814896794548 0 -1 2
281 0 2 0.5897 1.3285310145910554 4.147820185888675 1.4198343413127927 0 0 0
280 0 1 -1.1794 1.6502208739370667 4.517822091169772 0.5716655221852652 0 0 0
1791 0 2 0.5897 7.760179894846313 4.817417005747902 2.6093150757871224 0 0 0
1790 0 2 0.5897 8.200159403277677 6.277805758831978 2.8176676686097064 0 0 0
1789 0 1 -1.1794 7.441014040041972 5.718037042581093 2.543314759834824 0 0 0
1766 0 2 0.5897 9.41488692226079 5.617092238205677 0.5607228669205353 0 -1 0
1767 0 2 0.5897 10.399669807700187 4.941929253525887 1.6608879541652921 0 -1 0
1765 0 1 -1.1794 10.339344814665107 5.420826895611475 0.8040467589398139 0 -1 0
350 0 2 0.5897 11.337411048591958 6.802376971925894 1.7997812838087002 0 -1 1
31 0 1 -1.1794 9.337638245574189 7.739720513777743 3.03847110204628 0 0 0
349 0 1 -1.1794 12.18945350280927 7.057079208891334 2.2341976963762162 0 -1 1
351 0 2 0.5897 11.984869014577768 7.819179833866465 2.8971089817506583 0 -1 1
101 0 2 0.5897 5.41349723516043 8.24900481482007 0.7854498559776583 0 -1 2
1090 0 1 -1.1794 3.17119885249793 8.243431644162069 3.3671308966482423 0 0 0
1809 0 2 0.5897 4.962782370794837 8.339013162979327 3.330659895962989 0 -1 0
1807 0 1 -1.1794 5.832745366986369 8.6743692286782 3.657475690336876 0 -1 0
2268 0 2 0.5897 2.5291808581684965 10.181219985130564 2.1009743554387086 1 0 1
356 0 2 0.5897 4.961775647907564 10.21142845629782 1.2180089586858223 0 0 1
2266 0 1 -1.1794 1.7731926923764412 10.71706020876585 2.440092162390459 1 0 1
355 0 1 -1.1794 5.395842414081368 11.02955440712688 1.460767747131184 0 0 1
1037 0 2 0.5897 3.0441321705048354 8.32774272304034 0.4346110986237833 0 -1 0
2267 0 2 0.5897 2.2781533142730144 11.352040766699195 2.9604096942690274 1 0 1
1808 0 2 0.5897 5.929469582230793 9.591238550571108 3.2462792685880575 0 -1 0
1036 0 1 -1.1794 3.840592845147713 8.896528142114656 0.4255174258782587 0 -1 0
357 0 2 0.5897 6.2750664802913105 11.032744111616962 0.990251674115464 0 0 1
1299 0 2 0.5897 1.1756189562515347 11.74503131466088 1.5198771403656248 0 0 0
32 0 2 0.5897 9.123495239075485 8.358794738848367 3.7703480060670618 0 0 0
33 0 2 0.5897 9.316807259945623 8.328892571142909 2.2587292085085373 0 0 1
1816 0 1 -1.1794 9.70703129999032 8.834520597597113 0.32329735921321373 0 0 0
1296 0 2 0.5897 10.11872366816327 10.464710035929103 1.5400617965152528 0 0 1
1294 0 1 -1.1794 10.492911111456015 10.999102054344766 2.2589783811724993 0 0 1
1295 0 2 0.5897 11.359282506211969 11.331031922786055 1.9564891512072424 0 0 1
1598 0 2 0.5897 11.342274156208154 9.97749305609146 3.639387822302203 0 -1 1
1597 0 1 -1.1794 11.995014283384155 9.286455004937592 3.818311714475516 0 -1 1
2241 0 2 0.5897 8.51666792463613 11.665057076096975 3.154985647831692 1 0 1
2239 0 1 -1.1794 7.73750866377675 11.997156574458735 2.765214426307088 1 0 1
833 0 2 0.5897 7.3421999729744085 9.525164631880806 0.14262090080219236 0 1 2
1076 0 2 0.5897 4.595233375357675 12.757791337474393 1.4916508389404988 0 0 1
1075 0 1 -1.1794 3.936219226311938 13.455339806352468 1.3715368209258454 0 0 1
1320 0 2 0.5897 5.092324483641059 15.12336398572575 0.6514413450252774 0 1 0
476 0 2 0.5897 2.846894734630869 14.542443750208763 2.442829716764946 1 0 0
475 0 1 -1.1794 2.381461152706799 15.038670784756874 3.19053671784754 1 0 0
1077 0 2 0.5897 3.238340539582492 13.128682620509133 0.7869248632366338 0 0 1
1318 0 1 -1.1794 5.976730235697012 15.400283519349044 0.29482993599363216 0 0 0
515 0 2 0.5897 5.874124058619015 15.800118053158304 3.226716166801455 0 -1 0
477 0 2 0.5897 1.4480191827555755 14.742956269021363 3.1648076510874046 1 0 0
1581 0 2 0.5897 2.766943797371331 16.029414555231092 0.7948209984772243 0 0 0
1107 0 2 0.5897 2.8813851786241838 13.277568046906492 3.949655560825105 0 -1 1
363 0 2 0.5897 1.2042319300055868 14.172240579672563 0.33872026223201984 0 0 1
2240 0 2 0.5897 8.065498368759641 12.447647240521338 1.9048959068023676 1 0 1
329 0 2 0.5897 9.079835075844262 13.805722406536601 0.6331652598719255 0 -1 0
816 0 2 0.5897 11.695168222312672 14.686918324102663 0.6986605525292552 0 1 1
814 0 1 -1.1794 11.494439512902689 13.778047804876968 1.0929916712653158 0 1 1
815 0 2 0.5897 10.985369546373468 13.923220182535006 1.8629145166278782 0 1 1
1772 0 2 0.5897 9.326645389473423 15.079416339056872 3.3396988358092057 0 -2 0
1771 0 1 -1.1794 10.03624331191924 14.458090689137862 3.545418158754681 0 -2 0
330 0 2 0.5897 7.632130493616051 14.391928378189922 0.6029973083309864 0 -1 0
328 0 1 -1.1794 8.184043519709476 13.6052598608427 0.423469627126626 0 -1 0
1333 0 1 -1.1794 7.442762270769543 15.042380048122268 3.444877372625381 0 -1 1
1335 0 2 0.5897 7.552958787116571 14.073563248805725 3.393734360718247 0 -1 1
1319 0 2 0.5897 6.164359348371397 16.215097125913292 0.804370015752527 0 0 0
2017 0 1 -1.1794 5.755195722859258 19.83688779631153 0.1969612070170591 0 -1 0
1580 0 2 0.5897 3.8889284949803518 16.481941177769315 1.6287813221506422 0 0 0
1074 0 2 0.5897 1.6460505444179958 20.02286850685697 1.5151396483043438 0 -2 0
514 0 1 -1.1794 4.9825515288836595 16.205253644959274 3.119451180793375 0 0 0
1142 0 2 0.5897 4.898174621307661 19.35332413123265 1.8881790665422555 0 -1 2
516 0 2 0.5897 5.2644398870369855 17.112228844657025 2.8076757579179534 0 0 0
1764 0 2 0.5897 1.9270131294732695 17.879341319120535 0.5956761631068913 1 -1 0
1141 0 1 -1.1794 4.858631663775014 18.880222629135588 2.7084936463132667 0 -1 2
1143 0 2 0.5897 5.053179998354348 19.625547515871006 3.3210155417280562 0 -1 2
342 0 2 0.5897 3.2830882146479747 18.240066019674753 3.3296475332860647 0 0 0
341 0 2 0.5897 2.4062787018396143 17.049417056778083 3.2704100480065446 0 0 0
1579 0 1 -1.1794 3.3225554071586325 16.790648558707908 0.9173322940120607 0 0 0
1762 0 1 -1.1794 1.2119272306870386 18.575026205115496 0.5328956711854632 1 -1 0
340 0 1 -1.1794 2.4063217652821907 17.953410569198866 3.543887279176294 0 0 0
1394 0 2 0.5897 6.999115855974869 18.576423979965238 1.172988590011573 0 1 0
552 0 2 0.5897 10.680981690826483 18.033090564645768 3.233777416696907 0 -1 1
1395 0 2 0.5897 7.799964704960118 17.685005153277327 2.2823766578250235 0 1 0
1393 0 1 -1.1794 7.424676789465193 17.73382385148842 1.3743989842304498 0 1 0
2022 0 2 0.5897 8.92675128593946 19.209818892700824 3.544978287192903 0 -1 0
2020 0 1 -1.1794 9.077999347119786 18.24678476792639 3.5316727704024005 0 -1 0
551 0 2 0.5897 11.667815468230817 17.505459998622403 2.0721444159975757 0 0 1
1612 0 1 -1.1794 11.817246085450392 16.379671065352674 0.506043572657436 0 0 0
550 0 1 -1.1794 11.643670408111387 17.749040458562412 2.9997429784044964 0 -1 1
2009 0 2 0.5897 8.798432269541081 17.27943726097177 0.1173455899099159 1 -1 1
608 0 2 0.5897 12.306653656603853 16.170993750143612 3.7631064794184237 0 0 0
134 0 2 0.5897 5.607322424094425 1.0846528365428347 5.148724409491473 0 1 -1
1019 0 2 0.5897 3.576897838100085 1.689659320057527 4.446998074163177 0 0 0
1603 0 1 -1.1794 3.363457719091013 1.081658300202573 6.22617354821895 0 0 0
35 0 2 0.5897 1.6454415561852511 1.7919009318804846 6.812382459777923 0 0 1
1116 0 2 0.5897 4.632127021634178 2.966365310063916 5.929865461902724 0 0 0
1114 0 1 -1.1794 5.569571668397297 3.039257703368046 5.81641185850979 0 0 0
1605 0 2 0.5897 2.997519515379002 0.18241511031249538 6.293554912191582 0 0 0
1115 0 2 0.5897 5.648415349354958 3.6873088203648656 5.151779625884541 0 0 0
133 0 1 -1.1794 5.910815141107272 0.31818140183644655 4.723667512331967 0 1 -1
225 0 2 0.5897 1.7422116031329005 3.8570798560227373 7.276416433703376 1 0 0
1604 0 2 0.5897 3.700968261797045 1.1688774458253202 7.124249817275692 0 0 0
34 0 1 -1.1794 1.0080670562645508 2.3974609408250527 7.140725077985492 0 0 1
734 0 2 0.5897 9.244631486912766 1.2285982866451974 4.2999974363558735 1 1 0
1560 0 2 0.5897 6.801918818301021 2.330301859822222 6.833964502939849 0 1 0
132 0 2 0.5897 10.189691793662336 2.7461721843459186 5.975025434089108 0 1 0
130 0 1 -1.1794 9.935628979156029 1.816473444741251 5.887785255664078 0 1 0
131 0 2 0.5897 9.082609441980447 1.806953159701025 6.378730934891921 0 1 0
1558 0 1 -1.1794 7.539152852235351 1.8233653959425982 7.228455136459214 0 1 0
1559 0 2 0.5897 7.248649652300152 0.8676028881930672 7.30279568688016 0 1 0
135 0 2 0.5897 6.853047858643169 0.40679281555977725 4.605562649546535 0 1 -1
798 0 2 0.5897 11.197285959016227 0.9643281567083941 6.356966261170349 0 0 0
797 0 2 0.5897 11.889900080845543 0.4216992988325516 7.609107618320671 0 0 0
1112 0 2 0.5897 9.444330122402715 3.9125876705140765 8.2660716182587 0 0 -1
796 0 1 -1.1794 12.023626276353449 0.6127497159768974 6.618518881531632 0 0 0
1775 0 2 0.5897 12.283531601529718 3.3264247078548426 7.983044560628123 0 -1 1
1015 0 1 -1.1794 5.298483365076041 5.2537634153332435 4.2792887966114215 0 0 0
1834 0 1 -1.1794 1.7371943144703343 6.771614318985601 5.332813782008777 0 1 1
223 0 1 -1.1794 2.103180701114292 4.730568678378135 7.077630931104429 1 0 0
224 0 2 0.5897 2.959282967958872 4.663438712858765 7.514993485561553 1 0 0
1835 0 2 0.5897 2.0993371088246233 6.0397400257942016 5.851813322697593 0 1 1
2108 0 2 0.5897 4.8952225516914805 5.9797871624422685 5.834519346820543 0 0 1
2107 0 1 -1.1794 4.821384821909092 6.410418134217119 6.741548139054549 0 0 1
1836 0 2 0.5897 1.805220452417574 7.633144275036213 5.754403899107177 0 1 1
2109 0 2 0.5897 4.573584996728076 7.325342416170469 6.663087896905515 0 0 1
804 0 2 0.5897 4.841035981150459 5.2140828753946025 7.905744827062683 0 1 1
2120 0 2 0.5897 2.6150264803611947 6.6221603292232265 8.187534883996918 0 0 0
1338 0 2 0.5897 11.452654943698413 7.426192147030562 4.4921508151997305 0 1 0
1797 0 2 0.5897 8.75480785154056 5.971048828149223 4.720961347819482 0 0 0
545 0 2 0.5897 6.948806171287215 7.866263234463422 4.8495014269365715 0 0 0
1796 0 2 0.5897 9.188956824529132 4.933373282091489 5.682246685807982 0 0 0
1795 0 1 -1.1794 9.39317513178531 5.2572520385509165 4.753118521652648 0 0 0
546 0 2 0.5897 7.279255072467833 7.051618279662419 6.1990959767327585 0 -1 0
544 0 1 -1.1794 7.616766819321333 7.400968389198537 5.389124997071949 0 -1 0
1337 0 2 0.5897 10.978382792570939 6.1100738437106825 4.994160073744097 0 1 0
1336 0 1 -1.1794 11.525092444665995 6.8387282000524765 5.2224952155663 0 1 0
1111 0 1 -1.1794 10.199950315128666 4.336693903722708 7.768941545793775 0 0 -1
1849 0 1 -1.1794 7.337310436057116 6.3300992953349295 8.066950718188625 0 0 0
372 0 2 0.5897 10.992151798228402 7.687668244130073 6.9477613332922274 0 0 1
1850 0 2 0.5897 6.732781402694954 5.588888590345759 8.153400021553539 0 0 0
1113 0 2 0.5897 10.316979911820196 5.1423771143389905 8.269039407350178 0 0 -1
512 0 2 0.5897 4.876971631334338 11.852896365113729 4.443962102038106 0 0 0
511 0 1 -1.1794 5.702561000154609 11.63605627646466 4.8888522766479845 0 0 0
1989 0 2 0.5897 5.009616611955715 9.10923576457082 5.312451781389155 1 0 0
1987 0 1 -1.1794 4.421716049380967 9.194692536233395 6.065888624421724 1 0 0
887 0 2 0.5897 2.4233929006093766 9.40665832058184 5.806200106364642 0 0 0
1988 0 2 0.5897 4.680677915698076 9.956094134712538 6.625997705172078 1 0 0
513 0 2 0.5897 6.337378709293925 11.859498815489301 4.2366657221681665 0 0 0
886 0 1 -1.1794 1.4967649469840474 9.26605973437481 6.060096611560479 0 0 0
888 0 2 0.5897 1.4567655477421737 9.798728694292391 6.8616184071203925 0 0 0
601 0 1 -1.1794 1.5526720187192895 10.874712446115844 8.220155620820899 0 0 1
1315 0 1 -1.1794 6.9248963331094 10.970805369327293 7.613993069558767 0 1 0
1316 0 2 0.5897 7.182064942303421 10.699657020917279 6.7282494666557175 0 0 0
370 0 1 -1.1794 11.183454519625759 8.277312923307424 7.678458992484066 0 0 1
1484 0 2 0.5897 8.664048203773566 9.123905499650261 5.48085574639539 1 0 1
1483 0 1 -1.1794 8.860653091403275 9.940316652707509 4.925148445834524 1 0 1
1485 0 2 0.5897 9.59723395501424 10.385975938940604 5.355242995288124 1 0 1
371 0 2 0.5897 11.761223311268099 8.939464487282692 7.306022317927328 0 0 1
92 0 2 0.5897 11.31674987760016 11.296742443057575 6.649061928703205 0 0 0
91 0 1 -1.1794 10.919807736900227 11.50493456447696 5.764387711560191 0 0 0
1317 0 2 0.5897 7.562245115735421 10.496718728344566 8.143178209021833 0 1 0
520 0 1 -1.1794 11.942173576114191 10.913894947588032 8.326379604479103 0 0 1
1871 0 2 0.5897 1.6221744680183243 12.435267402186144 7.19991011994157 0 1 1
63 0 2 0.5897 5.548690931585956 12.80359233242687 6.29153134745915 0 0 0
1830 0 2 0.5897 1.771813863024607 14.877408528314556 6.868438052399011 0 -1 0
1105 0 1 -1.1794 3.1996872255287605 12.37722315738616 4.1971625439077025 0 -1 1
1106 0 2 0.5897 3.060409934238879 12.350810095117767 5.134634861868694 0 -1 1
61 0 1 -1.1794 5.084483704853716 13.532554926748755 6.748967706705904 0 0 0
62 0 2 0.5897 4.7791561087819385 14.278363232155122 6.159038354559618 0 0 0
1828 0 1 -1.1794 1.8792787200452863 15.836754943865788 6.915708638239545 0 -1 0
1292 0 2 0.5897 3.2179782580511183 15.969749657345721 5.77695953822052 0 -1 1
1829 0 2 0.5897 2.0984897892521985 15.922403989904385 7.87055242950066 0 -1 0
1291 0 1 -1.1794 4.173025914198156 15.944414619063702 5.586167082879458 0 -1 1
1870 0 1 -1.1794 1.6464909781987789 13.095784762883484 6.4338442649167344 0 1 1
1773 0 2 0.5897 10.141603407651573 14.427501031195158 4.48580993722838 0 -2 0
93 0 2 0.5897 10.635231732755614 12.412136245594795 5.9458469379643155 0 0 0
1334 0 2 0.5897 7.503441032101928 15.23236788277392 4.432784773913245 0 -1 1
1305 0 2 0.5897 7.6698943906690085 12.721915665230421 7.708110501893912 0 -1 0
1304 0 2 0.5897 7.150958322971135 14.08323193017341 7.326502211774399 0 -1 0
1303 0 1 -1.1794 7.951554906401789 13.649151040279515 7.543676129774743 0 -1 0
790 0 1 -1.1794 10.21758393607483 14.198879410944711 6.282161452232478 0 0 0
791 0 2 0.5897 10.824599878928405 14.197684605006023 7.015795426979007 0 0 0
792 0 2 0.5897 9.302542904164145 14.038685728992908 6.635486296293182 0 0 0
755 0 2 0.5897 12.082560930950043 12.220566325583347 4.237607057792805 1 0 1
1777 0 1 -1.1794 7.418823972946815 15.885502973913596 5.94695971549071 0 0 1
1293 0 2 0.5897 4.402279614545158 16.19639511435665 4.683038097478774 0 -1 1
1544 0 2 0.5897 1.740551878108564 18.259997075955603 6.808221141854345 0 0 1
2048 0 2 0.5897 5.1071837137248535 19.012645157314758 5.824879548661411 0 -2 1
2047 0 1 -1.1794 5.14648155597222 18.401506115224453 6.546552150375507 0 -2 1
2049 0 2 0.5897 4.824705067998131 17.54626837236363 6.195182509669525 0 -2 1
1545 0 2 0.5897 1.791796108408922 18.333068595743907 5.307439918995529 0 0 1
1543 0 1 -1.1794 1.569443793440437 18.86431433755387 6.058502596749381 0 0 1
44 0 2 0.5897 6.556230500851627 18.92499644105329 7.553018157558794 0 -1 0
1778 0 2 0.5897 6.514535736132576 16.076021552634785 6.186810645698753 0 0 1
1779 0 2 0.5897 7.985750655928483 16.614582909901817 6.21304608047316 0 0 1
2021 0 2 0.5897 9.18070871177542 18.03111679490489 4.437356081833622 0 -1 0
1041 0 2 0.5897 9.54648451490516 17.567498414866584 7.138722428397412 1 0 1
1040 0 2 0.5897 8.50320924956031 18.479278281747515 6.796540538560525 0 0 1
1039 0 1 -1.1794 9.022896341731041 17.857731881058655 6.342280791366143 0 0 1
43 0 1 -1.1794 7.375240277233726 19.399295683669962 7.651321435381949 0 -1 0
1024 0 1 -1.1794 4.578271136360593 1.829146412697547 8.772621744712882 0 0 0
1026 0 2 0.5897 4.808471912969747 2.7461987038043847 8.553752605462613 0 0 0
1904 0 2 0.5897 2.533529315110055 3.2248550953026873 10.677265732578741 0 0 1
1025 0 2 0.5897 3.9369039444827383 1.90367429101998 9.484720634471573 0 0 0
1735 0 1 -1.1794 3.1920272889659693 1.4714821989201796 11.45981885228593 1 0 1
1736 0 2 0.5897 3.7491999177907953 1.0000731032424115 12.031226982674989 1 0 1
1737 0 2 0.5897 2.3420323740363127 0.9758999776005676 11.452975368470462 1 0 1
1903 0 1 -1.1794 2.7738666164557086 3.8851903000078947 10.007212377168294 0 0 1
1066 0 1 -1.1794 11.574600000480636 0.7938476745537967 9.332167393091558 0 0 0
51 0 2 0.5897 7.579112177196023 2.792820650452924 8.654225174083832 0 1 1
358 0 1 -1.1794 10.065612975951174 2.5543762850299814 10.541707670967822 0 0 0
359 0 2 0.5897 9.15441272304916 2.777497267420127 10.352536643351042 0 0 0
1068 0 2 0.5897 10.886138736900016 1.429724334856637 9.537982959581017 0 0 0
360 0 2 0.5897 10.117582509289345 2.407609061120726 11.502415163743194 0 0 0
1101 0 2 0.5897 7.914596036847953 0.3984794118445347 12.341770509144803 0 1 0
1110 0 2 0.5897 11.49422326753891 3.646333133502907 10.1807429808487 0 1 -1
49 0 1 -1.1794 7.9381925914472635 3.4158974837824707 9.249310956412009 0 1 1
50 0 2 0.5897 7.173137434666717 3.9125410527192304 9.608982714890217 0 1 1
802 0 1 -1.1794 4.960009980580938 4.493451426476698 8.525964704760788 0 1 1
48 0 2 0.5897 1.1667398630412396 7.510144541090209 9.878432776421828 0 0 0
560 0 2 0.5897 6.275816914645549 7.57915535583834 8.74045015697581 0 0 0
803 0 2 0.5897 4.515462663360815 4.747841414249928 9.378473955979901 0 1 1
1905 0 2 0.5897 1.9734767017994987 4.486870754362534 9.86448386496748 0 0 1
2121 0 2 0.5897 3.5999876910780544 7.153792551059561 9.225308986153724 0 0 0
2119 0 1 -1.1794 2.642944435371694 7.119398466014171 9.013329118405172 0 0 0
890 0 2 0.5897 3.649310418349579 5.17657689044677 11.090171398070304 0 1 1
889 0 1 -1.1794 4.4629745323137335 5.554861960430827 11.503047520618829 0 1 1
2123 0 2 0.5897 6.263410170975229 5.433281099310841 11.250079745475796 0 0 0
891 0 2 0.5897 4.1731536543645555 6.137376249260048 12.286211835527292 0 1 1
559 0 1 -1.1794 5.485360425629229 8.014735891186534 9.25841737542666 0 0 0
1647 0 2 0.5897 11.811743925591943 6.024767718304565 10.994765733191002 0 0 0
2122 0 1 -1.1794 7.195654307658579 5.331624877781602 11.149000703344187 0 0 0
2124 0 2 0.5897 7.354312627080035 4.697251531234159 11.866647464033957 0 0 0
290 0 2 0.5897 9.70720894017214 6.8113573008356365 10.380596624297704 0 -1 0
289 0 1 -1.1794 10.006586107893138 6.4121424410066785 9.566496712736912 0 -1 0
291 0 2 0.5897 10.465473201097252 7.136081163503416 9.068371617052795 0 -1 0
1576 0 1 -1.1794 8.419041431830713 7.6593085498521525 11.6764429996906 0 0 0
1851 0 2 0.5897 8.160033896038541 6.13334523727926 8.525527315148912 0 0 0
1577 0 2 0.5897 7.915243130984973 6.853457124535927 11.396070150655762 0 0 0
1646 0 2 0.5897 11.73956897909575 7.164271498909114 12.051473427820135 0 0 0
1645 0 1 -1.1794 11.87428403099895 6.191095429034257 11.94794162830875 0 0 0
986 0 2 0.5897 2.622063825853995 8.602509740115371 12.152204218699252 1 0 0
985 0 1 -1.1794 3.0735747577879615 8.996478516947969 11.439016022787788 1 0 0
987 0 2 0.5897 2.921935686908739 8.474296960533223 10.662353121387472 1 0 0
561 0 2 0.5897 5.919495618647768 8.452836400547188 10.024917518539176 0 0 0
1536 0 2 0.5897 4.612770333121065 9.72368150139059 8.586612746477284 0 -1 0
1534 0 1 -1.1794 4.07986843474267 10.439222750933695 8.919915430867027 0 -1 0
602 0 2 0.5897 2.3742587477291917 10.655267312320445 8.698454818900814 0 0 1
1535 0 2 0.5897 4.50409746252204 11.266784594731483 8.71560306021733 0 -1 0
765 0 2 0.5897 3.7327843863349046 11.828567511155955 10.726700204259744 0 0 0
763 0 1 -1.1794 3.526289209610173 11.604843299991813 11.619490542581103 0 0 0
2025 0 2 0.5897 5.702740974380108 9.716771853325266 12.416232012473543 0 0 0
2023 0 1 -1.1794 6.51276911238356 9.725903797631625 11.930605186558203 0 0 0
764 0 2 0.5897 3.317960865511588 10.660038015089974 11.655173646552324 0 0 0
2024 0 2 0.5897 6.369524209008567 10.541394226204433 11.331231562026913 0 0 0
1578 0 2 0.5897 7.735931342412064 8.316120174087503 11.893776242086892 0 0 0
2058 0 2 0.5897 9.722148319830895 8.935782642836896 8.544397497851419 0 0 0
2056 0 1 -1.1794 8.93631875856258 9.25492333483293 8.97001158223717 0 0 0
2057 0 2 0.5897 9.077521535694432 9.290985223937595 9.898533564822685 0 0 0
1540 0 1 -1.1794 9.699512057489473 10.888074453556353 11.8664317334493 0 0 0
521 0 2 0.5897 11.210192568788413 11.276219725749018 8.833714514180029 0 0 1
1542 0 2 0.5897 10.170742975309617 10.105593927903685 12.19495840017214 0 0 0
1279 0 1 -1.1794 11.70899614279107 8.933772470128726 12.176973191037174 0 0 0
528 0 2 0.5897 9.765498600299768 11.68351485091849 10.672828501814552 0 0 0
1541 0 2 0.5897 9.007548003549303 11.177949007689866 12.476727791300391 0 0 0
1280 0 2 0.5897 12.320681320418034 8.890759952196184 11.451141378562667 1 -1 0
1028 0 2 0.5897 1.089037656339533 14.401791719202329 9.978882036481467 0 0 0
1770 0 2 0.5897 4.934881141054515 13.533648120033579 8.455680896721914 0 0 0
1768 0 1 -1.1794 4.768730101287375 13.246425896001764 9.383475168673707 0 0 0
1769 0 2 0.5897 5.618140427725689 13.048628924118894 9.79184646023821 0 0 0
605 0 2 0.5897 3.4589899672898095 14.28362540618967 9.92137310938011 0 -1 0
604 0 1 -1.1794 2.978643745625778 14.984146361318189 10.398598179133065 0 -1 0
606 0 2 0.5897 3.5228800529865727 15.22816708477687 11.122960785145928 0 -1 0
1325 0 2 0.5897 2.036344737115188 12.860017356972586 12.1803648011671 0 0 -1
1522 0 1 -1.1794 4.682067769016563 15.536638889711076 12.409571215456358 0 -1 0
1523 0 2 0.5897 4.967532826155047 14.591025950152916 12.476523233256193 0 -1 0
584 0 2 0.5897 12.346835722399037 15.64045955340078 11.722100386789549 0 0 0
76 0 1 -1.1794 6.856495904203406 12.110047303276732 10.96478104072345 0 0 -1
77 0 2 0.5897 6.847072530147197 12.58341948979866 11.813489743185258 0 0 -1
1139 0 2 0.5897 7.304290833258871 15.56967263457993 9.2004233064469 0 0 -1
78 0 2 0.5897 7.788746029351068 12.23101739438139 10.649564532344623 0 0 -1
527 0 2 0.5897 10.207874402891463 13.12553447974045 10.076979816538673 0 0 0
1140 0 2 0.5897 8.24249037384861 14.42008814358335 9.167249273500527 0 0 -1
526 0 1 -1.1794 9.837449586488367 12.22871511352696 9.847636477625082 0 0 0
980 0 2 0.5897 8.707476041580984 15.685404235750491 11.292195729767322 1 -1 0
583 0 1 -1.1794 11.810725044423153 14.848938637275262 11.494958440455298 0 0 0
1138 0 1 -1.1794 7.934816934359854 15.124795812716174 9.816373494546065 0 0 -1
981 0 2 0.5897 10.055231862033393 15.397261745765917 12.098121743260869 1 -1 0
979 0 1 -1.1794 9.160301307193473 15.902525596534717 12.152212324610485 1 -1 0
1034 0 2 0.5897 12.070247772426635 14.758459258256506 9.49529053486074 0 0 1
1033 0 1 -1.1794 11.819304112170798 14.72081455320608 8.565835928045855 0 0 1
585 0 2 0.5897 12.32033487677441 14.125745120900499 11.904908984027934 0 0 0
1602 0 2 0.5897 4.776158283573707 16.05875543364828 9.430160453100722 0 -1 1
1600 0 1 -1.1794 5.41445684418588 16.420612708394213 8.818793200295316 0 -1 1
2113 0 1 -1.1794 1.9714483677245886 17.96886660186652 8.791719583704207 0 0 0
2115 0 2 0.5897 2.779096554145691 18.470026210097974 8.830347056598894 0 0 0
1521 0 2 0.5897 1.8908794801864977 18.858540837535003 12.073608437041583 0 -1 0
2 0 2 0.5897 4.671252970861323 19.85116226497305 9.402053870316085 0 -1 0
1601 0 2 0.5897 4.895192437585097 17.110705402952956 8.365227056707004 0 -1 1
1 0 1 -1.1794 4.366178685957565 18.98917772725671 9.597911803294265 0 -1 0
3 0 2 0.5897 5.0004340205280675 18.714810875709308 10.294110309653574 0 -1 0
2126 0 2 0.5897 3.59385263275423 17.935344262377424 11.89312521897377 0 0 0
2114 0 2 0.5897 1.3068484512208773 18.463978015211822 9.284765387475538 0 0 0
2125 0 1 -1.1794 2.76273731178342 17.553651175072577 11.662345420354976 0 0 0
2101 0 1 -1.1794 5.736291672934044 17.909627177265744 11.834666782017694 0 -1 0
2102 0 2 0.5897 5.578565583965918 17.029123422102124 12.069513200416802 0 -1 0
2127 0 2 0.5897 2.817141229711308 17.376712699391184 10.716384306944683 0 0 0
1519 0 1 -1.1794 1.6355641112133203 19.66794701335192 12.487494484057864 0 0 0
596 0 2 0.5897 10.87102651151756 16.288942980768 8.729835387412445 0 0 0
597 0 2 0.5897 9.295764549217123 16.21915504222411 8.946961311108804 0 0 1
595 0 1 -1.1794 9.982340371176132 16.82071147396054 8.620098311106611 0 0 1
5 0 2 0.5897 11.107958341326066 19.471783792796607 10.490585629676252 0 -1 1
45 0 2 0.5897 7.504237976579751 19.53876972832839 8.614931990737984 0 -1 0
6 0 2 0.5897 10.732601333467155 17.980504237087175 10.22808276863995 0 -1 1
4 0 1 -1.1794 10.822065765958643 18.655570320391483 10.936578913430207 0 -1 1
12 0 2 0.5897 7.606618152955517 18.57548236414791 10.779077217485078 0 0 0
10 0 1 -1.1794 8.087686440760933 19.382108817139027 10.540907997758417 0 0 0
11 0 2 0.5897 9.02499558270682 19.043166618777825 10.593157836655001 0 0 -1
320 0 2 0.5897 5.884122033161642 0.5478794779855032 13.213080443739942 0 0 0
254 0 2 0.5897 2.5762975396668257 2.676502151320809 13.356313533465249 0 0 -1
303 0 2 0.5897 4.673696747570443 2.525090454931049 13.67637732785605 0 0 1
319 0 1 -1.1794 4.922114259487328 0.6097513998129618 13.367000562328839 0 0 0
2248 0 1 -1.1794 2.472826344277386 2.77301333850963 16.420951334466682 1 1 0
321 0 2 0.5897 4.647198137203203 0.05467142699661391 14.170359110125778 0 0 0
301 0 1 -1.1794 4.790321085857048 3.4999525856506466 13.689230995351485 0 0 1
2250 0 2 0.5897 3.2677109721173165 2.297185848246455 16.683408567730993 1 1 0
253 0 1 -1.1794 1.6873583808007036 2.9001598288272517 13.757994251341032 0 0 -1
255 0 2 0.5897 1.74925119820485 2.710430633204839 14.728740205375136 0 0 -1
302 0 2 0.5897 4.561575759355918 3.8812257298894313 12.830946381414496 0 0 1
1148 0 2 0.5897 5.750267414171432 1.4579552132896767 16.62546657775672 0 0 0
1517 0 2 0.5897 12.307513703068734 0.16993422671549646 12.74306740779233 0 0 0
2035 0 1 -1.1794 7.247879256318438 1.451237738009614 15.661454163192978 0 0 0
1100 0 2 0.5897 7.906012784208172 2.0085044973810136 12.610387078614083 0 1 0
1099 0 1 -1.1794 7.559313493428283 1.149630075092165 12.85684039300896 0 1 0
2037 0 2 0.5897 7.141134466025042 2.4375900063562788 15.749796038036482 0 0 0
2036 0 2 0.5897 7.186160184201068 1.3102927085795497 14.677463599812333 0 0 0
1532 0 2 0.5897 8.867306823773806 1.0028955205943795 16.32460068745249 0 0 0
391 0 1 -1.1794 11.182255164907923 2.2835228796406506 13.033646382903816 0 0 0
393 0 2 0.5897 11.017558637050197 1.5256553104817148 13.645117939154128 0 0 0
309 0 2 0.5897 10.730128992609846 3.8572707080792505 13.548046894031605 0 1 0
1531 0 1 -1.1794 9.823570031677697 0.8191711936419113 16.6495884323954 0 0 0
2089 0 1 -1.1794 7.683843162699946 3.81049841817067 13.323262718444367 0 0 0
311 0 2 0.5897 10.626962073029699 0.3960221956112692 15.32881148934448 0 0 0
1813 0 1 -1.1794 6.7963284238909 3.9714705934360257 16.460226362504454 0 0 -1
310 0 1 -1.1794 10.979909201236467 0.06569219594302464 14.493734285873494 0 0 0
392 0 2 0.5897 12.143987161668806 2.1268287091439073 12.825504500952936 0 0 0
1843 0 1 -1.1794 1.2490611890464205 5.527800270329523 13.512622931512432 0 0 0
1845 0 2 0.5897 1.4010067541667552 4.603910594210914 13.682405038851604 0 0 0
1756 0 1 -1.1794 1.4585579782995706 7.081891644866242 15.920829605002673 1 0 0
346 0 1 -1.1794 4.307005457339968 7.07395565651602 13.773996813095291 0 0 1
1815 0 2 0.5897 6.1021348788769165 4.5540390919122 16.128419875851396 0 0 -1
1844 0 2 0.5897 1.641521755898915 5.974146754817239 14.263898865129004 0 0 0
347 0 2 0.5897 4.093918052644193 6.7489835533584195 14.664050096398743 0 0 0
573 0 2 0.5897 3.8149470594681096 4.625203897615934 15.814504131267572 0 0 0
571 0 1 -1.1794 4.2677685988560645 5.389767107868425 16.23240086250064 0 0 0
1757 0 2 0.5897 2.059145565845802 7.49087342648933 16.61461201226515 1 0 0
87 0 2 0.5897 6.252589982872855 6.8402981856874 14.45408722357858 0 0 1