LAMMPS data file via write_data, version 23 Jun 2022, timestep = 15087000

2268 atoms
2 atom types

1.1055037528394678 46.34519524715421 xlo xhi
0 20.047001 ylo yhi
0 20.857 zlo zhi

Masses

1 1.008
2 15.999

Atoms # full

638 0 2 0.5897 3.138002740982797 2.8923930569421903 1.3137489087193417 0 0 1
637 0 1 -1.1794 2.1546382912150537 2.7559406313129293 1.2798588124461547 0 0 1
1114 0 1 -1.1794 4.857001707623663 3.0082795662025092 0.8100644017201879 0 0 0
1116 0 2 0.5897 5.619266105503635 3.2555801002717915 1.3406362122814963 0 0 0
1019 0 2 0.5897 4.836977411015891 1.073134133847319 0.6758608932897123 0 -1 0
639 0 2 0.5897 1.9234395741034689 3.45666502338471 0.630663796979261 0 0 1
1596 0 2 0.5897 2.575484225160826 1.0334019214244747 3.7218713278394673 0 0 0
1850 0 2 0.5897 1.6726878107992393 1.243716186178468 0.3463392300862182 0 0 1
342 0 2 0.5897 2.9449326592574967 3.448854339204519 3.9010177682223075 0 0 0
1115 0 2 0.5897 4.901550663998247 3.7101276900278517 0.09450766121837875 0 0 0
59 0 2 0.5897 5.965240010052565 2.960945495810983 3.4873755956437487 0 2 -1
58 0 1 -1.1794 6.607102746769351 3.4596585118743124 2.9783262738959357 0 2 -1
1018 0 1 -1.1794 4.546616692517306 0.19602853215464344 0.8726222683321166 0 -1 0
1020 0 2 0.5897 3.752541018058717 0.19304346871733305 1.4302955293348267 0 -1 0
1296 0 2 0.5897 5.698708609780057 0.8172075266622995 3.785220363849316 0 1 1
1374 0 2 0.5897 8.21710093964327 3.1297352664671307 1.7658327709142094 0 1 0
375 0 2 0.5897 9.42341279506831 1.1506728175578584 3.411453174957433 0 2 2
1372 0 1 -1.1794 8.474815971020572 2.877879463945258 0.854911591080792 0 1 0
1373 0 2 0.5897 8.46121298604119 1.9362806566542237 0.7303803913173978 0 1 0
1145 0 2 0.5897 12.075915551656657 2.500487504395207 2.8152462998088628 0 1 0
1399 0 1 -1.1794 11.800421454738814 0.9143076520776772 2.040584906508692 0 2 1
1146 0 2 0.5897 11.435291584275133 3.361787999782342 3.81088011428182 0 1 0
1633 0 1 -1.1794 9.201275277705017 2.9576227502061263 3.8510490444922136 0 0 0
1634 0 2 0.5897 8.205313279780277 3.030357841738569 3.8344495758438164 0 0 0
1629 0 2 0.5897 10.131837592943791 3.103390946963494 0.42550648222870263 0 1 0
1401 0 2 0.5897 10.963163617182305 0.4794097144753964 1.9959842130854732 0 2 1
1144 0 1 -1.1794 12.284472283557752 3.21490652235371 3.385329583640067 0 1 0
1627 0 1 -1.1794 10.959181676593758 3.4322243367252345 0.0013602802790586566 0 1 0
373 0 1 -1.1794 9.28467882266066 0.39438764941584165 2.783515415602866 0 2 2
374 0 2 0.5897 8.34300911873876 0.35129055043695656 2.6967822356416584 0 2 2
135 0 2 0.5897 12.354986623527024 0.38860136619682706 3.781614818822847 0 2 -1
60 0 2 0.5897 6.387031762524164 4.3889447414165295 3.092408468300983 0 2 -1
341 0 2 0.5897 3.136161038060202 4.969728333004633 3.5300867393637207 0 0 0
476 0 2 0.5897 3.181993811530691 6.3645644875928395 1.6454776967629277 1 0 0
475 0 1 -1.1794 2.735298813891662 6.315693439669696 2.5223456722006716 1 0 0
1048 0 1 -1.1794 4.624721286282485 6.6478615385829585 0.6187673092892024 0 -1 0
1734 0 2 0.5897 6.056539994421104 6.487944829994665 1.958680360718856 1 -1 1
1050 0 2 0.5897 4.721104288592462 7.580786017489242 0.3318319438058692 0 -1 0
336 0 2 0.5897 2.8538371608058766 7.692604128444433 3.513019947690552 0 0 0
477 0 2 0.5897 1.7838271782069661 6.112336898586099 2.2850997646829505 1 0 0
1732 0 1 -1.1794 6.527286728232519 6.357743438159069 2.774978592700955 1 -1 1
1733 0 2 0.5897 7.480661153394365 6.402446158160268 2.6143573230178525 1 -1 1
2021 0 2 0.5897 9.249339788034646 4.914844428354035 3.5414680079371346 0 0 -1
2020 0 1 -1.1794 9.193793872241416 5.741426401216615 3.028582259682369 0 0 -1
2022 0 2 0.5897 9.280457304421697 6.518961777070954 3.620284380283756 0 0 -1
618 0 2 0.5897 10.380767097065295 5.7587868635723005 1.915468355189746 0 1 0
616 0 1 -1.1794 11.012184767734972 5.980538458221014 1.2226433425562997 0 1 0
617 0 2 0.5897 10.904846763843056 5.245459938721344 0.6070014996953773 0 1 0
521 0 2 0.5897 11.572469995052604 7.502814920077614 0.197506896307972 0 -1 2
359 0 2 0.5897 12.316669103148577 6.343222691166793 2.3261150949492015 0 -1 0
833 0 2 0.5897 2.256436680827923 8.611272039971919 0.6820455452919081 0 1 2
834 0 2 0.5897 3.1971171602878834 9.74804210747618 1.2424055721851883 0 1 2
832 0 1 -1.1794 2.275118226235331 9.392398592680323 1.2756325963871278 0 1 2
779 0 2 0.5897 5.882868729426561 9.308809423269384 1.3525754419814622 0 -2 1
778 0 1 -1.1794 5.068768392411855 9.369468106744687 0.8175648841261448 0 -2 1
2103 0 2 0.5897 2.876414416213205 11.411793127716697 3.8135278832284123 0 -1 1
363 0 2 0.5897 1.3106660558400027 10.791930032786397 0.3509879836051213 0 0 1
780 0 2 0.5897 5.292569792351001 9.979864901834183 0.12498399299725661 0 -2 1
626 0 2 0.5897 6.778726329682801 11.726003195114444 3.002037161442837 0 0 0
2094 0 2 0.5897 8.144750625849433 8.3931124759397 1.1063114081738727 0 0 2
74 0 2 0.5897 11.41511282674861 9.147909109858567 3.743892345196501 0 -2 -1
2093 0 2 0.5897 8.122258658758186 8.661654842229176 2.7248991737316532 0 0 2
2092 0 1 -1.1794 7.972415292765515 9.044956764006352 1.8193704596578597 0 0 2
1388 0 2 0.5897 8.967707607537298 10.363140824076826 1.3846506426272938 0 0 0
1387 0 1 -1.1794 9.553201058961463 11.121782030027843 1.2994133153170677 0 0 0
1389 0 2 0.5897 9.967890395280032 11.262439335568446 2.1718370980143713 0 0 0
807 0 2 0.5897 12.184969420766155 9.475382295760106 1.4981485730032076 0 1 0
627 0 2 0.5897 7.761503682328269 11.940327365648487 1.761774887777389 0 0 0
1279 0 1 -1.1794 10.275983195271595 11.809862327498395 4.08078048738179 0 -2 0
805 0 1 -1.1794 12.346294660766791 10.16513171754324 2.138751717162591 0 1 0
99 0 2 0.5897 10.868670954657048 11.401934558429158 0.02242650736608688 0 0 1
2088 0 2 0.5897 5.636269743478341 12.72409124538189 1.244900643628018 0 0 0
1579 0 1 -1.1794 2.6392115277588113 12.71760358367474 2.5296316563230064 0 0 0
1581 0 2 0.5897 3.331123595250848 12.890446186460824 1.833252537613909 0 0 0
1580 0 2 0.5897 2.9180733341373126 13.398572751015513 3.211991847925234 0 0 0
2086 0 1 -1.1794 4.921354120705374 13.27735249555193 0.8960040028656915 0 0 0
371 0 2 0.5897 4.777369866786395 15.076439999593527 0.9351133792455644 0 -2 2
2081 0 2 0.5897 1.7122506836162423 15.106963813407551 0.23112320443304946 0 0 1
370 0 1 -1.1794 4.604663907356574 16.002721785035547 1.239686904699399 0 -2 2
372 0 2 0.5897 3.6805661805825682 16.007373787006426 1.5009192709577843 0 -2 2
2087 0 2 0.5897 4.818416230595912 12.824527436479354 0.048711731776285266 0 0 0
625 0 1 -1.1794 7.1362107500621486 12.392705316273535 2.3713796670295797 0 0 0
1889 0 2 0.5897 7.390870156963504 14.209789469081574 1.1899961685601135 0 -1 2
279 0 2 0.5897 10.175117965736401 15.212444029128784 2.234792347067265 0 1 0
631 0 1 -1.1794 10.47191992282895 14.354949434550493 0.5855441063630304 0 1 2
277 0 1 -1.1794 9.962963886127513 15.600056428929905 3.08877625931982 0 1 0
1811 0 2 0.5897 8.368822126345261 14.891981682702578 3.6413761727466856 0 1 1
633 0 2 0.5897 9.530444661341596 14.415907241153981 0.332135795956788 0 1 2
1812 0 2 0.5897 7.383208671668851 13.91475196781062 3.0799812034910623 0 1 1
632 0 2 0.5897 11.048360559874064 14.946165280001491 0.06269016728974548 0 1 2
1810 0 1 -1.1794 7.386316842169882 14.714253497116953 3.671393259459225 0 1 1
1836 0 2 0.5897 11.770741929321696 13.389040219472584 1.4771948250992293 0 1 1
1888 0 1 -1.1794 7.837846320496285 14.59817151454218 0.4448126205910981 0 -1 2
1280 0 2 0.5897 10.844543691889687 12.512607859687492 3.721523751386439 1 -3 0
1834 0 1 -1.1794 12.322438315648068 13.042611603029856 2.225385419706731 0 1 1
1835 0 2 0.5897 12.39115233783077 12.114439792269888 2.0656931961332026 0 1 1
280 0 1 -1.1794 1.7954025087441372 16.368236973317437 1.342553319912163 0 -1 0
1602 0 2 0.5897 6.636053097037362 16.271004964155704 3.601224131319894 0 -1 1
1601 0 2 0.5897 5.473707358458749 16.79037440531633 2.7417008504159472 0 -1 1
68 0 2 0.5897 6.172736252084695 19.75647960198305 2.2367492569137983 0 -2 3
282 0 2 0.5897 1.5260533647267032 17.14853376019025 0.8421875176194782 0 -1 1
307 0 1 -1.1794 2.414507969452851 19.646818614527273 2.4247271068937417 0 0 0
309 0 2 0.5897 2.573658437915128 18.88236350491401 2.9511710999844007 0 0 0
1600 0 1 -1.1794 6.178546852539466 17.070598089497437 3.3519498640393026 0 -1 1
69 0 2 0.5897 6.756543098460264 18.758069037715487 3.2009657928786437 0 -2 3
67 0 1 -1.1794 6.706732283744704 19.700194478881507 3.0337817079980023 0 -2 3
308 0 2 0.5897 1.5692495880553885 19.493999429020747 1.947973283748332 0 0 0
281 0 2 0.5897 1.3748667639137466 16.31002978212424 2.1874213742844937 0 -1 0
66 0 2 0.5897 4.844085363414317 17.50722477668802 0.1852455157711936 0 0 1
65 0 2 0.5897 4.890543700783784 19.004750145507575 0.020174621874947538 0 0 1
278 0 2 0.5897 9.97574543084272 16.573381278290345 3.0224635073804267 0 1 0
554 0 2 0.5897 7.659985026189135 17.196898475697967 1.8894280058442419 0 -1 0
553 0 1 -1.1794 7.873974569172986 17.47359061697003 0.9967926811107255 0 -1 0
1346 0 2 0.5897 9.789923329784108 17.69186941274856 0.8163612205300746 0 0 1
1345 0 1 -1.1794 10.69351972281904 17.99458691016834 0.6779369917291004 0 0 1
758 0 2 0.5897 11.920337957477157 17.990811019261248 2.126247591313622 0 -2 2
555 0 2 0.5897 7.7671793313317545 16.5920175288755 0.5545238292985375 0 -1 0
1347 0 2 0.5897 10.669938345303205 18.82136293072319 0.20839493394819525 0 0 1
1587 0 2 0.5897 9.7366387669283 18.967403054432914 3.360689045385447 0 0 0
1585 0 1 -1.1794 9.782762903698764 18.178442502060797 3.9347946342756353 0 0 0
1323 0 2 0.5897 7.6944131465191905 19.396448603368114 0.16478825649175438 0 -1 0
1594 0 1 -1.1794 2.7274429515498095 1.7430888892276268 4.359476777648689 0 0 0
1294 0 1 -1.1794 5.491821533235773 1.3953853957372486 4.551107889924502 0 1 1
1295 0 2 0.5897 4.497294153704203 1.3330125680347165 4.567835505315365 0 1 1
1595 0 2 0.5897 2.1537589762789002 1.3648400832093783 5.103459764433158 0 0 0
1521 0 2 0.5897 4.68217234181561 3.142365068846697 7.535921741060698 0 0 0
1077 0 2 0.5897 1.757585951088468 1.5780776981989253 7.852287834020056 0 1 1
1519 0 1 -1.1794 4.662224818532987 2.624364976498295 8.326864986268045 0 1 0
576 0 2 0.5897 4.475409842621112 0.8908281617110135 7.30687507338619 0 0 0
2120 0 2 0.5897 1.7462196386132072 3.6627584335749486 7.108826043909606 0 0 0
2135 0 2 0.5897 6.4369461337555025 0.19126541336873878 5.623324611016178 0 0 0
574 0 1 -1.1794 3.9426882619166945 0.09093341021454432 7.437972609311078 0 0 0
224 0 2 0.5897 6.117807353323184 3.602661482944986 5.735486797198653 1 0 0
1315 0 1 -1.1794 1.1704200210548237 0.8252938776342311 6.202533221038769 0 1 0
1635 0 2 0.5897 9.433472473798146 2.9115797644780534 4.783111533980235 0 0 0
2060 0 2 0.5897 7.62761556105727 1.8385593529691935 6.23792692855095 0 2 0
2134 0 1 -1.1794 7.3034107401051696 0.11735510414650119 6.00255367671634 0 0 0
2059 0 1 -1.1794 7.7510900769074285 2.7622197719571115 6.450132997599407 0 2 0
39 0 2 0.5897 9.30761079300704 0.06559436122234506 5.61014616369631 0 1 0
2061 0 2 0.5897 7.9538663404796495 2.8194672331981887 7.366437256666219 0 2 0
1089 0 2 0.5897 11.520432450744012 2.7569778073564635 6.719948317530323 0 1 2
1087 0 1 -1.1794 10.897956586394983 3.466528636994497 6.433496734578562 0 1 2
37 0 1 -1.1794 10.144209182220953 0.4777147799017263 5.756266692926926 0 1 0
357 0 2 0.5897 9.616368575864325 1.0923072354568508 7.588005311143034 0 1 1
1088 0 2 0.5897 10.309369747875559 3.769765342318709 7.153955088028311 0 1 2
2145 0 2 0.5897 6.049711277468038 7.425156478423268 4.516421124422242 0 -1 1
340 0 1 -1.1794 3.329248724525823 4.2647736248646 4.210835136370577 0 0 0
225 0 2 0.5897 4.72094637939068 4.175360335368816 5.24576804243681 1 0 0
2119 0 1 -1.1794 1.6049108920214834 4.3829374887074835 6.485293433055975 0 0 0
2049 0 2 0.5897 1.472711588332961 6.256060761015308 6.747461009992083 0 -2 1
2121 0 2 0.5897 2.183035974914377 4.279178707327719 5.722856631803761 0 0 0
223 0 1 -1.1794 5.366098574122224 4.1608422659696656 5.939688135207928 1 0 0
1524 0 2 0.5897 5.276287312690262 5.771774126684655 6.947054455489848 0 -1 0
1522 0 1 -1.1794 5.22805014142753 6.456542975646892 7.696276743952024 0 -1 0
1523 0 2 0.5897 5.927709582882297 7.119355749088676 7.449743393104506 0 -1 0
335 0 2 0.5897 2.32065058078856 7.837027220315141 5.031500609792776 0 0 0
2048 0 2 0.5897 2.003623325917318 7.713032896934092 7.289941548506404 0 -2 1
2047 0 1 -1.1794 1.4033096274635026 7.238593599586876 6.659421889088487 0 -2 1
506 0 2 0.5897 11.484886178186743 6.28327391205522 4.567019428308847 0 0 0
505 0 1 -1.1794 11.20470856417665 6.230663179696415 5.537388990761952 0 0 0
507 0 2 0.5897 11.126446827976915 5.2998756008846195 5.829548067934234 0 0 0
824 0 2 0.5897 8.374245595159673 5.888969757775342 6.982520817620254 0 2 -2
825 0 2 0.5897 8.086515382865631 5.1353507981785205 5.796142978675552 0 2 -2
823 0 1 -1.1794 7.946700822165882 6.026212849560547 6.1635946895701155 0 2 -1
231 0 2 0.5897 8.364565729847886 7.380025383370183 5.279838459096145 1 -1 0
1680 0 2 0.5897 10.214669516482454 7.426823686283876 6.475976832051136 0 1 0
1609 0 1 -1.1794 9.397216252265448 4.801577802216762 8.238013789222565 0 -1 -1
334 0 1 -1.1794 2.587299372352504 8.357707157260892 4.191837501502387 0 0 0
2144 0 2 0.5897 4.754288809788571 8.26351112124005 4.644951090084504 0 -1 1
2143 0 1 -1.1794 5.636099574037682 8.144607539228515 5.012949793641534 0 -1 1
2102 0 2 0.5897 3.00737499861976 9.964436880868453 4.294028444162388 0 -1 1
2101 0 1 -1.1794 3.3496539385015933 10.889301937987783 4.470314253429352 0 -1 1
1398 0 2 0.5897 5.228535849743359 10.932925836703891 4.349229211924343 0 0 0
1396 0 1 -1.1794 6.192455279331771 10.86695969000068 4.365522176712004 0 0 0
1397 0 2 0.5897 6.405185367061477 9.946050478922766 4.521918081744393 0 0 0
636 0 2 0.5897 2.178169797749515 11.079971137738719 5.6420832574216435 0 -1 -1
1644 0 2 0.5897 4.690912819665991 10.731782027902947 7.03160397457957 0 2 3
1642 0 1 -1.1794 4.974201185851559 9.772536264615717 7.144710442780512 0 2 3
1643 0 2 0.5897 4.860762404620303 9.306000517261559 6.301780327070945 0 2 3
498 0 2 0.5897 1.8014028281926935 10.133260313105357 7.6940455457093 1 0 0
634 0 1 -1.1794 1.5431820939120817 11.231829579609027 6.355179977776757 0 -1 -1
496 0 1 -1.1794 2.1162247136672976 9.380106621159706 8.231571172704998 1 0 0
229 0 1 -1.1794 8.539323453255738 8.033409834379452 4.5488365020285 1 -1 0
230 0 2 0.5897 9.369746063067058 8.444369915963033 4.840360558762473 1 -1 0
839 0 2 0.5897 8.308086846280212 8.493978643833799 7.492364159262792 0 0 0
840 0 2 0.5897 7.064904635765764 9.390367857953793 7.350786642413138 0 0 0
1678 0 1 -1.1794 10.063761410511141 8.072796253006738 7.195245107921334 0 1 0
828 0 2 0.5897 7.417530833459482 11.81165750880332 5.27632239909425 0 1 0
73 0 1 -1.1794 11.221540925086513 9.144274142200729 4.6983237875633455 0 -2 -1
75 0 2 0.5897 10.957087944613821 10.053912503687513 4.780337395573383 0 -2 -1
799 0 1 -1.1794 10.121744176108402 10.919155697772965 7.197596265716712 0 0 0
800 0 2 0.5897 9.308533160313312 11.26649092444139 6.777757271552039 0 0 0
1679 0 2 0.5897 10.426980537277947 8.92348738829506 6.8390757557580315 0 2 0
801 0 2 0.5897 10.824988999196698 11.547997526153255 7.129173690867845 0 1 0
838 0 1 -1.1794 7.375331126848432 8.568732475522575 7.742091628030299 0 0 0
1885 0 1 -1.1794 4.920089254841493 12.514587227651905 7.598270364743509 0 1 2
560 0 2 0.5897 2.833161100698948 15.881718131217392 4.465152056596747 0 -1 0
559 0 1 -1.1794 2.9599147293291814 14.895587752073673 4.389852109691801 0 -1 0
1887 0 2 0.5897 5.69039647196282 12.357285250237801 8.239286841521016 0 1 2
1886 0 2 0.5897 5.091415150406026 13.209524845233815 6.91098471050498 0 1 2
1335 0 2 0.5897 1.3756365701257252 13.045318094223573 6.492606674004847 0 -1 1
2010 0 2 0.5897 1.6954799087600891 15.336503649563683 7.554792848427354 0 -1 1
561 0 2 0.5897 3.861102859659682 14.914523157296651 4.678007713814003 0 -1 0
1334 0 2 0.5897 1.75975335776025 14.247936760314694 5.6431900797729355 0 -1 1
517 0 1 -1.1794 5.4062707134258705 14.35053370906725 5.572356185674723 0 -1 1
519 0 2 0.5897 5.311919927373829 14.964894610211273 6.338039425531185 0 -1 1
518 0 2 0.5897 6.245788133967874 14.447213906124535 5.11713862799514 0 -1 1
2116 0 1 -1.1794 4.762440061430581 16.011357318480623 7.553351348994604 0 0 0
2118 0 2 0.5897 3.7862498827021036 15.877476947290223 7.713954224317643 0 0 0
2117 0 2 0.5897 5.2722557725873305 15.648014348084201 8.330881142344497 0 0 0
1333 0 1 -1.1794 1.155734501689274 13.960221122634493 6.319360959473846 0 -1 1
1281 0 2 0.5897 9.639213051507438 12.22873443411533 4.652635624015953 0 -2 0
826 0 1 -1.1794 8.125383421911472 12.218311952554469 5.843143213657391 0 1 0
2111 0 2 0.5897 11.042905241122508 14.825850003661568 4.303413785860202 0 -1 0
2023 0 1 -1.1794 11.597581341773402 15.125110255234794 7.424123775547515 0 0 2
827 0 2 0.5897 7.9269033899385635 13.137157500653538 6.079104474242684 0 1 0
1906 0 1 -1.1794 8.076286555276663 14.502718419640889 7.221504687063904 0 0 1
1907 0 2 0.5897 8.10547114793529 15.33893145426048 6.741711427335868 0 0 1
1908 0 2 0.5897 8.915298627043214 14.386205677733237 7.671671975285944 0 0 1
2112 0 2 0.5897 11.516572969200444 14.58240241767464 5.774804678913315 0 -1 0
2110 0 1 -1.1794 11.691036162636642 14.407051306139621 4.847348554841453 0 -1 0
2025 0 2 0.5897 11.015187176033136 14.778590452413045 8.100369553266212 0 0 2
1291 0 1 -1.1794 1.297231522290275 18.139290885200072 6.349230268271437 0 -1 1
1090 0 1 -1.1794 3.1521377566199438 17.781339595095975 4.359526257416501 0 -1 0
1091 0 2 0.5897 4.007687784975245 17.97921612422703 4.871114546868886 0 -1 0
2008 0 1 -1.1794 2.141546092991355 16.091791367581948 8.049197588948957 1 -1 1
575 0 2 0.5897 4.218249852643873 19.48833522777837 6.826023781895747 0 -1 0
1092 0 2 0.5897 2.469726429481258 17.918478449149713 5.015012739418693 0 -1 0
1804 0 1 -1.1794 5.192404760504339 18.126435692401962 5.88180699774031 0 0 0
1806 0 2 0.5897 5.04564956468952 17.426773494827565 6.570739436935977 0 0 0
1805 0 2 0.5897 5.988536979124773 17.94442953570539 5.321569635682119 0 0 0
1293 0 2 0.5897 1.4270485077963813 17.574628445647974 7.148711649643577 0 -1 1
1316 0 2 0.5897 1.14127936143318 19.921439202543205 6.3909189958368176 0 -1 0
2136 0 2 0.5897 7.33895196444538 19.57609094458148 6.775069411866047 0 -1 0
38 0 2 0.5897 10.741184010831883 19.79682193209037 5.902445662790378 0 0 0
1586 0 2 0.5897 10.652050326687633 18.27446091191618 4.434717446142748 0 0 0
1282 0 1 -1.1794 8.17323382170921 18.610716883472257 7.9451969630480255 0 -2 0
1545 0 2 0.5897 8.083139654120739 17.433699950004943 6.644895998403327 0 1 1
1544 0 2 0.5897 8.717738255522194 17.26467309339457 5.235890291347459 0 1 1
1543 0 1 -1.1794 8.075243246233443 16.86084955887882 5.840374039166525 0 1 1
1283 0 2 0.5897 9.110959078314037 18.487834613618567 8.120648235759148 0 -2 0
1829 0 2 0.5897 10.747223473975486 16.733276870699616 8.340941528790733 0 -2 0
923 0 2 0.5897 11.773171785067678 17.13723335936052 6.131897263826658 0 0 0
922 0 1 -1.1794 11.778160448855843 17.99291062695481 5.690737896588137 0 0 0
1075 0 1 -1.1794 1.8405364885994242 2.2883825251215115 8.510885466745709 0 1 1
1076 0 2 0.5897 2.790123889036817 2.316625442739425 8.70211602663961 0 1 1
1520 0 2 0.5897 5.562783442026883 2.6663054131023034 8.66418011939411 0 1 0
598 0 1 -1.1794 3.0529203818415462 0.8309341321630747 11.229402578084338 0 0 0
36 0 2 0.5897 2.9894264511069344 2.5588210556127153 10.947379375617349 0 0 1
599 0 2 0.5897 2.647810491186081 0.3156119418593934 10.522883384401752 0 0 0
1112 0 2 0.5897 4.88354862733806 0.37435998157829337 11.247049728761004 0 1 -1
600 0 2 0.5897 2.5656151060077645 0.4745943717990105 11.990314043241703 0 0 0
34 0 1 -1.1794 3.115839053569067 3.5013444543958383 11.1124310235665 0 0 1
1899 0 2 0.5897 6.589841022180123 1.4241046058930582 10.011343771485766 0 0 -1
1113 0 2 0.5897 6.285145746137034 0.12984479572185445 11.959300246805274 0 1 -1
35 0 2 0.5897 3.121844242156604 3.9744082092847473 10.287825323000671 0 0 1
795 0 2 0.5897 1.958596583861214 3.939834078283883 12.314841237767686 0 0 1
1121 0 2 0.5897 12.34559736066507 3.2657035516850974 8.760727612396874 0 1 0
1791 0 2 0.5897 6.897690512099431 3.8933868859839267 9.944201909119865 0 -1 0
1897 0 1 -1.1794 6.9736923679599085 2.0664207233062664 9.410686478633995 0 0 -1
1120 0 1 -1.1794 11.737351017811084 2.803886231148005 9.307179391465459 0 1 0
356 0 2 0.5897 10.268043528738966 2.0128218832255755 8.75188443746881 0 1 1
1898 0 2 0.5897 7.911794554235477 1.8988821666445852 9.390470965109044 0 0 -1
355 0 1 -1.1794 9.51593866958649 1.4324280074479252 8.530143807310951 0 1 1
107 0 2 0.5897 9.575448473518597 3.964282569470435 11.741711692390744 0 0 1
108 0 2 0.5897 10.818569032725554 3.6940948196531562 10.729251362531327 0 0 1
101 0 2 0.5897 9.256196588435785 0.20947120101033062 10.045437071957315 0 -1 2
417 0 2 0.5897 12.264047724215134 0.5208033867867728 11.430103448364235 0 1 -1
1031 0 2 0.5897 8.403808252400113 0.7588066314308559 12.239303878751626 0 1 -1
1122 0 2 0.5897 12.204172454641368 2.0965800481392467 9.81268470778788 0 1 0
1023 0 2 0.5897 3.6828488078937216 6.182881681214627 8.680768190558712 0 0 -1
1790 0 2 0.5897 6.301576307838381 5.249880132503886 9.353564366147735 0 -1 0
1021 0 1 -1.1794 3.170399173447202 5.86333729435732 9.391672410728935 0 0 -1
1022 0 2 0.5897 3.5132040858972764 6.290862574656151 10.209548156531666 0 0 -1
1303 0 1 -1.1794 4.426294482925916 7.0547277747001305 11.634240709053175 0 -1 0
1304 0 2 0.5897 5.344808857763296 6.9957570002312215 11.97749459072511 0 -1 0
1305 0 2 0.5897 3.80238850043341 6.9680719265384585 12.379669234319428 0 -1 0
48 0 2 0.5897 1.2688407941505555 5.562181916466921 9.65186094450974 0 0 0
1040 0 2 0.5897 4.634249420245308 4.347377984859101 12.038007377715223 0 0 1
106 0 1 -1.1794 10.501685176873156 4.098631162535791 11.616693486524833 0 0 1
893 0 2 0.5897 7.1315954790006995 5.912715190994527 11.536459330256907 0 0 0
892 0 1 -1.1794 7.061121283278443 6.774021953914682 12.03095663578081 0 0 0
1789 0 1 -1.1794 6.973185233175795 4.843784648144035 9.93043914362501 0 -1 0
9 0 2 0.5897 11.229731225666326 7.166231317633757 10.088766926140694 0 0 0
8 0 2 0.5897 10.942641723850524 7.383132531982195 8.535594412084583 0 -1 0
7 0 1 -1.1794 11.109523933920913 6.705371691231739 9.182003302371209 0 -1 0
1610 0 2 0.5897 9.997206914633528 5.422646403335103 8.660124110061238 0 -1 -1
1611 0 2 0.5897 8.697686395665254 4.989421969251655 8.856401934050512 0 -1 -1
1848 0 2 0.5897 11.388849345261347 5.639199965558135 12.398894598894117 0 1 1
894 0 2 0.5897 7.43914837942113 7.465273897102727 11.42392168031281 0 1 0
50 0 2 0.5897 7.1639507281319945 4.070675766238265 12.45380922479505 0 2 0
497 0 2 0.5897 3.006493205480764 9.5992103138827 8.47006741364778 1 0 0
644 0 2 0.5897 5.037679897156487 8.366779515618306 10.233759575588573 0 -1 0
645 0 2 0.5897 5.082937791474006 9.118372736863881 8.85365578910296 0 -1 0
595 0 1 -1.1794 3.2130115002385096 10.703622970997095 11.143128540707716 0 0 1
596 0 2 0.5897 3.7249897075026097 9.967425977402852 10.712409453871132 0 0 0
643 0 1 -1.1794 5.052580200647549 9.22666680191073 9.797965953129975 0 -1 0
1895 0 2 0.5897 6.039249671951125 10.711404354698578 10.034205140715466 0 -1 0
1265 0 2 0.5897 1.9553766687402958 10.87029365402723 12.351737477773149 0 -1 0
597 0 2 0.5897 3.1816776726123153 11.462943751623994 10.516789471856814 0 0 1
1894 0 1 -1.1794 6.4901522564075895 11.58259474545983 9.864850157477512 0 -1 0
2124 0 2 0.5897 11.65399402634419 9.795635482834518 10.674612418938771 0 -1 0
1061 0 2 0.5897 9.211205079025287 8.666025890242395 10.753599026151118 0 0 -1
1062 0 2 0.5897 8.057901392109631 8.627483893073606 9.723816293149518 0 0 -1
1060 0 1 -1.1794 8.261108734253796 8.79850255043627 10.652896748129013 0 0 -1
1631 0 2 0.5897 7.570272972725855 10.364229999903557 11.743873867838644 0 0 -1
2123 0 2 0.5897 11.065457644547445 9.809681914201796 11.994189540605218 0 -1 0
2122 0 1 -1.1794 10.930628157972604 9.38789834155593 11.161659619261272 0 -1 0
2063 0 2 0.5897 9.821937781761203 10.830823566668986 10.172807477043081 0 0 1
2064 0 2 0.5897 9.823481726789733 11.48921416562425 8.694038731220258 0 0 1
1896 0 2 0.5897 7.448872623144669 11.413825344615685 9.783198661158062 0 -1 0
2062 0 1 -1.1794 9.436064743828432 11.565569601855087 9.685498241708533 0 0 1
2076 0 2 0.5897 3.682582463466363 12.65468701601654 8.863215890395077 0 0 1
1029 0 2 0.5897 1.557985164798352 12.63785729145636 9.716614700870732 1 0 0
2074 0 1 -1.1794 3.186100387696041 12.918801880243263 9.649222094737173 0 0 1
2075 0 2 0.5897 3.750461563054473 13.553787575961385 10.197580729746878 0 0 1
1807 0 1 -1.1794 4.085904030429911 14.55967884362808 11.58538649085804 0 -1 -1
1808 0 2 0.5897 5.0457951719055 14.487824183247351 11.780343745249866 0 -1 -1
1809 0 2 0.5897 3.891586325872401 15.455059688937453 11.320911040716204 0 -1 -1
385 0 1 -1.1794 6.659280524469222 13.68550903306072 11.539865515801457 0 0 0
1823 0 2 0.5897 6.731126063037626 14.701366784435665 10.229435544076482 0 0 1
387 0 2 0.5897 6.530686656902065 12.882599886916411 11.008178906906469 0 0 0
1822 0 1 -1.1794 6.609486006291843 15.254679162597954 9.429316540384812 0 0 1
386 0 2 0.5897 7.486076601731839 13.716779779504565 11.990743405625995 0 0 0
2157 0 2 0.5897 9.818583765633843 13.238644576111612 9.445947345044587 0 -1 0
2155 0 1 -1.1794 9.889091889340476 14.158666134890243 9.271649587743795 0 -1 0
2156 0 2 0.5897 9.856866092814911 14.669909172890947 10.093831678020305 0 -1 0
6 0 2 0.5897 11.87855518203461 13.684327889479114 11.592639609145996 0 -2 -1
1824 0 2 0.5897 7.239932885517197 14.949668921294165 8.767210831234163 0 0 1
4 0 1 -1.1794 11.417572735094002 13.301768771788062 12.38124188268249 0 -2 -1
1802 0 2 0.5897 9.654597451361544 13.221150263241984 12.513684059711537 0 0 -1
1111 0 1 -1.1794 5.753165354429885 19.972499065838715 11.161308004545528 0 0 -1
2009 0 2 0.5897 1.6786472827424945 16.047521723266804 8.901908206308532 1 -1 1
1757 0 2 0.5897 2.8832831584774 19.54464053495848 8.612014924711232 1 0 0
2058 0 2 0.5897 6.391038146686614 18.338175556720795 10.606825265016104 0 0 0
1756 0 1 -1.1794 2.5501492850057104 19.111312414646708 9.406668444945558 1 0 0
530 0 2 0.5897 3.235918314577617 17.728838560156984 10.41401365305014 0 0 0
529 0 1 -1.1794 3.3992242897889757 17.097229299308648 11.157360146150626 0 0 -1
531 0 2 0.5897 4.167761129144376 17.355691833085867 11.715708398090095 0 0 0
1758 0 2 0.5897 1.5953333425232978 19.100073027430735 9.248776005068457 1 0 0
100 0 1 -1.1794 9.124866560406963 19.81244949662529 10.936107054642518 0 -2 2
2057 0 2 0.5897 6.849073836508011 16.915552235224737 10.012152832219904 0 0 0
1830 0 2 0.5897 11.319828847819402 18.185869878995458 8.52604478830109 0 -2 0
1284 0 2 0.5897 7.751099857503486 18.435655236360457 8.804099742511058 0 -2 0
2056 0 1 -1.1794 7.102993741844779 17.81060719945663 10.325701473497588 0 0 0
1828 0 1 -1.1794 10.507318383230842 17.63717399564071 8.55618034405779 0 -2 0
1390 0 1 -1.1794 9.665275333920693 16.450665232967737 10.889103258215913 0 -1 0
1391 0 2 0.5897 9.779049099260595 16.96260496633513 10.120154810154103 0 -1 0
102 0 2 0.5897 8.495898948657915 19.12976488416411 10.744055316821536 0 -2 2
1392 0 2 0.5897 8.922374748279047 16.87491554006552 11.317037009964412 0 -1 0
557 0 2 0.5897 11.016522043883848 16.381064250372376 12.142476267688497 0 -1 0
1866 0 2 0.5897 10.527076043416049 19.513884861782238 12.078096783924488 0 -1 -2
301 0 1 -1.1794 2.13404139844291 2.4986682087966026 15.191206614002702 0 0 1
302 0 2 0.5897 3.0569344201115496 2.4415218137181145 15.049022746457455 0 0 1
1903 0 1 -1.1794 4.742126175596219 2.325186298474089 14.719527355663317 0 0 1
1904 0 2 0.5897 5.3679239632713704 2.3600187044711705 15.41027914627706 0 0 1
1905 0 2 0.5897 5.055195957332446 2.962688860006793 14.076111528810035 0 0 1
1104 0 2 0.5897 4.740150511608398 0.4365453795258833 14.397617461039289 0 1 0
303 0 2 0.5897 1.817982626599342 1.7186654136749064 14.691167873511992 0 0 1
794 0 2 0.5897 1.6511008994468648 3.566090747865076 13.762515265879584 0 0 1
1843 0 1 -1.1794 1.4520147035691164 0.32672502744646387 13.54195522025016 0 0 0
1736 0 2 0.5897 12.268183725472381 2.884782809259846 12.691107526392683 1 -1 1
51 0 2 0.5897 7.680722443576202 2.7191120537464633 12.711278808781207 0 2 0
49 0 1 -1.1794 8.000963572053642 3.6175055048669416 12.568864974486091 0 2 0
1865 0 2 0.5897 10.795962312734048 0.2854794074203264 13.336447187548897 0 0 -2
1258 0 1 -1.1794 10.721227750599502 2.198901640718038 14.476268271398824 1 1 1
1260 0 2 0.5897 11.533746489905534 1.7911480405697815 14.864647278387391 1 1 1
1655 0 2 0.5897 9.636750943739466 1.6180051473979264 15.87691658703911 0 0 0
1259 0 2 0.5897 10.734854308337257 3.1188331165006113 14.608838527341824 1 1 1
1030 0 1 -1.1794 7.6811573214196605 0.8804658422034096 12.889240771156473 0 1 -1
1032 0 2 0.5897 8.101491514278749 0.6616776344730807 13.732742635390828 0 2 -1
1139 0 2 0.5897 11.467883727751842 0.30923481291700694 16.54345448737839 0 0 -1
1654 0 1 -1.1794 9.074540034506466 1.5570829051104853 16.622745111908646 0 0 0
1640 0 2 0.5897 7.4612866617538725 2.287633989249066 16.649387598259434 0 0 -1
793 0 1 -1.1794 1.3970968647430302 4.230657869430181 13.038905394353545 0 0 1
1094 0 2 0.5897 1.9001986615228326 5.858190168017761 13.23093039192948 0 0 0
1039 0 1 -1.1794 5.349133917027188 4.2866483316989425 12.76248152091638 0 0 1
1041 0 2 0.5897 5.2866168985583455 5.149263710851938 13.191572638261947 1 0 1
2038 0 1 -1.1794 5.1025792769411185 6.319695580020423 14.640863673855895 0 -1 -1
2039 0 2 0.5897 4.3039443942552875 6.003930276310107 14.97672496269733 0 -1 -1
2040 0 2 0.5897 5.086526604107008 7.324865395449416 14.63806594916581 0 -1 -1
1014 0 2 0.5897 6.36073570278228 5.814075058758246 16.004408699068872 0 1 1
858 0 2 0.5897 1.9470713955707493 5.839714356424576 16.234331640311282 0 0 -1