LAMMPS data file via write_data, version 23 Jun 2022, timestep = 18888000

2268 atoms
2 atom types

1.0638384618307661 46.38686053814888 xlo xhi
0 20.047001 ylo yhi
0 20.857 zlo zhi

Masses

1 1.008
2 15.999

Atoms # full

342 0 2 0.5897 2.985707146503345 2.280972789734846 2.2133988158246596 0 0 0
1594 0 1 -1.1794 3.0073211695528443 0.6392375811371577 2.7498725505770194 0 0 0
340 0 1 -1.1794 2.9656864253675166 3.338470876530721 2.2886856566664737 0 0 0
1595 0 2 0.5897 2.5101981357818195 0.3659310202752133 3.547025150199521 0 0 0
2120 0 2 0.5897 1.8575913578467929 3.590105759601857 3.4931853100388386 0 0 0
68 0 2 0.5897 4.924020579313078 0.5292074410879428 2.983925221169397 0 -1 3
67 0 1 -1.1794 5.8857675918869825 0.5869378284908923 2.7827190778452846 0 -1 3
69 0 2 0.5897 6.279040849728118 0.740558894018152 3.669654020114561 0 -1 3
225 0 2 0.5897 4.291754910941808 3.6299871024421564 3.3948764266017704 1 0 0
223 0 1 -1.1794 5.013241005896026 3.7295990664524936 4.031581482110526 1 0 0
59 0 2 0.5897 6.472978985827297 2.0866164551306303 1.7493100651588813 0 2 -1
60 0 2 0.5897 6.354437778079052 3.402250830603398 1.2163482346807002 0 2 -1
341 0 2 0.5897 2.7929065249071163 3.7763692142707725 1.4611490541831873 0 0 0
58 0 1 -1.1794 6.954442649630958 2.6307779161140155 1.1564847888144858 0 2 -1
1865 0 2 0.5897 9.959445800353695 1.987591797208391 3.4207370997960136 0 0 -2
1864 0 1 -1.1794 9.739804377243166 1.1364432041273316 3.848892453468626 0 0 -2
376 0 1 -1.1794 9.93400135102047 3.434320994511713 2.2967127510003733 0 2 -1
378 0 2 0.5897 9.398904922464821 3.7604517735177394 1.5476061809964983 0 2 -1
1389 0 2 0.5897 8.499381455470242 3.749616828529398 3.444952153403345 0 0 0
1388 0 2 0.5897 7.053792748747818 3.8526482571766905 3.852400309439396 0 0 0
165 0 2 0.5897 11.71370206121629 2.1313210574983263 1.2981876389956744 0 1 1
1527 0 2 0.5897 9.033149749818609 0.19965961974890564 2.4423272790722272 0 -1 1
475 0 1 -1.1794 2.4573563600395802 5.138217222775867 0.5852932107293392 1 0 0
336 0 2 0.5897 2.788461607497592 6.690048792840446 1.7632887871510077 0 0 0
335 0 2 0.5897 2.6509790368152295 7.050815973554289 3.30734108560308 0 0 0
1733 0 2 0.5897 5.587904327409408 5.605896348995973 1.8600258604040745 1 -1 1
2094 0 2 0.5897 4.781382747096615 7.183920690780727 2.920257875934295 0 0 2
334 0 1 -1.1794 3.110726831861954 7.314661710518225 2.459066074754641 0 0 0
2092 0 1 -1.1794 5.744845931787478 7.1308462504171235 2.748753369280946 0 0 2
1732 0 1 -1.1794 5.797920258538745 4.925138931301887 1.1586530143605702 1 -1 1
477 0 2 0.5897 1.5389020325756948 5.153299633681452 0.12749928180309658 1 0 0
2093 0 2 0.5897 6.351905374707275 7.052478588027165 3.5157492245752557 0 0 2
1734 0 2 0.5897 5.441675723151642 5.307390660470646 0.4051288497652775 1 -1 1
377 0 2 0.5897 10.538906321777972 4.129881247285266 2.42780502138217 0 2 -1
1279 0 1 -1.1794 8.767243257380304 6.576338366488478 1.1849417717034962 0 -1 0
1280 0 2 0.5897 8.109655561422729 5.900468763415593 1.323748762703475 1 -2 0
1891 0 1 -1.1794 11.247474921582338 6.530367113646304 2.8596030869041797 0 1 4
1892 0 2 0.5897 10.376539323633413 6.3861373844828755 2.4980414467390832 0 1 4
1830 0 2 0.5897 8.307642511838875 7.264643988410638 3.742578892460252 0 -1 0
1893 0 2 0.5897 11.114096810550969 6.519214492033153 3.8445941959450676 0 1 4
1281 0 2 0.5897 9.395862292556972 6.085659723943135 0.6016172027633151 0 -1 0
1387 0 1 -1.1794 7.9076784468716355 4.101008256853804 4.167099673393771 0 0 0
1656 0 2 0.5897 11.87631744415384 7.692244153602756 0.5562108299511637 0 0 0
835 0 1 -1.1794 12.349586404385851 4.019376650336111 3.648704318805809 0 1 0
627 0 2 0.5897 6.521618095647855 8.144748025085246 1.5823778659079 0 0 0
625 0 1 -1.1794 6.715661601779173 8.965622464709835 1.1842476681158374 0 0 0
2102 0 2 0.5897 3.2817406828998115 9.044397076443612 2.0247003031829216 0 -1 1
2101 0 1 -1.1794 3.508733499072154 10.009719126080457 2.0704915691194428 0 -1 1
2103 0 2 0.5897 3.440388701611285 10.472245530473552 1.2415871682157933 0 -1 1
2144 0 2 0.5897 4.974061411471974 10.181550694777401 3.0866905881402036 0 -1 1
636 0 2 0.5897 2.4808883361139396 10.624482545295196 3.6369482091451215 0 -1 -1
2145 0 2 0.5897 6.441489132302895 9.945090941297863 3.7102074086741195 0 -1 1
2143 0 1 -1.1794 5.553354079895171 10.355654865775687 3.804349982188287 0 -1 1
779 0 2 0.5897 5.446828602323244 9.30391661752935 0.052716389892454904 0 -2 1
848 0 2 0.5897 7.0187291605269735 10.901835169430873 1.2042111382602672 0 2 1
735 0 2 0.5897 11.609942181878392 8.473997991213109 2.7570773709499745 1 0 -1
626 0 2 0.5897 7.69440155906067 9.017079912925643 1.1016203555390185 0 0 0
365 0 2 0.5897 9.709899607235059 9.91284854427472 1.6470939665601558 0 -1 1
366 0 2 0.5897 9.79980878558876 9.114406831726651 0.2951997911257276 0 -1 1
364 0 1 -1.1794 9.220750515571229 9.69753030012773 0.8121222291342156 0 -1 1
733 0 1 -1.1794 11.520683331677487 9.448111269268093 2.873524308343312 1 0 -1
1330 0 1 -1.1794 9.369323411882329 11.627560954355065 2.823111834591346 0 -1 0
1233 0 2 0.5897 12.1852246865299 10.517797916209622 1.1207469013593654 1 1 2
847 0 1 -1.1794 6.859697511998576 11.866575169000091 1.1355774860414933 0 2 1
1332 0 2 0.5897 10.239561275279335 11.830095015531283 3.169454200313605 0 -1 0
1397 0 2 0.5897 8.522369797996252 10.473306555511234 3.859433897671272 0 0 0
734 0 2 0.5897 11.076442931336812 9.561661427209287 3.7364205414121514 1 0 -1
1396 0 1 -1.1794 8.275266456037727 9.55310170698011 4.026790571625445 0 0 0
2079 0 2 0.5897 9.752168722987136 11.752393572009968 0.005101592457172899 0 -3 0
1231 0 1 -1.1794 12.057568950772499 11.169803946383414 0.413085813215269 1 1 2
1579 0 1 -1.1794 3.117043881263301 12.337861140914107 0.5330396083611121 0 0 0
1580 0 2 0.5897 3.274805403239174 12.89202782440644 1.2875861226591472 0 0 0
559 0 1 -1.1794 3.8203483059843393 14.058463829342333 2.604829230821539 0 -1 0
560 0 2 0.5897 3.7824882367661736 15.028625090711245 2.373788138462598 0 -1 0
561 0 2 0.5897 4.7225048057572625 13.859123264666247 2.85184955554538 0 -1 0
1810 0 1 -1.1794 6.483389196592303 14.278051259715866 3.2128711841228825 0 1 1
1334 0 2 0.5897 2.709204757609645 13.447923189067389 3.897718673999841 0 -1 1
1602 0 2 0.5897 6.46843202228375 15.985403148229649 0.4606370076540232 0 -1 1
849 0 2 0.5897 7.211515991287968 12.296360187243009 1.9373418240137597 0 2 1
1811 0 2 0.5897 6.766767252091243 14.979783490227181 2.626433519897225 0 1 1
1812 0 2 0.5897 6.905581136725589 14.368161350571475 4.050654948087286 0 1 1
1600 0 1 -1.1794 7.222459145615273 15.987219660263252 1.0374259230486431 0 -1 1
1331 0 2 0.5897 9.06947677697469 12.557464156565421 2.5853715576360807 0 -1 0
322 0 1 -1.1794 9.355595863492173 14.216147416829882 1.7752873883515505 0 1 1
323 0 2 0.5897 8.713464218986804 14.916380610362522 1.467894505902143 0 1 1
324 0 2 0.5897 9.942032142495078 14.02692971904327 1.034193630317541 0 1 1
1296 0 2 0.5897 9.995473226227297 15.322935121815132 3.367078999708367 0 0 1
1132 0 1 -1.1794 12.020140318130764 12.204419723403987 3.8750225902286775 0 1 0
2072 0 2 0.5897 12.366880828669547 13.75942498611032 3.2412575725935544 0 -1 0
2073 0 2 0.5897 12.19909845928849 14.550502721608432 1.9319355123321293 0 -2 0
2078 0 2 0.5897 8.303865838626358 12.065674121709817 0.1826413068478546 0 -3 0
1596 0 2 0.5897 2.8100235595290943 19.990458760971194 2.082178370442968 0 -1 0
1291 0 1 -1.1794 1.3215769996867865 17.152648230804438 4.026075875427745 0 -1 1
356 0 2 0.5897 6.156684105205769 19.599960500819193 1.4237880371737073 0 0 1
1090 0 1 -1.1794 3.465253846126695 16.740088573398573 2.2029489361392445 0 -1 0
1092 0 2 0.5897 2.7865912962265065 16.667954228466964 2.8325547169301495 0 -1 0
1091 0 2 0.5897 3.093552069971794 17.492097410953768 1.7537668064046004 0 -1 0
307 0 1 -1.1794 2.5397971577084766 18.984243008457277 0.8866665355731629 0 0 0
1805 0 2 0.5897 4.913602560734183 17.222501045536514 3.4457962226692618 0 0 0
308 0 2 0.5897 1.6383173558636779 18.867666300949885 0.5959122731630883 0 0 0
355 0 1 -1.1794 6.404032650739266 18.862617818116593 0.8145569529701716 0 0 1
357 0 2 0.5897 5.78535100451532 19.106174849471277 0.012538254563466467 0 0 1
281 0 2 0.5897 1.739260731681549 16.117310107763533 0.11637113163963492 0 -1 0
309 0 2 0.5897 3.058615284570993 19.13244426868051 0.06846919045829557 0 0 0
1294 0 1 -1.1794 10.16049515343493 16.115375948644136 3.8910539080557878 0 0 1
1601 0 2 0.5897 7.327479721766527 16.951094907346803 1.0572549840490664 0 -1 1
279 0 2 0.5897 11.558449199746242 17.80745038103034 1.852746113194756 0 1 0
277 0 1 -1.1794 10.983937958591804 17.886361956540252 1.0102123942355576 0 1 0
278 0 2 0.5897 10.19661812839782 18.423854357314788 1.2798311160997686 0 1 0
2058 0 2 0.5897 8.060357645213163 18.401316611708285 2.923778387359499 0 0 0
1526 0 2 0.5897 8.17357720148065 19.902559379067 1.2483195027714495 0 -2 1
1525 0 1 -1.1794 8.744740263377789 19.474515065195877 1.8868650444107782 0 -2 1
2057 0 2 0.5897 7.042010793901688 17.637577190988257 3.89182156972175 0 0 0
1295 0 2 0.5897 9.355624997231768 16.62351352082411 3.7950751570895096 0 0 1
2056 0 1 -1.1794 7.944611923877969 17.71302501794421 3.5870028114219767 0 0 0
1519 0 1 -1.1794 4.645437316303032 2.1984997460319553 6.346728946065569 0 1 0
1520 0 2 0.5897 3.665912868464325 2.1747013948124474 6.535508334206646 0 1 0
1075 0 1 -1.1794 1.7945375567410142 1.8589876205626983 6.558640996155693 0 1 1
1521 0 2 0.5897 5.023765411453695 2.5047486101326877 7.13859951409356 0 0 0
1076 0 2 0.5897 1.4982897944137634 2.5749675020342604 5.980628821207302 0 1 1
224 0 2 0.5897 4.921052680616998 3.1096962239957686 4.766570651608885 1 0 0
1077 0 2 0.5897 1.7696672680273982 1.0278570830587115 6.0393445740191245 0 1 1
2119 0 1 -1.1794 1.3179886116898958 3.7076558510243998 4.385966374662798 0 0 0
1866 0 2 0.5897 10.618631499605858 0.9553786313335673 4.2060555489434925 0 0 -2
1897 0 1 -1.1794 7.2534109083357245 2.6056953665764238 8.067006007624359 0 0 -1
1736 0 2 0.5897 8.199100342282886 1.0259850959589465 4.828598738361014 1 0 1
1735 0 1 -1.1794 7.262445273061354 0.9545151630178166 5.145478832504742 1 0 1
2062 0 1 -1.1794 9.265553418712575 3.218180066567268 6.430520541642963 0 1 1
2064 0 2 0.5897 9.80468788771577 2.449517219076177 6.27390919027186 0 1 1
2063 0 2 0.5897 8.91400717629974 3.4834239643803744 5.539085578874811 0 1 1
1899 0 2 0.5897 8.20385339851928 2.608910819981661 7.834133150647409 0 0 -1
578 0 2 0.5897 10.043282251250515 0.5849938954243413 7.792884470741475 0 2 0
577 0 1 -1.1794 10.537077744787988 0.6880354373162189 6.931328812650162 0 2 0
1737 0 2 0.5897 7.325997992599211 1.3953293980868973 5.993908296218117 1 0 1
579 0 2 0.5897 10.069109440875984 0.00042594013328243053 6.484165419699681 0 2 0
557 0 2 0.5897 12.176465630455237 1.628799538667552 8.265114464127816 0 0 1
823 0 1 -1.1794 4.870418713696834 5.885319002568344 5.544117079945683 0 2 -1
824 0 2 0.5897 4.88624893071817 5.114758188896121 4.957778017927962 0 2 -2
825 0 2 0.5897 5.612109113134283 5.775353625365394 6.182109996786896 0 2 -2
1023 0 2 0.5897 3.333023379494813 5.548203797145834 6.702063845073359 0 0 -1
1021 0 1 -1.1794 2.6779447859820955 5.4995704037146 7.416364752679413 0 0 -1
1644 0 2 0.5897 4.971287631860141 7.854860510039462 5.745429390948856 0 2 3
1022 0 2 0.5897 2.8664716614865515 6.190201002648928 8.100765395779431 0 0 -1
1426 0 1 -1.1794 6.647375484200364 5.195332261788529 7.615320458333852 0 1 1
2048 0 2 0.5897 1.694187888558039 6.969406170171999 5.3180003450809785 0 -2 1
2049 0 2 0.5897 1.5858291636807123 5.58313257761678 4.50974323365955 0 -2 1
1427 0 2 0.5897 6.522228564726935 4.287179481121502 7.926089952533722 0 1 1
2047 0 1 -1.1794 1.5977162589462566 6.561887696203769 4.436812879908165 0 -2 1
169 0 1 -1.1794 12.092030288128436 5.0763983913521145 8.313753173039318 0 0 0
1829 0 2 0.5897 7.988056393025679 5.7965583951126884 4.24827913538153 0 -1 0
1828 0 1 -1.1794 7.968811350231941 6.753027799919277 4.50635112246052 0 -1 0
1584 0 2 0.5897 9.537191867074451 5.033444540606308 7.299063379073025 0 2 0
1582 0 1 -1.1794 9.212554977164354 5.908032635204855 7.280754472202145 0 2 0
1428 0 2 0.5897 7.616537429462871 5.43201176481166 7.474411852288153 0 1 1
31 0 1 -1.1794 11.053832863081421 7.198572610775932 5.68927769311972 0 -1 0
32 0 2 0.5897 10.348381068762253 6.636225464503718 6.038602100214787 0 -1 0
33 0 2 0.5897 11.83804346589064 6.993020108189164 6.213388751914351 0 -1 1
1583 0 2 0.5897 9.309417601598454 6.288013610012284 8.177497557803179 0 2 0
1658 0 2 0.5897 8.23055456599917 7.707013169988338 6.3381590285284615 0 0 0
170 0 2 0.5897 12.054824397284724 4.413750948148666 7.632582237638966 0 0 0
1642 0 1 -1.1794 4.972174227049305 8.77913832268605 6.000850470032541 0 2 3
497 0 2 0.5897 2.9504479432295563 8.533289931621965 6.588884230756188 1 0 0
1643 0 2 0.5897 4.985162148443141 9.282737125929952 5.190116852383196 0 2 3
496 0 1 -1.1794 2.0911673426251545 8.663673065490826 6.192943252986736 1 0 0
498 0 2 0.5897 2.2261229547423764 9.520106315186712 5.704504268584013 1 0 0
56 0 2 0.5897 5.791306468507161 9.310284511992446 7.592699391752595 0 2 -1
1886 0 2 0.5897 5.313729907562952 11.884393135574372 4.844032225112646 0 1 2
1062 0 2 0.5897 6.461842227322572 11.21630622481469 8.279602372206169 0 0 -1
2074 0 1 -1.1794 3.10209540176318 11.963642047986134 7.342429868149587 0 0 1
1029 0 2 0.5897 1.2236520049196904 11.694867515700906 7.6301430395626655 1 0 0
597 0 2 0.5897 3.3039449560906182 10.31050763923476 8.274822294494642 0 0 1
634 0 1 -1.1794 1.835025525408371 10.6892435828811 4.342484539940013 0 -1 -1
1767 0 2 0.5897 10.67893691638273 8.807086448727125 5.9006999212157805 0 -1 0
1398 0 2 0.5897 8.442411250692146 9.368988589999512 4.976312296812132 0 0 0
1657 0 1 -1.1794 8.330990270412721 8.649571103330382 6.594705228350098 0 0 0
1659 0 2 0.5897 7.531028513700447 8.809294499719345 7.110851609528054 0 0 0
1765 0 1 -1.1794 10.793737455156514 9.775573779741473 5.704460977625471 0 -1 0
1766 0 2 0.5897 10.148763465911852 10.301909507644305 6.211440127014369 0 -1 0
898 0 1 -1.1794 9.075421561023235 11.918158972371234 6.567811232943987 0 0 0
1058 0 2 0.5897 9.116656279915897 9.370365315153801 8.2696085700586 0 1 -1
1061 0 2 0.5897 7.575038716152987 11.925839941338147 7.48713749906619 0 0 -1
1134 0 2 0.5897 11.945400560730786 11.90141021029097 4.8163433350440235 0 1 0
141 0 2 0.5897 12.278651414507042 10.121881171070127 6.449137055032262 0 3 -1
1060 0 1 -1.1794 6.648500627469945 12.053527945881036 7.856421988299678 0 0 -1
2076 0 2 0.5897 3.445982445688166 12.324279011577643 6.468755649718988 0 0 1
1335 0 2 0.5897 1.820713969176426 12.38747866851119 4.635743762482027 0 -1 1
1887 0 2 0.5897 5.531118989046516 12.275259479277915 6.293530326337728 0 1 2
1333 0 1 -1.1794 2.0081762668222654 13.37032817255283 4.588537661774122 0 -1 1
1885 0 1 -1.1794 5.234263840238244 12.635686405121303 5.467707141155451 0 1 2
2010 0 2 0.5897 1.9227449134032613 14.602451774394297 5.763513595607882 0 -1 1
2117 0 2 0.5897 4.810031602401985 14.143643401831357 5.608688995250168 0 0 0
2116 0 1 -1.1794 4.671401330473388 15.088860936313393 5.711596789354127 0 0 0
2118 0 2 0.5897 3.7139498105284825 15.349059156608572 5.901784587780423 0 0 0
2008 0 1 -1.1794 2.0696872948690483 15.494889116231944 6.170607690865153 1 -1 1
1544 0 2 0.5897 5.57919682768528 15.138677552835196 7.409705574917063 0 1 1
2009 0 2 0.5897 1.476901287277394 15.663667859773582 6.916224529888903 1 -1 1
2075 0 2 0.5897 2.955045848293336 12.676996988663117 7.9622258272641515 0 0 1
1543 0 1 -1.1794 6.138210280043143 15.567035448281013 8.043211713029173 0 1 1
96 0 2 0.5897 12.203737297305576 12.494416755250269 7.434299959159385 0 1 -1
900 0 2 0.5897 9.889787082998144 12.339437649654212 6.846210248263282 0 0 0
94 0 1 -1.1794 11.664596209228371 12.557374400532693 6.673867571993493 0 1 -1
899 0 2 0.5897 8.566863090858686 12.554716369670325 6.039915829516381 0 0 0
2028 0 2 0.5897 9.005542400854235 14.826748746507759 5.158334643050333 0 0 1
2026 0 1 -1.1794 8.399101141284744 14.292835133666115 5.629399578131671 0 0 1
2027 0 2 0.5897 8.599624528132882 14.390474856871966 6.591603521672093 0 0 1
2155 0 1 -1.1794 11.508906724015615 15.5541884701069 6.229448179909541 0 0 0
2156 0 2 0.5897 10.87507672952904 15.819547685763654 5.572103572749137 0 0 0
287 0 2 0.5897 7.717863753682228 15.001039830106311 8.30018369164499 0 -2 0
95 0 2 0.5897 11.588180935981386 13.524503040530416 6.578688418018816 0 1 -1
1804 0 1 -1.1794 5.440786636577189 17.242972809197415 4.25790536840534 0 0 0
576 0 2 0.5897 4.862754426370298 20.020108839708122 5.465450302898157 0 -1 0
1293 0 2 0.5897 1.6605090708502737 16.725064241567143 4.809604389263054 0 -1 1
1316 0 2 0.5897 1.2796645659943913 18.98640795269124 4.384022088886893 0 -1 0
1806 0 2 0.5897 5.155483772534128 16.49336939046449 4.839205008269969 0 0 0
574 0 1 -1.1794 4.717851289565511 19.20473964847039 5.894795432795914 0 -1 0
1757 0 2 0.5897 3.1633171417930304 18.516238610015314 6.977562329459712 1 0 0
575 0 2 0.5897 4.970293858409793 18.568035476833685 5.161836972870193 0 -1 0
1877 0 2 0.5897 5.778499995708017 18.93068309447554 7.0371420280626085 0 1 1
1756 0 1 -1.1794 2.570837784981208 18.579363499887986 7.700647749061118 1 0 0
1876 0 1 -1.1794 6.515310097858186 18.674062983889634 7.673553419478168 0 1 1
1758 0 2 0.5897 1.5738052123633002 18.768341161769982 7.57151893502811 1 0 0
1878 0 2 0.5897 6.4586621819792835 19.366261630120114 8.324234991756544 0 1 1
1545 0 2 0.5897 6.0421302724835835 16.52347714870602 7.996860622354798 0 1 1
1315 0 1 -1.1794 1.3346178688647337 19.93983948953919 4.580067866476393 0 0 0
2157 0 2 0.5897 11.415540239608628 16.173850836364615 6.994693377429819 0 0 0
773 0 2 0.5897 11.71292157792026 19.18581137315037 6.579761984930923 0 1 0
587 0 2 0.5897 8.254624152224451 18.54374051610521 6.709351214160791 0 0 0
586 0 1 -1.1794 9.047288421747863 18.423680833093847 6.152504935073555 0 0 0
588 0 2 0.5897 8.728958155723465 18.19291167511864 5.243030533900297 0 0 0
1353 0 2 0.5897 9.750341942223846 17.33357469432931 7.403243885257036 0 -1 0
1351 0 1 -1.1794 10.298153131326968 16.96753919995373 8.087386680679844 0 -1 0
774 0 2 0.5897 12.049709695389323 18.0315961665254 5.461056538654062 0 1 0
36 0 2 0.5897 2.9493608902937414 2.636567007456943 8.829538481223171 0 0 1
34 0 1 -1.1794 2.943011987549804 3.5508666604749677 9.15318285300278 0 0 1
598 0 1 -1.1794 3.280537428160963 0.7983406900627439 9.512266481222571 0 0 0
1112 0 2 0.5897 5.165945340869441 0.46563014231597805 9.75125817406447 0 1 -1
1111 0 1 -1.1794 6.128722757069878 0.5686852673079864 9.56071844104296 0 1 -1
1040 0 2 0.5897 4.335451655608038 3.722722193448512 10.419340514077751 0 0 1
795 0 2 0.5897 1.7867230849183817 3.576687140152277 10.45139922920445 0 0 1
1905 0 2 0.5897 4.963423104595585 2.3318874202823467 12.267374979155464 0 0 1
600 0 2 0.5897 2.605394214751174 0.4952631486101171 10.145112643762438 0 0 0
1113 0 2 0.5897 6.597586380418385 0.22993758818249066 10.319504535760196 0 1 -1
1039 0 1 -1.1794 5.091268557300055 3.697293166352427 11.050289475008709 0 0 1
599 0 2 0.5897 3.1345633199585663 0.26973234927024875 8.733780747471211 0 0 0
1104 0 2 0.5897 4.640302974030389 0.020142537343410007 12.418032748821977 0 1 0
303 0 2 0.5897 1.7013049140625558 0.848498510979399 12.42894827955024 0 0 1
794 0 2 0.5897 1.155810320163355 2.9436468356450023 11.748919321630792 0 0 1
1898 0 2 0.5897 7.068980700613729 1.8773994796677604 8.709608758238874 0 0 -1
1524 0 2 0.5897 6.787644429664948 3.408984545065172 11.223383727829184 0 -1 0
897 0 2 0.5897 9.728200727123268 1.8483109678574379 9.62884551535052 0 0 1
896 0 2 0.5897 9.031639640191418 0.5727914957360918 10.117500794282995 0 0 1
1129 0 1 -1.1794 9.96359659539615 3.5206768009724687 10.110471461790613 0 1 0
895 0 1 -1.1794 9.588551993667066 0.8956854873152895 9.430046224083911 0 0 1
1131 0 2 0.5897 9.064730601738532 3.3970727810242134 10.471512666808568 0 1 0
1522 0 1 -1.1794 7.697197775246773 3.2466352601030612 11.505075964185774 0 -1 0
1523 0 2 0.5897 7.67903442686637 2.5653051436891032 12.223074417784922 0 -1 0
831 0 2 0.5897 8.109148975361332 0.09503606704439636 12.385115377273936 0 2 1
35 0 2 0.5897 2.7536734189344045 4.153453649081657 8.441144961899843 0 0 1
1093 0 1 -1.1794 1.6527603379533264 6.246390203373998 11.199893547173414 0 0 0
1095 0 2 0.5897 1.6543801326074088 6.864848358949575 11.936653496591415 0 0 0
1094 0 2 0.5897 1.3006664106765538 5.42908818428848 11.493334129113626 0 0 0
1041 0 2 0.5897 5.000774902087177 4.348395342071145 11.74144009841405 1 0 1
1304 0 2 0.5897 4.389342094286146 6.866796151461906 9.543327155212456 0 -1 0
1305 0 2 0.5897 2.8624986841219195 6.89591143227147 9.93468677754795 0 -1 0
1303 0 1 -1.1794 3.5070117446935876 7.139453088137284 9.259147117369706 0 -1 0
892 0 1 -1.1794 6.032547332350491 6.864911653894236 9.752383969084873 0 0 0
893 0 2 0.5897 6.347319380573756 6.281109977170205 8.990357672965429 0 0 0
894 0 2 0.5897 6.63914205625494 6.789767956255034 10.524649628175826 0 1 0
121 0 1 -1.1794 12.182043711220198 6.5900130482968775 11.000979132450102 0 0 0
1130 0 2 0.5897 10.013494780410104 4.4209009977296665 9.816539320339105 0 1 0
1314 0 2 0.5897 10.107639428336379 4.433396639816054 11.897632121403078 0 0 1
1068 0 2 0.5897 8.695274702779987 6.100797494966792 11.10918668156855 0 0 0
1066 0 1 -1.1794 7.960971864940542 6.167386032549558 11.770915111327435 0 0 0
1087 0 1 -1.1794 9.76879468999865 6.6896054434515895 9.95746244551009 0 1 2
1089 0 2 0.5897 10.728270140063431 6.619776394855713 10.25814552701952 0 1 2
1067 0 2 0.5897 7.766384106569857 5.223550823145458 11.90527814806815 0 0 0
1088 0 2 0.5897 9.607594111330148 7.60951562995258 9.794401674315173 0 1 2
55 0 1 -1.1794 6.344387825498154 9.281507506695696 8.390360374815174 0 2 -1
1266 0 2 0.5897 1.6837457901376778 11.111994233443639 11.24383433316112 0 -1 0
57 0 2 0.5897 6.008860491086626 8.587276974415891 8.976651512257243 0 2 -1
595 0 1 -1.1794 3.1979295766444475 9.803469530168385 9.110876864458993 0 0 1
596 0 2 0.5897 3.419777713057344 8.865251202043659 8.964138767377394 0 0 0
1781 0 2 0.5897 4.054819970707152 10.423173127984146 10.410337895778632 0 -1 -1
1265 0 2 0.5897 1.9604347591615974 10.073754110534155 10.19943049351908 0 -1 0
1780 0 1 -1.1794 4.795497720572838 10.375413840644198 11.103221901922941 0 -1 -1
1782 0 2 0.5897 4.913612817936366 11.297439641490767 11.519723540298465 0 -1 -1
1148 0 2 0.5897 5.386210285612974 8.871173224204238 12.173084195102975 0 -2 -1
1264 0 1 -1.1794 1.420116844515599 10.194895161801517 11.011297928285408 0 -1 0
1815 0 2 0.5897 6.659716570688249 10.321227425227216 10.912146985372218 0 0 -1
1349 0 2 0.5897 2.2877044527173176 9.225181189611929 12.330924764029778 0 0 0
1057 0 1 -1.1794 9.247003340617095 9.345351078749804 9.246658544012433 0 1 -1
346 0 1 -1.1794 11.266274465755572 11.05578313795292 10.326771827531369 0 1 3
347 0 2 0.5897 11.258670714413272 10.735427825594854 11.226073772285602 0 1 2
1059 0 2 0.5897 9.99564447946231 9.946790128371363 9.379571166830418 0 1 -1
1814 0 2 0.5897 8.063683953887086 9.95462854142213 10.256932148702953 0 0 -1
1813 0 1 -1.1794 7.596137181570847 10.151545045288529 11.09009253728779 0 0 -1
348 0 2 0.5897 11.05234928754341 11.994677093471088 10.343833304234861 0 1 2
645 0 2 0.5897 8.211312777386542 8.911944453861016 12.34720838951408 0 -1 0
2100 0 2 0.5897 7.9427598863419595 11.638946080328099 11.960467993327708 0 0 1
1792 0 1 -1.1794 11.313208148473972 8.958673856633977 12.512523250993556 0 0 -1
1000 0 1 -1.1794 1.7971286099046617 12.88295750719881 11.38404773362298 1 -1 0
1807 0 1 -1.1794 3.522174569870615 13.778483367153378 9.344648947026787 0 -1 -1
1808 0 2 0.5897 4.3952919760655105 13.545633012161083 9.771694068182008 0 -1 -1
1002 0 2 0.5897 2.338533292318132 13.30088321618113 10.672882411033097 1 -1 0
1809 0 2 0.5897 3.6257590013286816 14.74028478327708 9.176600130441734 0 -1 -1
385 0 1 -1.1794 6.003653488784731 13.70776348484066 10.29285169759644 0 0 0
386 0 2 0.5897 6.668246282440431 13.308328643543872 9.690991683096904 0 0 0
387 0 2 0.5897 6.1523101367636075 14.668421043211012 10.2224631113343 0 0 0
1001 0 2 0.5897 1.8352186732194058 13.499540880967336 12.12568843769197 1 0 0
1599 0 2 0.5897 4.668428534476984 15.844326934020833 12.16377089530495 0 -2 1
1319 0 2 0.5897 5.4349268255838155 13.233583548835185 12.359607000373321 0 -1 0
1538 0 2 0.5897 1.456071728616952 15.777590025665678 12.387081383135195 0 0 0
286 0 1 -1.1794 8.669096915596441 14.784801993396508 8.445694949902064 0 -2 0
288 0 2 0.5897 9.13715935859474 15.61026083649714 8.511636447038377 0 -2 0
1310 0 2 0.5897 9.433375039206416 13.763748970702272 9.670708760066761 0 0 -1
2098 0 1 -1.1794 8.450365396363235 12.415739716719283 12.284703519397343 0 0 1
1309 0 1 -1.1794 9.985184200037269 13.319744588986378 10.335748468508829 0 0 -1
1311 0 2 0.5897 9.397361271255473 13.022291055089884 11.018382905045385 0 0 -1
1043 0 2 0.5897 10.93692599679439 14.829873459148313 10.633963116056417 0 -1 1
1042 0 1 -1.1794 11.29612027371128 15.71622020958863 10.978829053675682 0 -1 1
1044 0 2 0.5897 12.269257598419847 15.796749093491924 10.927629326632253 0 -1 1
762 0 2 0.5897 12.171005522344636 12.498262346210517 12.412281345521869 0 -1 3
2099 0 2 0.5897 7.930424275012183 13.169561916050023 12.512092417374674 0 0 1
1843 0 1 -1.1794 1.2560321582788427 19.783985612225052 11.273074263015072 0 -1 0
1845 0 2 0.5897 1.1596319061916198 18.791199308325016 11.511335180604659 0 -1 0
530 0 2 0.5897 3.1099922787415357 17.30247325074797 8.986948705097966 0 0 0
529 0 1 -1.1794 3.321889333116937 16.596163181053903 9.659858262236058 0 0 -1
1863 0 2 0.5897 1.9981955952618538 16.90806888297198 10.765776399616271 0 0 0
531 0 2 0.5897 4.051277123798333 16.964128391836333 10.188635096448916 0 0 0
1573 0 1 -1.1794 5.931705127298451 17.046030916517356 10.88489552857176 0 0 0
1574 0 2 0.5897 5.864330928142115 17.783074075168596 11.494706246500447 0 0 0
1861 0 1 -1.1794 1.2445609513212088 16.98252257423904 11.340552052314864 0 0 0
1575 0 2 0.5897 6.823927974639184 17.09913199409421 10.497559689149718 0 0 0
821 0 2 0.5897 8.35716578322461 16.220528467825027 11.992647131477286 0 -1 0
1352 0 2 0.5897 10.375553973703905 17.60750308578597 8.816828311880855 0 -1 0
829 0 1 -1.1794 7.873060143888891 19.677103753551197 11.557345534705517 0 1 1
822 0 2 0.5897 9.571110126419441 16.867127408154303 11.376017883441055 0 -1 0
820 0 1 -1.1794 8.607352745976918 16.969127681520735 11.466722034563556 0 -1 0
297 0 2 0.5897 11.830079886235275 18.47624109688722 11.272279603087082 0 -1 0
295 0 1 -1.1794 11.373802602523176 18.60440306181129 10.443156036124504 0 -1 0
296 0 2 0.5897 11.222389035514109 19.529863990590048 10.473265410901497 0 -1 0
830 0 2 0.5897 8.284934099039196 18.762887989590034 11.65630313096423 0 1 1
1903 0 1 -1.1794 4.7133921980336515 1.736103653125761 12.986406878728275 0 0 1
301 0 1 -1.1794 1.8557145074630061 1.656968614675893 12.957971306124435 0 0 1
302 0 2 0.5897 2.809595569784141 1.7588308726122115 13.015375891855115 0 0 1
1904 0 2 0.5897 5.46953033490349 1.8236650590550687 13.584869574625143 0 0 1
1038 0 2 0.5897 3.2799341170952707 2.645596967112326 16.063181151786694 0 -1 -1
1641 0 2 0.5897 5.965084535508157 1.9531582396580045 15.662272108862142 0 0 -1
1036 0 1 -1.1794 3.3277648280399874 3.631243822566795 16.273204628903567 0 -1 -1
1639 0 1 -1.1794 6.287204407222503 2.447198265972114 14.918184136088167 0 0 -1
1640 0 2 0.5897 6.097939052803904 3.354942777652607 15.157116774891954 0 0 -1
1053 0 2 0.5897 2.551023459383516 0.38520332797478535 15.28765210321422 0 -1 1
1051 0 1 -1.1794 2.6530255777781457 1.036783921344152 15.979100602888053 0 -1 1
329 0 2 0.5897 4.2900606439565205 0.440996518503015 16.510498543483266 0 0 -1
328 0 1 -1.1794 5.2454793840351615 0.34046809468543 16.6340537996998 0 0 -1
2261 0 2 0.5897 11.632470168869867 1.7512421966359044 12.655135986427787 1 2 0
2262 0 2 0.5897 10.798265176694384 2.951814846151207 13.249244821510295 1 2 0
2260 0 1 -1.1794 11.038087039797867 2.034797158298828 13.4049297235704 1 2 0
1355 0 2 0.5897 9.432658019899547 1.5769131988179856 13.567938211668409 0 1 -1
1354 0 1 -1.1794 8.401842600042404 1.5304371858693806 13.418793019695835 0 1 -1
1356 0 2 0.5897 8.0470398823099 1.7429206445063399 14.301166495873304 0 1 -1
1635 0 2 0.5897 9.31725756634098 0.24803635965541052 15.568705797099046 0 0 -1
167 0 2 0.5897 9.923410778508027 2.8532741412111053 15.952400147425566 0 0 0
166 0 1 -1.1794 9.860972487110981 3.7556177563127155 16.31648062207824 0 0 0
510 0 2 0.5897 12.238746714883495 1.5239021132521198 14.8514505448668 0 -1 -1
1633 0 1 -1.1794 9.430957041854777 1.0450316727243203 16.11372664205602 0 0 -1
1037 0 2 0.5897 3.0338851592325558 4.140549220876299 15.528384173453851 0 -1 -1
2040 0 2 0.5897 5.252864143428326 6.4382423609935095 12.861289823869251 0 -1 -1
858 0 2 0.5897 1.7146048524671567 5.663605596119643 14.429224655543011 0 0 -1
2038 0 1 -1.1794 5.031199091988778 5.522491357043096 13.107065503597978 0 -1 -1
2039 0 2 0.5897 4.208059013575031 5.672093664972175 13.611133426495288 0 -1 -1
856 0 1 -1.1794 2.6623789074073305 5.762218932051615 14.527367821951138 0 0 -1
857 0 2 0.5897 2.7576910663439413 6.508940807277932 15.151683599410289 0 0 -1
1014 0 2 0.5897 5.679643724336894 5.135751136839577 14.63656001857444 0 1 1
1505 0 2 0.5897 5.952114037623418 6.537877188763953 16.667246595093374 1 -1 -1
1012 0 1 -1.1794 6.161442201119665 5.049264746244835 15.461792278778205 0 1 1
28 0 1 -1.1794 3.1672102905484136 7.7360375071549585 16.38127670778107 0 -1 0
1360 0 1 -1.1794 11.746031887875732 6.381524332948988 15.693576439494748 0 1 1
644 0 2 0.5897 8.323516443471721 7.332346257838489 12.740470456607014 0 -1 0
1312 0 1 -1.1794 10.550399850893804 4.619040351604087 12.741693387438492 0 0 1
1313 0 2 0.5897 9.934028824971227 5.12564756578218 13.334843934678057 0 0 1
50 0 2 0.5897 8.865210651724126 6.505976593105785 15.122413268860468 0 2 0
49 0 1 -1.1794 8.762632911282576 5.606953461394322 14.786364466452934 0 2 0