LAMMPS (23 Jun 2022)
echo both

include		in.partitions
variable        pid world 0
include		in.temp
variable	temperature equal 255.0
variable        tempDamp equal 0.100 # this is 0.1 ps
include		in.pressure
variable        pressure equal 6079.5
variable        pressureDamp equal 1.0 #this is 1ps
include		in.seed
variable        seed world 745823

units           metal
atom_style	full
read_restart	restart.lmp.${pid}
read_restart	restart.lmp.0
Reading restart file ...
  restart file = 23 Jun 2022, LAMMPS = 23 Jun 2022
  restoring atom style full from restart
  orthogonal box = (1.0619477 0 0) to (46.388751 20.047001 20.857)
  4 by 1 by 1 MPI processor grid
Summary of lammps deepmd module ...
  >>> Info of deepmd-kit:
  installed to:       /u/sigbjobo/software/DEEPMD_FROM_SOURCE/deepmd-kit/install
  source:             v2.1.3
  source branch:       master
  source commit:      5a32c49
  source commit at:   2022-07-01 09:52:58 +0800
  surpport model ver.:1.1 
  build float prec:   double
  build with tf inc:  /u/sigbjobo/software/DEEPMD_FROM_SOURCE/tensorflow/install/include;/u/sigbjobo/software/DEEPMD_FROM_SOURCE/tensorflow/install/include
  build with tf lib:  /u/sigbjobo/software/DEEPMD_FROM_SOURCE/tensorflow/install/lib/libtensorflow_cc.so;/u/sigbjobo/software/DEEPMD_FROM_SOURCE/tensorflow/install/lib/libtensorflow_framework.so
  set tf intra_op_parallelism_threads: 0
  set tf inter_op_parallelism_threads: 0
  >>> Info of lammps module:
  use deepmd-kit at:  /u/sigbjobo/software/DEEPMD_FROM_SOURCE/deepmd-kit/install
  source:             v2.1.3
  source branch:      master
  source commit:      5a32c49
  source commit at:   2022-07-01 09:52:58 +0800
  build float prec:   double
  build with tf inc:  /u/sigbjobo/software/DEEPMD_FROM_SOURCE/tensorflow/install/include;/u/sigbjobo/software/DEEPMD_FROM_SOURCE/tensorflow/install/include
  build with tf lib:  /u/sigbjobo/software/DEEPMD_FROM_SOURCE/tensorflow/install/lib/libtensorflow_cc.so;/u/sigbjobo/software/DEEPMD_FROM_SOURCE/tensorflow/install/lib/libtensorflow_framework.so
  restoring pair style deepmd from restart
  2268 atoms
Finding 1-2 1-3 1-4 neighbors ...
  special bond factors lj:    0        0        0       
  special bond factors coul:  0        0        0       
     0 = max # of 1-2 neighbors
     0 = max # of 1-3 neighbors
     0 = max # of 1-4 neighbors
     1 = max # of special neighbors
  special bonds CPU = 0.000 seconds
  read_restart CPU = 0.011 seconds
include 	in.setup
variable	out_freq equal 500
variable	out_freq2 equal 1000
variable	out_freq3 equal 5000

timestep        0.0005

neigh_modify    delay 7 every 1

include         in.deepmd
# This is deepMD model

# create groups ###
#group ox type 2
#group hy type 1

mass 2 15.999
mass 1 1.008

pair_style      deepmd ../graph.pb
pair_coeff      * *

bond_style      none
angle_style     none
dihedral_style  none
improper_style  none
neigh_modify exclude none


neighbor        2.0 bin
neigh_modify    every 10 delay 0 check no

thermo          ${out_freq}
thermo          500
thermo_style 	custom step temp pe etotal epair emol press lx ly lz vol pxx pyy pzz pxy pxz pyz
#thermo_modify	flush yes
restart 	${out_freq} restart.lmp.${pid} restart2.lmp.${pid}
restart 	500 restart.lmp.${pid} restart2.lmp.${pid}
restart 	500 restart.lmp.0 restart2.lmp.${pid}
restart 	500 restart.lmp.0 restart2.lmp.0

include		in.dump
dump            myDump all atom ${out_freq3} dump.water.${pid}
dump            myDump all atom 5000 dump.water.${pid}
dump            myDump all atom 5000 dump.water.0
dump            myDump2 all dcd ${out_freq2} dump.dcd.${pid}
dump            myDump2 all dcd 1000 dump.dcd.${pid}
dump            myDump2 all dcd 1000 dump.dcd.0
dump_modify     myDump append yes
dump_modify     myDump2 append yes


timer           timeout 23:50:00 every 1000
New timer settings: style=normal  mode=nosync  timeout=23:50:00

fix             1 all plumed plumedfile plumed.dat outfile plumed.out
fix             3 all nph x ${pressure} ${pressure} ${pressureDamp}
fix             3 all nph x 6079.5 ${pressure} ${pressureDamp}
fix             3 all nph x 6079.5 6079.5 ${pressureDamp}
fix             3 all nph x 6079.5 6079.5 1
fix             4 all temp/csvr ${temperature} ${temperature} ${tempDamp} ${seed}
fix             4 all temp/csvr 255 ${temperature} ${tempDamp} ${seed}
fix             4 all temp/csvr 255 255 ${tempDamp} ${seed}
fix             4 all temp/csvr 255 255 0.1 ${seed}
fix             4 all temp/csvr 255 255 0.1 745823

run             40000000 upto

CITE-CITE-CITE-CITE-CITE-CITE-CITE-CITE-CITE-CITE-CITE-CITE-CITE

Your simulation uses code contributions which should be cited:

- USER-DEEPMD package:

@article{Wang_ComputPhysCommun_2018_v228_p178,
  author = {Wang, Han and Zhang, Linfeng and Han, Jiequn and E, Weinan},
  doi = {10.1016/j.cpc.2018.03.016},
  url = {https://doi.org/10.1016/j.cpc.2018.03.016},
  year = 2018,
  month = {jul},
  publisher = {Elsevier {BV}},
  volume = 228,
  journal = {Comput. Phys. Commun.},
  title = {{DeePMD-kit: A deep learning package for many-body potential energy representation and molecular dynamics}},
  pages = {178--184}
}

CITE-CITE-CITE-CITE-CITE-CITE-CITE-CITE-CITE-CITE-CITE-CITE-CITE

Generated 0 of 1 mixed pair_coeff terms from geometric mixing rule
Neighbor list info ...
  update every 10 steps, delay 0 steps, check no
  max neighbors/atom: 2000, page size: 100000
  master list distance cutoff = 8
  ghost atom cutoff = 8
  binsize = 4, bins = 12 6 6
  1 neighbor lists, perpetual/occasional/extra = 1 0 0
  (1) pair deepmd, perpetual
      attributes: full, newton on
      pair build: full/bin
      stencil: full/bin/3d
      bin: standard
Per MPI rank memory allocation (min/avg/max) = 6.189 | 6.192 | 6.197 Mbytes
   Step          Temp          PotEng         TotEng         E_pair         E_mol          Press            Lx             Ly             Lz           Volume          Pxx            Pyy            Pzz            Pxy            Pxz            Pyz      
   7519000   256.08051     -354.97284     -279.93287     -354.97284      0              4756.7742      45.326804      20.047001      20.857         18952.057      5720.7825      4706.3258      3843.2143      1294.3233      209.97928     -367.8299     
   7519500   260.33932     -356.04358     -279.75564     -356.04788      0              4993.341       45.367219      20.047001      20.857         18968.955      5837.567       6261.0329      2881.4231     -1146.6543     -1151.9232      65.597913    
   7520000   253.73128     -354.1382      -279.78662     -354.1397       0              5099.2887      45.573106      20.047001      20.857         19055.041      6903.4738      4078.2823      4316.1101     -234.29257     -836.98907      1228.5893    
   7520500   253.98192     -354.84367     -280.41865     -354.82117      0              6575.8654      45.335381      20.047001      20.857         18955.643      6760.5737      5652.9854      7314.037       566.13048      2782.7442     -2223.499     
   7521000   256.78493     -353.96291     -278.71651     -353.97347      0              5318.5197      45.367274      20.047001      20.857         18968.978      6261.6001      5097.5911      4596.368      -484.11792      343.69262      778.75669    
   7521500   260.20973     -354.44385     -278.19388     -354.43694      0              4915.5696      45.647168      20.047001      20.857         19086.008      9556.7768      2616.1558      2573.7762     -761.82103     -85.633845     -8.0498178    
   7522000   256.94753     -353.72389     -278.42984     -353.72786      0              3492.2385      45.79941       20.047001      20.857         19149.663      7346.0158      1629.3946      1501.3051     -851.12868     -1336.2558     -68.881981    
   7522500   260.58026     -357.45374     -281.09519     -357.46244      0              3068.6912      45.704303      20.047001      20.857         19109.897      5030.3077      2087.8136      2087.9522      629.1184       2544.5131     -627.37305    
   7523000   252.59375     -355.41779     -281.39955     -355.41444      0              5360.9744      45.358469      20.047001      20.857         18965.297      7213.4056      4387.7623      4481.7551     -840.5551       169.59025      1466.2125    
   7523500   255.10946     -355.87787     -281.12244     -355.85917      0              6344.9796      45.168848      20.047001      20.857         18886.012      7906.6135      5272.2569      5856.0686     -954.76913     -338.71943     -667.22923    
   7524000   256.25674     -355.63928     -280.54766     -355.64313      0              4822.4136      45.590467      20.047001      20.857         19062.3        5471.8259      4803.1412      4192.2737     -1698.1436      474.87349      528.69387    
   7524500   252.33263     -354.93356     -280.99184     -354.91365      0              6170.5187      45.744708      20.047001      20.857         19126.791      6625.2065      6393.7558      5492.5939     -123.7525       1226.1288     -1080.0622    
   7525000   261.59685     -356.75546     -280.09902     -356.71886      0              6345.3814      45.136073      20.047001      20.857         18872.308      8915.8036      6027.8362      4092.5043      314.05549      495.76946     -0.33800293   
   7525500   254.52879     -356.88475     -282.29948     -356.88263      0              5704.1962      45.227035      20.047001      20.857         18910.341      8065.9262      4496.4489      4550.2136     -587.23615      954.80879      581.68985    
   7526000   251.04589     -352.94325     -279.37858     -352.93775      0              4981.2286      45.759459      20.047001      20.857         19132.959      5054.2899      3859.2553      6030.1407     -1317.9947     -46.480396      83.825475    
   7526500   259.8495      -354.90826     -278.76384     -354.90263      0              4780.9627      45.690743      20.047001      20.857         19104.227      3706.5472      6553.0364      4083.3045     -1355.3703      863.75844     -955.35568    
   7527000   252.56741     -354.4201      -280.40958     -354.41086      0              4466.4706      45.490339      20.047001      20.857         19020.434      5027.7215      4909.9991      3461.6911      844.55007      1406.592      -6.0779333    
   7527500   249.89863     -353.19785     -279.96936     -353.17753      0              4080.3376      45.291104      20.047001      20.857         18937.13       5059.0214      2163.0292      5018.9621      48.125217     -283.11299     -1255.4128    
   7528000   257.32418     -352.40176     -276.99735     -352.38498      0              6037.0453      45.327881      20.047001      20.857         18952.507      5185.9535      6872.0381      6053.1445     -84.5534       -2099.6263     -946.59672    
   7528500   257.29221     -353.71387     -278.31883     -353.71088      0              5149.0701      45.438299      20.047001      20.857         18998.675      7374.3137      3827.5658      4245.3309      606.46423      527.62908      377.7636     
   7529000   250.95322     -350.42915     -276.89164     -350.43375      0              5607.941       45.707514      20.047001      20.857         19111.239      6544.2137      4072.5094      6207.1         1224.4287      696.07755     -332.87238    
   7529500   265.65503     -350.97974     -273.13411     -350.99468      0              4696.8184      45.817606      20.047001      20.857         19157.271      5676.4855      4471.2586      3942.7111      465.69281     -1544.2144     -1184.5106    
   7530000   257.60897     -353.51409     -278.02622     -353.5083       0              3590.8039      45.739581      20.047001      20.857         19124.647      4847.7199      2754.7046      3169.9874      506.14095      1301.7733      1214.2082    
   7530500   257.67387     -355.96825     -280.46137     -355.9808       0              4771.5289      45.577979      20.047001      20.857         19057.078      4385.102       6082.4151      3847.0695     -225.45411     -33.967931     -2837.8145    
   7531000   260.64969     -354.56981     -278.19091     -354.57261      0              5038.5196      45.581971      20.047001      20.857         19058.747      8283.97        4238.7828      2592.8061     -985.18879      289.28568     -523.29724    
   7531500   253.86804     -352.29269     -277.90104     -352.30538      0              6408.0728      45.656846      20.047001      20.857         19090.054      8548.8044      5095.8593      5579.5548      811.2852       659.98748     -71.890566    
   7532000   258.94015     -352.79973     -276.92178     -352.78991      0              6069.1757      45.668341      20.047001      20.857         19094.861      6856.5543      5171.2616      6179.7111      2148.0088      1453.6029      413.89069    
   7532500   252.46975     -354.11255     -280.13065     -354.09506      0              6851.1605      45.62661       20.047001      20.857         19077.412      6549.101       5726.3219      8278.0585      2106.2125      805.56997     -552.09401    
   7533000   246.95334     -353.52067     -281.15525     -353.52807      0              3739.6327      45.600414      20.047001      20.857         19066.459      3984.0911      3317.1573      3917.6497      1420.8369     -237.08438     -2378.5222    
   7533500   249.40822     -355.83187     -282.7471      -355.83005      0              6665.3297      45.71057       20.047001      20.857         19112.517      8835.0125      6569.0183      4591.9584     -259.5335       1552.4353      1504.1829    
   7534000   254.98489     -352.95623     -278.23731     -352.95384      0              5705.863       45.712298      20.047001      20.857         19113.24       6035.5732      4009.9758      7072.0401     -989.92476      1238.6149      854.93965    
   7534500   252.59333     -353.22237     -279.20425     -353.23473      0              3791.1854      45.647038      20.047001      20.857         19085.953      5278.0724      3904.8441      2190.6398      492.31286      403.53174     -53.378995    
   7535000   258.91423     -354.71554     -278.84519     -354.70279      0              2569.7156      45.486881      20.047001      20.857         19018.988      752.24883      4150.6924      2806.2056      1177.3118     -934.35995     -2165.6144    
   7535500   258.25864     -354.52992     -278.85168     -354.52887      0              5769.2334      45.581219      20.047001      20.857         19058.433      6409.0468      6474.2996      4424.3536      772.55795     -685.03819     -778.32245    
   7536000   257.14097     -354.83326     -279.48254     -354.83082      0              1430.7903      45.691234      20.047001      20.857         19104.432      2546.1149      2510.0946     -763.83864      1308.535       1700.6146      826.9042     
   7536500   256.67507     -354.84399     -279.62979     -354.83496      0              5861.3206      45.623711      20.047001      20.857         19076.2        6323.7787      6701.5992      4558.584       97.837855      157.30246      501.13109    
   7537000   249.23231     -354.40886     -281.37563     -354.41563      0              4233.8439      45.540702      20.047001      20.857         19041.492      5257.6123      2215.6126      5228.307       298.24647      429.01034      13.947434    
   7537500   248.46898     -352.68993     -279.88038     -352.70102      0              5522.3823      45.531525      20.047001      20.857         19037.655      7206.8201      5718.625       3641.7019     -501.46399     -517.86359      1271.8945    
   7538000   256.83724     -356.09798     -280.83626     -356.06937      0              4060.4706      45.620346      20.047001      20.857         19074.793      3808.9548      5877.2374      2495.2197     -56.279355      750.56143     -225.91143    
   7538500   251.90905     -353.73731     -279.9197      -353.73127      0              5955.9022      45.668865      20.047001      20.857         19095.08       6701.0215      4962.381       6204.304      -561.15321     -529.67933     -1047.6217    
   7539000   247.27333     -354.25859     -281.7994      -354.25774      0              4605.4934      45.380583      20.047001      20.857         18974.543      6205.7695      4018.226       3592.4848     -158.22603     -967.23347      1107.1319    
   7539500   254.03358     -355.34047     -280.90031     -355.3533       0              6977.3443      45.482947      20.047001      20.857         19017.343      9505.2707      5404.4176      6022.3447      101.56607      39.237906     -935.1558     
   7540000   250.32177     -356.18116     -282.82868     -356.17508      0              3427.4075      45.673433      20.047001      20.857         19096.99       5290.1043      2626.8569      2365.2612     -895.90824     -401.0456      -404.62428    
   7540500   249.78604     -355.93652     -282.74103     -355.91866      0              6464.1234      45.392276      20.047001      20.857         18979.432      5226.5063      6592.7652      7573.0987      1085.8721     -1057.6267      2489.4576    
   7541000   257.14589     -355.7008      -280.34863     -355.70585      0              5783.845       45.390074      20.047001      20.857         18978.511      7886.1752      4317.2572      5148.1027      793.82041     -803.54997      762.69775    
   7541500   253.57303     -354.71083     -280.40563     -354.69405      0              5972.795       45.625822      20.047001      20.857         19077.083      7569.0043      6450.1966      3899.1841      763.30916      841.83059     -261.1546     
   7542000   253.54079     -357.56864     -283.27288     -357.55054      0              5560.271       45.68622       20.047001      20.857         19102.336      3825.1953      7339.6416      5515.9759     -1673.7942     -1374.5653      832.08123    
   7542500   260.54107     -355.8874      -279.54034     -355.86828      0              5344.9785      45.30899       20.047001      20.857         18944.609      5689.4723      5495.0623      4850.4009      963.01893     -565.03377     -164.70734    
   7543000   257.84936     -352.88637     -277.32806     -352.86748      0              6706.4333      45.059124      20.047001      20.857         18840.134      7340.5975      7904.8396      4873.8627      1179.4653      278.0681       1090.1575    
   7543500   253.88002     -354.71958     -280.32442     -354.71415      0              2734.2471      45.555685      20.047001      20.857         19047.757      3151.7199      4207.5289      843.49245     -806.43288      1269.4821      359.02451    
   7544000   262.31032     -352.67822     -275.81271     -352.69441      0              5494.5314      45.799285      20.047001      20.857         19149.611      5660.6095      7136.0192      3686.9654     -736.66863      488.84147      2474.4691    
   7544500   259.07527     -353.77879     -277.86125     -353.78281      0              5735.7433      45.488434      20.047001      20.857         19019.637      5253.9227      5191.603       6761.7042      248.21405      327.15843      235.72271    
   7545000   261.56202     -351.56819     -274.92196     -351.57247      0              5518.3373      45.292028      20.047001      20.857         18937.516      5031.914       6587.1402      4935.9578     -254.47555      2044.981       1196.9212    
   7545500   255.47864     -355.41991     -280.5563      -355.4169       0              7182.8049      45.535083      20.047001      20.857         19039.142      4998.9628      8399.9805      8149.4713     -299.27166      554.53229     -983.00983    
   7546000   254.16156     -352.32414     -277.84648     -352.32011      0              3976.1871      45.875195      20.047001      20.857         19181.35       6137.942       4125.5446      1665.0746     -410.51719     -384.43063     -735.52003    
   7546500   256.04069     -353.74454     -278.71623     -353.70773      0              5320.6484      45.509649      20.047001      20.857         19028.508      5140.5792      5384.7096      5436.6564     -588.63096     -1288.8992      1189.4247    
   7547000   251.36045     -353.2884      -279.63156     -353.27862      0              4459.384       45.361838      20.047001      20.857         18966.705      7086.8734      3625.3398      2665.939      -569.91715     -1376.8848      416.86656    
   7547500   251.38303     -351.85403     -278.19056     -351.85147      0              4019.3467      45.709325      20.047001      20.857         19111.997      4789.5069      5466.8052      1801.7281     -337.04505     -151.36982     -1097.3375    
   7548000   251.85188     -354.4319      -280.63105     -354.43554      0              3004.6743      45.878709      20.047001      20.857         19182.82       3050.6246      3546.6864      2416.712       388.34061      650.51866      678.28517    
   7548500   255.52403     -352.20643     -277.32953     -352.18922      0              5230.1988      45.671244      20.047001      20.857         19096.074      6604.9449      6458.8488      2626.8027     -1072.2946     -1351.2302      653.79608    
   7549000   263.40559     -350.30648     -273.12001     -350.3053       0              5356.6732      45.64649       20.047001      20.857         19085.724      6187.4847      6295.1316      3587.4035      117.11556      2576.1755      28.594127    
   7549500   248.47632     -349.76822     -276.95652     -349.7741       0              5174.0932      45.845932      20.047001      20.857         19169.115      6235.0086      4625.1978      4662.0731      587.45556     -671.38361      2357.2769    
   7550000   262.63046     -351.15639     -274.19707     -351.15418      0              3517.8593      45.712781      20.047001      20.857         19113.442      6109.0308      2858.1918      1586.3554      1470.7862     -2416.7943      678.58077    
   7550500   258.82609     -353.38918     -277.54466     -353.37068      0              5744.9502      45.621796      20.047001      20.857         19075.399      7683.0409      6193.8253      3357.9843     -1776.0031     -741.50564      33.1131      
   7551000   256.31153     -354.70405     -279.59638     -354.70762      0              4885.2834      45.705607      20.047001      20.857         19110.442      3792.8482      7070.0592      3792.9429      834.66562      1376.4501      2988.833     
   7551500   260.34834     -354.92919     -278.6386      -354.91524      0              6443.9721      45.8622        20.047001      20.857         19175.917      4167.4256      8545.7836      6618.7071      922.80684     -817.04574     -703.6311     
   7552000   262.22532     -354.18389     -277.34328     -354.19067      0              5656.2941      45.656496      20.047001      20.857         19089.908      6515.7886      4152.3575      6300.7363      952.24704      20.243514     -202.16273    
   7552500   248.55046     -353.09398     -280.26056     -353.0737       0              5443.6578      45.364838      20.047001      20.857         18967.96       8768.7665      4523.4491      3038.7579     -1349.5503     -670.81595     -1597.557     
   7553000   244.21634     -353.08993     -281.52655     -353.09884      0              3435.8096      45.722278      20.047001      20.857         19117.412      3747.2407      5074.9335      1485.2544      1162.5006     -429.9145       1021.8418    
   7553500   248.79747     -354.58335     -281.67755     -354.56523      0              3295.1117      45.973122      20.047001      20.857         19222.296      3099.8871      4426.4349      2359.0132     -702.31116      600.79794      732.58306    
   7554000   251.2251      -354.61324     -280.99606     -354.58661      0              6122.6501      45.393389      20.047001      20.857         18979.898      7581.6673      5928.5909      4857.692      -638.75252      1182.5974      1648.3837    
   7554500   253.34738     -352.9704      -278.73132     -352.93498      0              5862.9833      45.433764      20.047001      20.857         18996.779      3861.1129      6938.3239      6789.5131     -1147.9377      337.25224     -991.71495    
   7555000   257.64494     -354.8803      -279.38189     -354.85491      0              5013.4825      45.762647      20.047001      20.857         19134.292      7795.7205      5496.1266      1748.6005      665.23031      908.66646      1058.9069    
   7555500   250.54037     -353.27277     -279.85623     -353.21821      0              2192.8188      45.754126      20.047001      20.857         19130.729      3327.5484      2978.7694      272.13883     -1762.5712     -1377.0513      893.95215    
   7556000   255.97887     -354.73255     -279.72236     -354.69012      0              3558.3149      45.531344      20.047001      20.857         19037.579      3222.7505      4253.8504      3198.3437     -189.38168     -2372.7539      553.76593    
   7556500   252.77089     -354.06075     -279.9906      -354.04343      0              7613.8108      45.365053      20.047001      20.857         18968.05       8293.2704      7218.8207      7329.3415     -453.30672      779.08471     -746.67346    
   7557000   258.73758     -352.91121     -277.09263     -352.89237      0              4317.918       45.519228      20.047001      20.857         19032.513      6187.2567      3792.6586      2973.8388     -39.205876     -284.84176      406.91158    
   7557500   253.67856     -352.28947     -277.95335     -352.24006      0              2378.8281      45.696252      20.047001      20.857         19106.531      6175.815       1031.4675     -70.798069     -1069.612       83.579058     -555.81618    
   7558000   251.44196     -353.39725     -279.71652     -353.36087      0              5203.3582      45.58774       20.047001      20.857         19061.16       8000.2246      4324.5636      3285.2863     -1720.1289      604.72466      1103.7344    
   7558500   261.87496     -353.10976     -276.37182     -353.09249      0              4966.6375      45.584825      20.047001      20.857         19059.941      7387.0074      3445.827       4067.0781     -1392.1924     -2535.4425      42.782523    
   7559000   256.14977     -355.41259     -280.35232     -355.39333      0              6484.494       45.688063      20.047001      20.857         19103.107      8760.003       7658.3468      3035.1321     -321.25994     -1107.3779     -675.18503    
   7559500   249.31717     -353.77221     -280.71412     -353.76218      0              4958.5007      45.648735      20.047001      20.857         19086.663      7391.2607      3156.2673      4327.974      -2843.5518      1203.7874     -10.825772    
   7560000   248.9396      -353.73537     -280.78791     -353.72064      0              4623.425       45.788515      20.047001      20.857         19145.108      5708.1421      4645.4848      3516.6481     -31.79185      -1399.1961     -419.91466    
   7560500   253.41572     -352.56617     -278.30706     -352.54699      0              4205.2903      45.673084      20.047001      20.857         19096.844      4205.6198      1900.5733      6509.6777     -627.11383     -1181.4842     -830.83895    
   7561000   256.45426     -353.61055     -278.46106     -353.59404      0              4414.2842      45.739868      20.047001      20.857         19124.768      4909.5137      4884.447       3448.8919     -454.22961     -946.0997      -251.42567    
   7561500   253.09103     -352.91735     -278.75339     -352.89239      0              6479.9509      45.829024      20.047001      20.857         19162.045      8047.1185      5713.1414      5679.5928     -1350.8983     -707.02831      347.12075    
   7562000   255.75389     -354.09781     -279.15355     -354.02575      0              5838.768       45.750839      20.047001      20.857         19129.355      8698.9679      1818.8744      6998.4616     -475.72952      881.67951     -502.53098    
   7562500   254.62974     -353.01035     -278.3955      -352.99157      0              4579.9815      45.684983      20.047001      20.857         19101.819      4685.6104      3938.8931      5115.441      -148.43025      617.58148      1400.2097    
   7563000   252.55911     -354.99975     -280.99166     -354.94231      0              2938.0305      45.544247      20.047001      20.857         19042.974      1951.3132      3938.3402      2924.4382      1378.4317      1218.4472     -775.76199    
   7563500   253.07513     -354.08147     -279.92217     -354.03127      0              5331.5208      45.553435      20.047001      20.857         19046.816      7312.9897      2943.9358      5737.6369      647.89279      31.615285      780.47753    
   7564000   249.07124     -354.51747     -281.53144     -354.49275      0              8114.0297      45.698517      20.047001      20.857         19107.478      7412.5518      8926.9529      8002.5843     -123.58161      2226.8387     -1183.0518    
   7564500   254.69341     -357.53268     -282.89917     -357.46766      0              2835.3593      45.669015      20.047001      20.857         19095.142      4601.6189      2302.3384      1602.1204      1403.3277      834.32212      152.76609    
   7565000   255.1172      -355.02844     -280.27075     -355.00216      0              6074.6176      45.669866      20.047001      20.857         19095.498      7482.1711      5566.7959      5174.8858      1392.0448     -475.56398     -520.99119    
   7565500   259.55236     -354.8968      -278.83946     -354.83844      0              4033.6712      45.821958      20.047001      20.857         19159.091      4284.519       4520.4343      3296.0605     -557.67755      477.1691       932.83286    
   7566000   262.74321     -356.23451     -279.24214     -356.16317      0              4968.5818      45.730498      20.047001      20.857         19120.85       7476.9723      4325.2459      3103.5271      237.92997      1604.5368     -335.89655    
   7566500   259.90079     -354.4083      -278.24885     -354.39714      0              7585.8394      45.58572       20.047001      20.857         19060.315      6997.9662      9030.7126      6728.8396     -891.21228      1432.666      -1274.3301    
   7567000   250.77348     -354.18453     -280.69969     -354.18527      0              7384.2533      45.474224      20.047001      20.857         19013.696      7762.5104      6717.2364      7673.0132     -330.93128     -369.95076     -664.49861    
   7567500   256.58055     -354.46302     -279.27652     -354.454        0              5872.8304      45.619905      20.047001      20.857         19074.608      6755.086       7041.0289      3822.3762      110.53881     -456.2664       1108.65      
   7568000   262.72352     -353.6878      -276.7012      -353.66973      0              5487.6288      45.702251      20.047001      20.857         19109.039      7036.655       4440.711       4985.5203     -1906.5217     -1042.5056     -1048.6162    
   7568500   258.88983     -350.09725     -274.23405     -350.10518      0              7263.501       45.992248      20.047001      20.857         19230.293      7868.7775      7399.7269      6521.9984     -354.28783     -928.55867      1276.6421    
   7569000   251.75056     -352.12826     -278.3571      -352.13854      0              4775.6445      46.027218      20.047001      20.857         19244.914      4882.8775      2804.2349      6639.821      -598.15404     -1865.0649     -2512.406     
   7569500   251.55993     -352.16814     -278.45284     -352.18101      0              8227.3353      45.623525      20.047001      20.857         19076.122      7852.4071      8747.0565      8082.5425      615.20812     -433.91536      203.48103    
   7570000   259.4471      -353.01005     -276.98355     -353.01022      0              8791.6771      45.692312      20.047001      20.857         19104.883      8084.4971      10363.99       7926.5445      1589.1686     -553.5999       106.28912    
   7570500   251.71211     -351.95223     -278.19233     -351.96489      0              5390.5074      46.132991      20.047001      20.857         19289.14       6679.8864      5393.6291      4098.0068     -886.99874      241.11272     -317.97367    
   7571000   261.09083     -356.32364     -279.81548     -356.3125       0              5117.7024      46.090357      20.047001      20.857         19271.314      7106.3236      6388.3086      1858.4752      1703.0262     -1323.533       201.87707    
   7571500   260.96218     -353.88652     -277.41606     -353.86856      0              2922.03        45.805111      20.047001      20.857         19152.047      4038.1199      4180.604       547.36612      582.57604      804.92793     -39.577083    
   7572000   255.62795     -354.93265     -280.0253      -354.91957      0              5521.8989      45.735129      20.047001      20.857         19122.786      7256.3627      4212.4839      5096.85       -250.68031     -1761.3003      85.88227     
   7572500   251.80217     -353.67936     -279.89308     -353.66703      0              6163.013       45.852185      20.047001      20.857         19171.729      7981.8179      6162.3875      4344.8335     -963.52985      122.75821      1603.5307    
   7573000   251.56355     -351.68247     -277.96611     -351.67023      0              5197.406       45.84308       20.047001      20.857         19167.922      6816.9991      5715.3851      3059.8339     -385.79474     -1156.8201      1060.5202    
   7573500   249.07351     -354.93865     -281.95196     -354.93092      0              5563.9794      45.788929      20.047001      20.857         19145.281      5193.8832      5946.6582      5551.3967      550.91421     -422.97332     -740.29158    
   7574000   258.77305     -353.96596     -278.13698     -353.93555      0              4292.2597      45.8176        20.047001      20.857         19157.268      5194.5838      5111.6612      2570.5342     -924.74422     -23.473978     -1383.2654    
   7574500   259.14091     -355.53712     -279.60035     -355.50394      0              4634.3594      45.808848      20.047001      20.857         19153.609      2608.6479      6115.3186      5179.1118      1004.5174      1269.1479      2225.1774    
   7575000   260.76248     -352.87284     -276.4609      -352.85643      0              6505.6948      45.631558      20.047001      20.857         19079.481      6783.5266      7317.9344      5415.6236     -1246.8597     -1842.9117     -493.07573    
   7575500   254.95739     -352.69938     -277.98852     -352.68328      0              3102.835       45.619185      20.047001      20.857         19074.307      4035.2081      2832.4758      2440.8211      1647.8767      369.04437      771.97017    
   7576000   248.89055     -354.13286     -281.19978     -354.12042      0              5734.4569      45.644516      20.047001      20.857         19084.899      6083.4854      5483.9246      5635.9607     -1329.0634     -1719.7386     -1916.0079    
   7576500   254.11032     -354.85365     -280.391       -354.83685      0              4761.9351      45.851473      20.047001      20.857         19171.432      6124.9478      5470.8581      2689.9994      502.73227      809.35817     -1381.7834    
   7577000   254.04896     -354.68105     -280.23638     -354.6642       0              6015.4556      45.927783      20.047001      20.857         19203.338      6923.7523      5766.301       5356.3133     -364.63191     -409.19594     -2210.4163    
   7577500   257.27538     -354.00879     -278.61868     -353.96417      0              5763.0427      45.809542      20.047001      20.857         19153.899      6762.8449      4414.8382      6111.4449      465.25453      1912.1664      67.943943    
   7578000   252.2351      -352.98403     -279.07088     -352.92473      0              4702.504       45.684076      20.047001      20.857         19101.44       6355.9076      3621.1459      4130.4584      41.484296      1222.682       1573.3653    
   7578500   257.19601     -353.65391     -278.28706     -353.63526      0              5225.1195      45.812268      20.047001      20.857         19155.039      8545.6059      2029.8262      5099.9265      1432.8169     -1395.4981      540.72501    
   7579000   255.87825     -354.99688     -280.01618     -354.97268      0              4917.1169      45.836181      20.047001      20.857         19165.038      4846.5495      5930.4394      3974.3617     -457.54306     -608.23861     -920.31545    
   7579500   259.53896     -356.08123     -280.02782     -356.06747      0              7011.1556      45.699919      20.047001      20.857         19108.064      8777.7716      6865.215       5390.4803      76.762782     -581.98122      311.91177    
   7580000   258.02913     -355.68098     -280.06999     -355.66358      0              3185.3032      45.592608      20.047001      20.857         19063.195      3840.0989      3516.356       2199.4548      28.040218      524.60052      229.83992    
   7580500   260.06025     -354.8388      -278.63263     -354.81631      0              3990.7157      45.620303      20.047001      20.857         19074.775      3966.0788      4798.8253      3207.2429     -1352.4493      732.52899     -2445.1967    
   7581000   252.12784     -353.23481     -279.3531      -353.19698      0              3216.6215      45.774277      20.047001      20.857         19139.154      5008.3301      2238.1515      2403.3829      843.21907      1331.2787      885.10344    
   7581500   250.56888     -354.15051     -280.72562     -354.11049      0              5715.1469      45.820145      20.047001      20.857         19158.333      4899.4987      6751.1648      5494.7772     -127.38506      1421.0918     -430.0898     
   7582000   259.50872     -351.25764     -275.21309     -351.20589      0              7047.0802      45.550285      20.047001      20.857         19045.499      8233.2559      7414.033       5493.9518     -537.64782     -450.05059     -477.54363    
   7582500   251.96625     -353.06629     -279.23192     -353.03141      0              3661.8767      45.697923      20.047001      20.857         19107.229      3133.595       4428.0091      3424.026       799.60008      1080.8292      135.03445    
   7583000   267.49715     -356.38862     -278.00319     -356.36407      0              7061.572       45.726072      20.047001      20.857         19118.999      9094.6816      6005.486       6084.5485     -1662.2696      361.40634     -251.32072    
   7583500   246.20245     -354.06839     -281.92301     -354.03188      0              4983.3432      46.040179      20.047001      20.857         19250.334      8753.1929      2810.4625      3386.3743     -719.21162      1294.5938      689.88764    
   7584000   251.20056     -357.43548     -283.82549     -357.39269      0              5986.0168      45.847954      20.047001      20.857         19169.96       6975.4616      4039.2525      6943.3363      507.69988      80.440418      84.87824     
   7584500   254.6571      -357.21634     -282.59347     -357.16022      0              5646.1002      45.586105      20.047001      20.857         19060.476      8125.1752      5200.6555      3612.47       -558.13085      220.27187     -98.832104    
   7585000   251.31763     -351.69645     -278.05216     -351.67213      0              4833.4001      45.828811      20.047001      20.857         19161.956      6582.6276      5845.3625      2072.2102      528.54343      404.20972     -1769.6873    
   7585500   260.8078      -353.8221      -277.39687     -353.78973      0              4706.311       45.819954      20.047001      20.857         19158.253      5828.1201      5359.4173      2931.3955     -365.73885      1167.777       217.71627    
   7586000   253.17288     -355.14456     -280.95662     -355.11125      0              5042.7116      45.503915      20.047001      20.857         19026.111      4647.15        4555.4176      5925.5672     -860.89289      1267.184      -250.76048    
   7586500   253.9476      -356.25129     -281.83633     -356.18458      0              5633.2347      45.686618      20.047001      20.857         19102.502      6364.7976      6535.4794      3999.4273     -459.18201      1110.7554     -162.99943    
   7587000   249.38864     -355.86869     -282.78966     -355.81911      0              5396.8298      45.910879      20.047001      20.857         19196.27       6993.8583      4258.8595      4937.7716     -1125.9735     -725.74123      1200.064     
   7587500   258.46883     -355.24761     -279.50778     -355.20057      0              6647.9412      45.775303      20.047001      20.857         19139.583      9594.4954      2958.9917      7390.3365      926.19468     -653.06929     -1432.2982    
   7588000   247.97397     -354.4878      -281.82331     -354.46717      0              6424.5974      45.659833      20.047001      20.857         19091.303      4286.66        6672.019       8315.1131      185.13484      918.44838     -168.75631    
   7588500   251.69345     -354.70772     -280.95329     -354.70049      0              4779.696       45.884135      20.047001      20.857         19185.088      6925.126       4267.1611      3146.8009     -669.26499     -500.78635     -2207.9848    
   7589000   251.86534     -355.9984      -282.19361     -355.95999      0              4560.9552      45.936072      20.047001      20.857         19206.804      6698.957       3231.8341      3752.0746      1563.6072      953.11298     -286.39107    
   7589500   246.48433     -353.9214      -281.69342     -353.91017      0              4805.1383      45.699354      20.047001      20.857         19107.827      7697.6871      1945.0865      4772.6413      884.19016      565.30076     -1640.3945    
   7590000   255.25531     -356.48655     -281.68838     -356.42998      0              5094.1818      45.603348      20.047001      20.857         19067.685      5466.4424      4815.5077      5000.5954     -250.71795     -150.66983     -514.73148    
   7590500   255.09997     -354.84825     -280.0956      -354.84117      0              6027.0006      45.935931      20.047001      20.857         19206.745      9421.0927      6175.0859      2484.8234      1059.2123      1291.3447     -1837.5578    
   7591000   262.58297     -354.01878     -277.07337     -354.00004      0              4323.8676      45.895181      20.047001      20.857         19189.707      6331.1113      1960.5362      4679.9554     -181.45005      3390.9196      798.4138     
   7591500   258.28933     -356.30203     -280.6148      -356.25861      0              4106.5139      45.669058      20.047001      20.857         19095.16       4437.7428      4468.556       3413.2431     -164.28525      431.8725      -193.73625    
   7592000   261.32105     -357.43796     -280.86233     -357.36496      0              4764.2997      45.640734      20.047001      20.857         19083.317      5306.8842      3982.8927      5003.1221      79.585406     -140.24998      222.6736     
   7592500   257.72998     -353.61561     -278.09229     -353.57324      0              7957.1912      45.584564      20.047001      20.857         19059.832      10833.774      6558.1441      6479.6557     -573.98185      162.46942      77.186527    
   7593000   252.2965      -353.69037     -279.75923     -353.64854      0              2860.2754      45.775478      20.047001      20.857         19139.657      4521.3435      2599.4384      1460.0444      934.75824     -433.45961     -1121.6439    
   7593500   251.09072     -354.06679     -280.48898     -354.05553      0              4750.1619      45.752314      20.047001      20.857         19129.971      6116.9227      2577.5037      5556.0593     -1563.1765     -296.9584      -883.55684    
   7594000   247.37445     -351.52024     -279.03142     -351.47869      0              4222.8159      45.454632      20.047001      20.857         19005.504      4464.4599      4265.9964      3937.9914     -1029.8107     -1384.1076     -2105.678     
   7594500   251.41637     -353.78715     -280.11392     -353.76418      0              6913.8408      45.415891      20.047001      20.857         18989.306      10628.59       5716.1268      4396.8059      689.72238      99.52858      -1548.1907    
   7595000   255.26464     -355.9757      -281.1748      -355.92793      0              4826.0116      45.60278       20.047001      20.857         19067.448      1943.5011      6933.6694      5600.8643     -1068.8084     -862.1329      -1099.3335    
   7595500   246.43691     -358.3692      -286.15511     -358.31018      0              5738.4325      45.799565      20.047001      20.857         19149.728      4355.9818      6543.4632      6315.8526      451.03155     -428.96897     -2123.4817    
   7596000   250.20973     -358.68759     -285.36794     -358.6331       0              4144.5051      45.591566      20.047001      20.857         19062.759      6122.0152      3115.4708      3196.0293     -1306.1657     -852.90664     -923.25458    
   7596500   248.92465     -355.12465     -282.18158     -355.06467      0              5683.4804      45.496321      20.047001      20.857         19022.935      6899.056       4343.6785      5807.7067      740.74114      176.38504      287.00939    
   7597000   258.30899     -352.84679     -277.1538      -352.81357      0              5639.416       45.616529      20.047001      20.857         19073.197      8112.9458      5027.769       3777.5331     -1055.0997     -473.16209      162.44998    
   7597500   253.11205     -356.12908     -281.95896     -356.04246      0              4776.3991      45.569206      20.047001      20.857         19053.41       4031.4343      5451.0033      4846.7597      1312.619      -142.51167      2340.8611    
   7598000   248.39996     -355.98923     -283.1999      -355.9208       0              6201.827       45.624016      20.047001      20.857         19076.327      7570.0655      5412.2516      5623.1639      249.29156     -292.6318      -500.83392    
   7598500   248.04895     -353.44885     -280.76239     -353.40149      0              4257.3239      45.740146      20.047001      20.857         19124.883      3152.0453      5187.9312      4431.9953     -552.08561     -1345.4156     -1051.1029    
   7599000   247.86234     -353.21813     -280.58635     -353.16797      0              4253.9789      45.779631      20.047001      20.857         19141.393      4917.0627      4792.9927      3051.8814      588.40543      479.68011     -676.93508    
   7599500   249.97399     -354.93701     -281.68645     -354.87603      0              2820.3074      45.739232      20.047001      20.857         19124.502      4119.491       3594.5033      746.92787     -232.88124      2352.8831     -161.98851    
   7600000   254.78978     -355.69146     -281.02971     -355.63508      0              4408.202       45.472347      20.047001      20.857         19012.911      6633.8051      1998.8996      4591.9014     -690.61022     -135.33259      508.14973    
   7600500   257.33022     -356.55315     -281.14697     -356.48417      0              5505.729       45.523243      20.047001      20.857         19034.192      6162.8864      5365.0863      4989.2144      210.04258      502.12524      951.27883    
   7601000   252.96992     -356.85326     -282.72479     -356.7892       0              6158.5639      45.828327      20.047001      20.857         19161.754      6346.2287      7566.3899      4563.0733     -801.14729      2404.9481      195.38691    
   7601500   261.96718     -354.69415     -277.92918     -354.66962      0              3831.9798      46.051833      20.047001      20.857         19255.206      4347.4457      3443.615       3704.8786      680.50173      417.96931     -2160.0679    
   7602000   259.20253     -355.34151     -279.38668     -355.32327      0              5749.4973      45.764977      20.047001      20.857         19135.266      5044.3744      7634.7015      4569.4159     -908.88861      1087.9548     -340.46653    
   7602500   255.8398      -356.06367     -281.09423     -356.00481      0              4605.4679      45.377674      20.047001      20.857         18973.327      5598.0334      5633.6148      2584.7555      334.11589     -32.961685     -447.1601     
   7603000   254.93059     -352.54634     -277.84332     -352.53391      0              5497.3265      45.761272      20.047001      20.857         19133.717      5255.7242      4678.1616      6558.0937      1330.9951      1609.0503      1978.2661    
   7603500   250.17206     -355.05735     -281.74874     -355.02274      0              4780.059       45.721678      20.047001      20.857         19117.162      4941.9044      6191.9321      3206.3405      751.34863     -658.52542     -148.96302    
   7604000   251.41598     -355.20287     -281.52976     -355.15836      0              6004.0905      45.680611      20.047001      20.857         19099.991      7109.0519      6630.126       4273.0935      250.84918      1025.6695     -190.06844    
   7604500   253.09515     -353.33012     -279.16495     -353.32935      0              4188.186       45.759152      20.047001      20.857         19132.83       6328.8823      4814.5638      1421.112       1204.2903     -958.94857     -198.70949    
   7605000   256.70574     -355.37531     -280.15212     -355.3636       0              5609.6327      45.570659      20.047001      20.857         19054.018      5284.5609      5784.345       5759.9921     -695.83841     -155.76616      213.62304    
   7605500   252.22236     -357.51289     -283.60348     -357.43286      0              5231.7424      45.591044      20.047001      20.857         19062.541      8118.8384      4427.1064      3149.2825     -443.96178      812.22702     -314.73847    
   7606000   255.69467     -357.28225     -282.35534     -357.20237      0              5820.5135      45.709242      20.047001      20.857         19111.962      8096.432       5326.48        4038.6284      897.48229      987.0185       1944.0138    
   7606500   255.28558     -357.10278     -282.29575     -357.04835      0              7245.1121      45.795892      20.047001      20.857         19148.192      7256.0733      6972.1831      7507.08       -1277.3024     -1307.7612     -960.9535     
   7607000   254.1615      -354.35386     -279.87622     -354.29748      0              8156.4443      45.658374      20.047001      20.857         19090.693      11198.149      6206.9769      7064.2067     -671.50652      33.251463     -1262.1174    
   7607500   259.133       -355.77982     -279.84537     -355.72953      0              3649.4968      45.622376      20.047001      20.857         19075.641      3631.8251      4320.9806      2995.6846      418.9793       536.15132     -706.42523    
   7608000   247.3497      -357.00206     -284.5205      -356.9748       0              4097.7489      45.637718      20.047001      20.857         19082.056      4111.4792      4092.2538      4089.5139     -1636.9204     -326.04522     -725.69252    
   7608500   246.54308     -357.5005      -285.25531     -357.42102      0              5474.6368      45.682889      20.047001      20.857         19100.943      6238.0588      5243.1004      4942.7512      149.28598      1469.565       2073.9017    
   7609000   247.87046     -358.36771     -285.73355     -358.31303      0              4431.0744      45.78443       20.047001      20.857         19143.399      5199.476       4181.189       3912.5581      88.541441      816.5455      -339.71037    
   7609500   257.24816     -356.18721     -280.80508     -356.11499      0              5410.6573      45.387633      20.047001      20.857         18977.491      7994.0771      4183.9848      4053.9099     -932.11999      491.59325      2314.1236    
   7610000   255.58841     -357.35308     -282.45731     -357.31843      0              5109.1873      45.305297      20.047001      20.857         18943.064      6592.9544      4660.1695      4074.4381     -769.05789      1285.4147      328.34208    
   7610500   252.05499     -358.07296     -284.21259     -358.02348      0              3926.6533      45.937054      20.047001      20.857         19207.215      2879.6115      3171.0066      5729.3417     -1536.5781      1828.5308      1679.7044    
   7611000   254.73718     -356.05058     -281.40424     -355.98078      0              4874.2728      45.936137      20.047001      20.857         19206.831      5416.488       4556.8196      4649.5109     -499.63426     -1771.4832      888.54342    
   7611500   255.45269     -355.35855     -280.50255     -355.32587      0              6070.2887      45.765017      20.047001      20.857         19135.283      5780.5817      7323.1183      5107.1661      472.6953      -3070.0928      825.94373    
   7612000   255.76655     -356.22501     -281.27704     -356.14645      0              3617.0626      45.722984      20.047001      20.857         19117.708      4570.1048      3938.9086      2342.1746     -2183.015      -518.25137     -714.23071    
   7612500   247.38858     -355.91466     -283.4217      -355.87065      0              7075.6571      45.659049      20.047001      20.857         19090.975      8229.1496      6747.0066      6250.8152      869.67934      1898.9263     -540.11237    
   7613000   255.56742     -357.87663     -282.98701     -357.85215      0              7729.4584      45.656729      20.047001      20.857         19090.005      7783.766       7221.9216      8182.6876      24.852875     -46.073404     -1373.9982    
   7613500   255.56115     -357.32648     -282.43869     -357.26635      0              5477.7098      45.529504      20.047001      20.857         19036.81       5664.0842      6587.1237      4181.9215     -275.94395      1200.8693     -237.57709    
   7614000   257.47553     -358.47513     -283.02636     -358.40345      0              6994.1996      45.606975      20.047001      20.857         19069.202      7107.2103      6059.0716      7816.3169      1053.3072      640.79955     -123.98742    
   7614500   255.51974     -357.34531     -282.46966     -357.29404      0              4393.2714      45.847515      20.047001      20.857         19169.777      3566.6619      5674.8508      3938.3015     -1099.2617      513.02376     -358.23965    
   7615000   254.49619     -356.61659     -282.04087     -356.56278      0              6096.6652      45.489206      20.047001      20.857         19019.96       10122.107      3032.6339      5135.2547     -653.50812     -628.32236     -1169.2422    
   7615500   253.57599     -356.71987     -282.4138      -356.65765      0              6661.9216      45.444568      20.047001      20.857         19001.296      9095.4976      4758.3083      6131.9588     -1304.5049      124.38943     -1536.3592    
   7616000   250.44929     -356.04564     -282.6558      -355.99015      0              6826.6116      45.805986      20.047001      20.857         19152.412      7674.9884      7242.5608      5562.2856     -1785.5168     -1237.2675      52.272131    
   7616500   256.28787     -357.79538     -282.69465     -357.74884      0              3835.4447      45.876273      20.047001      20.857         19181.801      4492.3135      5019.5651      1994.4554      1045.3438     -321.79884     -382.20257    
   7617000   255.17212     -356.74172     -281.96793     -356.67232      0              5615.1337      45.479588      20.047001      20.857         19015.939      6188.4128      6524.5468      4132.4415      41.082451      1352.2777     -384.92583    
   7617500   248.08821     -356.06888     -283.37091     -356.03444      0              6951.9374      45.370341      20.047001      20.857         18970.26       7930.3217      6287.5933      6637.8972     -684.93108      498.27339      442.88713    
   7618000   255.90433     -356.22132     -281.23297     -356.19603      0              4824.9155      45.774278      20.047001      20.857         19139.155      6290.6008      3038.1649      5145.9809      946.22195      908.92967     -1443.8577    
   7618500   256.47963     -354.57638     -279.41945     -354.54521      0              5904.4733      45.878336      20.047001      20.857         19182.664      7521.0057      4234.5045      5957.9099     -294.22322      1406.853       484.33804    
   7619000   256.63819     -354.79813     -279.59473     -354.73064      0              6300.8433      45.706346      20.047001      20.857         19110.751      6329.244       7090.391       5482.8948      110.59408      823.06855     -491.29766    
   7619500   257.01849     -357.11032     -281.79548     -357.05184      0              5872.0589      45.477235      20.047001      20.857         19014.955      5672.1685      6081.8193      5862.1888     -1143.1638      1218.5283     -1270.2661    
   7620000   250.81504     -355.75364     -282.25662     -355.71378      0              5037.7012      45.797377      20.047001      20.857         19148.813      3450.7737      6905.6437      4756.6863      596.77647     -1172.955       124.01499    
   7620500   256.89809     -357.27165     -281.9921      -357.21707      0              5279.1881      45.985316      20.047001      20.857         19227.394      7451.7328      4334.4196      4051.4121     -1481.9756      812.00799     -794.12942    
   7621000   260.65163     -356.80077     -280.4213      -356.75428      0              5961.8795      45.756484      20.047001      20.857         19131.715      7266.0538      4738.5275      5881.0572      1889.0417      384.57182      1480.2763    
   7621500   252.05464     -355.91098     -282.05071     -355.86783      0              5122.591       45.668706      20.047001      20.857         19095.013      3582.4205      6901.799       4883.5536      1027.4598     -1772.8313     -1103.2908    
   7622000   251.78705     -355.77796     -281.99611     -355.76106      0              5532.3788      45.694         20.047001      20.857         19105.589      6039.1315      4942.5514      5615.4536      80.939985      157.28358      530.70469    
   7622500   255.39903     -357.18432     -282.34404     -357.16364      0              7503.5232      45.576544      20.047001      20.857         19056.478      7515.7536      8260.5815      6734.2345      211.79516     -81.823397     -2014.6237    
   7623000   254.92461     -355.37688     -280.67562     -355.35656      0              4877.0924      45.38068       20.047001      20.857         18974.584      6672.4071      4441.8578      3517.0122     -555.47051      652.14957     -876.53454    
   7623500   255.10149     -356.78925     -282.03616     -356.74323      0              5760.9063      45.610208      20.047001      20.857         19070.554      6054.3185      6706.2298      4522.1707      248.16722      1250.1125      1081.5696    
   7624000   250.14628     -354.28067     -280.97962     -354.26246      0              7529.618       45.674791      20.047001      20.857         19097.557      9207.7858      7673.978       5707.0901      239.66045     -54.821398     -1632.5231    
   7624500   261.90288     -354.50514     -277.75902     -354.4533       0              5693.8086      45.589634      20.047001      20.857         19061.951      4118.3919      7407.399       5555.6349      308.05777     -858.37146     -532.77808    
   7625000   246.84582     -353.67174     -281.33783     -353.63637      0              4860.5277      45.48902       20.047001      20.857         19019.883      4538.9678      3987.4438      6055.1716     -1087.7083     -478.75283      1091.835     
   7625500   257.68737     -354.52344     -279.0126      -354.51401      0              4215.9578      45.699384      20.047001      20.857         19107.84       4983.4654      4460.7368      3203.6711     -242.84204      943.4592      -1309.9412    
   7626000   255.83518     -356.17238     -281.20429     -356.1558       0              6112.1612      45.664481      20.047001      20.857         19093.246      6442.1861      5860.9252      6033.3722      970.85354     -622.7143      -911.44838    
   7626500   262.03916     -355.88284     -279.09678     -355.88586      0              7078.3488      45.454782      20.047001      20.857         19005.567      7639.7529      6493.6364      7101.657      -623.90293      1432.1589     -690.8416     
   7627000   258.76566     -355.68284     -279.85603     -355.68318      0              6621.0164      45.452575      20.047001      20.857         19004.644      9151.2938      5961.0075      4750.7479      1494.7061     -412.63193      402.05362    
   7627500   259.95674     -355.93062     -279.75479     -355.90469      0              6044.018       45.826253      20.047001      20.857         19160.886      6075.7539      5455.4002      6600.9001      1341.0099     -597.6617      -1427.5224    
   7628000   257.86615     -356.24514     -280.68191     -356.23947      0              4418.6241      45.811728      20.047001      20.857         19154.814      6791.5447      1340.0745      5124.2531     -92.354247     -1627.5675     -3517.8417    
   7628500   255.57312     -355.73649     -280.8452      -355.70144      0              4290.0192      45.47798       20.047001      20.857         19015.267      2964.375       4735.412       5170.2708     -266.16747      651.61129     -1219.2978    
   7629000   258.1114      -357.26483     -281.62973     -357.22134      0              6928.0426      45.432227      20.047001      20.857         18996.137      8841.5856      6247.3474      5695.1949      523.80369      1617.0779     -1280.4556    
   7629500   256.50366     -358.59417     -283.4302      -358.54886      0              4131.6385      45.814892      20.047001      20.857         19156.137      5897.1355      2708.0555      3789.7245     -502.58733      547.29807     -168.60629    
   7630000   248.93304     -353.9625      -281.01697     -353.92542      0              4174.6746      45.817321      20.047001      20.857         19157.152      2147.6781      5185.471       5190.8748      134.57416      488.69137     -484.38065    
   7630500   252.02628     -355.78229     -281.93034     -355.73663      0              7587.8243      45.583084      20.047001      20.857         19059.213      8728.6867      6809.6047      7225.1815      659.17498     -1139.8918      2115.5018    
   7631000   248.45327     -355.45692     -282.65198     -355.44342      0              5298.5145      45.609998      20.047001      20.857         19070.466      6987.6741      3390.6719      5517.1976      764.98273     -1259.1969      263.88582    
   7631500   253.51737     -357.07949     -282.7906      -357.05801      0              5270.7923      45.547962      20.047001      20.857         19044.528      6857.7736      5427.9605      3526.6427      1330.2127     -40.598461     -100.06003    
   7632000   258.67561     -356.62488     -280.82446     -356.60586      0              6922.7847      45.578695      20.047001      20.857         19057.378      7452.5049      7223.5103      6092.3389      1260.2468     -473.36677      566.23095    
   7632500   260.34823     -357.01463     -280.72407     -356.96387      0              5838.059       45.548033      20.047001      20.857         19044.557      4520.29        7319.056       5674.8311     -1541.6188      2271.6443      1709.5285    
   7633000   259.26088     -357.79339     -281.82146     -357.71895      0              7052.0213      45.440788      20.047001      20.857         18999.716      6947.148       7373.6105      6835.3056      112.80139      899.49053      1336.4806    
   7633500   255.91265     -355.15716     -280.16637     -355.10982      0              5587.0437      45.677734      20.047001      20.857         19098.788      7193.0797      5324.986       4243.0653      508.79465      1013.2724      1739.146     
   7634000   255.99265     -354.32342     -279.30919     -354.26724      0              2655.0407      45.646723      20.047001      20.857         19085.821      4189.4732      2514.0953      1261.5536     -735.68158     -3033.0408     -739.30686    
   7634500   260.04337     -356.54443     -280.3432      -356.51458      0              5063.3919      45.613023      20.047001      20.857         19071.731      5396.9196      4573.4236      5219.8324     -262.51149      1857.1103      1611.6828    
   7635000   250.56083     -356.83197     -283.40944     -356.78725      0              5253.5351      45.732193      20.047001      20.857         19121.558      4765.2729      6169.4537      4825.8788     -970.85362      583.55828     -2799.0716    
   7635500   259.17449     -356.76882     -280.82221     -356.71299      0              5949.58        45.593249      20.047001      20.857         19063.463      8721.3482      4136.1179      4991.2738      69.796133     -458.03298     -343.2251     
   7636000   249.24289     -355.68292     -282.64659     -355.62871      0              4619.0002      45.514292      20.047001      20.857         19030.449      5987.5828      3184.1776      4685.2402      424.02485     -978.75617      813.02659    
   7636500   249.00558     -358.15457     -285.18778     -358.13031      0              4024.1239      45.670855      20.047001      20.857         19095.912      4880.8722      3247.7396      3943.7597     -673.56401      1054.7635     -643.38847    
   7637000   252.8128      -356.14962     -282.06719     -356.13502      0              4524.208       45.57417       20.047001      20.857         19055.485      6754.937       3781.4601      3036.2267      184.1223       1687.23        1921.2913    
   7637500   255.5792      -355.97344     -281.08037     -355.94543      0              7509.2568      45.5435        20.047001      20.857         19042.662      7620.5336      6294.2793      8612.9575     -822.76181     -1651.9945     -1214.8391    
   7638000   259.43044     -355.53337     -279.51176     -355.48885      0              3758.4151      45.770014      20.047001      20.857         19137.372      3063.9867      6033.8109      2177.4478     -359.26658     -483.17497     -916.13669    
   7638500   258.00003     -356.81694     -281.21448     -356.76264      0              4953.5107      45.837898      20.047001      20.857         19165.756      5701.9631      5443.3307      3715.2383      1103.5708     -894.63368     -306.21633    
   7639000   258.69867     -357.54547     -281.73829     -357.53271      0              5742.1737      46.016163      20.047001      20.857         19240.292      6041.2241      4975.9445      6209.3525     -686.53765     -727.69298     -117.39498    
   7639500   257.34155     -357.0852      -281.6757      -357.06617      0              5707.772       45.979859      20.047001      20.857         19225.113      6777.0443      3960.7737      6385.4981      1149.36       -785.36174     -2545.9265    
   7640000   256.09822     -356.18839     -281.14322     -356.16628      0              4564.4211      45.759452      20.047001      20.857         19132.956      5100.6149      5869.4496      2723.199      -315.28089      312.52178      559.24763    
   7640500   253.99909     -354.52922     -280.09916     -354.52582      0              4645.3353      45.838118      20.047001      20.857         19165.848      5166.7465      3330.1406      5439.1187      1066.3935     -703.50123      164.79119    
   7641000   253.17039     -354.96466     -280.77744     -354.96044      0              5597.4607      46.080456      20.047001      20.857         19267.174      4192.0948      7467.2148      5133.0726     -570.92643      401.37632     -953.27536    
   7641500   250.39344     -352.28577     -278.91229     -352.24563      0              5682.5542      46.002005      20.047001      20.857         19234.372      5315.7768      4842.5357      6889.3502      154.66714     -771.40542     -314.77038    
   7642000   249.39907     -354.47909     -281.39699     -354.46937      0              4497.3428      45.872037      20.047001      20.857         19180.03       4958.0738      5226.9788      3306.9759      592.14135      320.47765     -768.75951    
   7642500   255.77407     -355.13653     -280.18635     -355.09109      0              5661.4793      45.684211      20.047001      20.857         19101.496      8830.9788      3162.142       4991.317      -1487.8137     -1106.0348      1035.4747    
   7643000   259.44752     -356.5858      -280.55918     -356.54685      0              5595.921       45.849888      20.047001      20.857         19170.769      5965.5004      5558.8051      5263.4575     -1014.8309      548.1497      -399.42411    
   7643500   253.59006     -354.5779      -280.26771     -354.56367      0              5229.1303      46.140724      20.047001      20.857         19292.373      7399.0352      4102.926       4185.4298      1117.5378     -201.02198      712.7483     
   7644000   253.22501     -350.51145     -276.30823     -350.49346      0              4603.6156      45.990119      20.047001      20.857         19229.402      3551.4572      4555.7723      5703.6173     -876.65894      1012.0924      16.400621    
   7644500   254.15341     -353.40664     -278.93137     -353.35534      0              7924.8005      45.554698      20.047001      20.857         19047.344      8313.7579      7125.8993      8334.7444      55.703918     -1086.4         661.45199    
   7645000   261.03818     -354.59145     -278.09871     -354.56188      0              6423.6246      45.539285      20.047001      20.857         19040.9        6737.5403      6391.7428      6141.5908      797.03306      383.77065     -1655.3013    
   7645500   256.80982     -357.73599     -282.48231     -357.69111      0              3495.0514      45.8927        20.047001      20.857         19188.67       3190.1907      4725.7852      2569.1783     -318.76349     -1169.3697      602.46437    
   7646000   257.0715      -355.55212     -280.22175     -355.49288      0              4894.8416      45.93099       20.047001      20.857         19204.679      6793.8504      3347.6927      4542.9817      156.16657      989.61733     -1475.5187    
   7646500   252.21412     -355.09586     -281.18886     -355.04584      0              6976.1881      45.788197      20.047001      20.857         19144.975      6915.5826      9107.9908      4904.9908      886.13566      148.40018      191.31349    
   7647000   255.71329     -357.05124     -282.11887     -356.97693      0              6413.6212      45.524314      20.047001      20.857         19034.64       7268.9281      6148.3944      5823.5412      1207.2465     -864.18447     -2662.7133    
   7647500   255.53875     -356.10738     -281.22615     -356.05463      0              5465.1509      45.769409      20.047001      20.857         19137.119      7526.2479      5437.6754      3431.5294     -1106.8397      1209.9083      1254.3639    
   7648000   250.69118     -354.21412     -280.75339     -354.1699       0              5877.6312      45.939776      20.047001      20.857         19208.353      4073.8366      7001.9925      6557.0646      1376.6672      1764.8225     -212.72272    
   7648500   252.80348     -353.71831     -279.63861     -353.63895      0              5728.0202      45.761107      20.047001      20.857         19133.648      6805.2815      6218.3343      4160.4446     -301.05932     -893.53995      88.999826    
   7649000   247.84891     -353.79446     -281.16661     -353.74422      0              3885.5827      45.493913      20.047001      20.857         19021.929      4140.7555      3047.3668      4468.6257     -1901.8528     -161.10282      1108.8913    
   7649500   258.12776     -354.94264     -279.30276     -354.91356      0              3973.224       45.727628      20.047001      20.857         19119.649      4465.9137      4423.5514      3030.2069      1438.3531      921.73757     -1622.2676    
   7650000   247.01677     -356.27484     -283.89084     -356.19409      0              5625.2446      45.845303      20.047001      20.857         19168.852      6160.8854      3908.7409      6806.1076     -1257.8602     -645.6347       795.39813    
   7650500   248.77505     -356.79718     -283.89794     -356.7448       0              4636.1537      45.672188      20.047001      20.857         19096.469      7210.0804      3465.5271      3232.8536     -392.89947      1707.9977     -304.2134     
   7651000   245.57178     -353.68228     -281.72171     -353.61758      0              4425.3631      45.707264      20.047001      20.857         19111.135      5213.956       2422.9608      5639.1724      1432.2252     -1651.9768      1693.0793    
   7651500   258.29757     -354.79965     -279.11        -354.78292      0              3612.8919      45.848747      20.047001      20.857         19170.292      5981.0615      1402.8026      3454.8115     -1115.4354     -870.17928      1784.4284    
   7652000   261.73403     -355.26581     -278.56917     -355.23741      0              6115.2447      45.632034      20.047001      20.857         19079.68       6853.6873      6634.3777      4857.669       894.31705      1247.3785      1205.0927    
   7652500   256.13551     -356.53549     -281.4794      -356.48403      0              4375.8883      45.674401      20.047001      20.857         19097.394      3772.2702      4883.7372      4471.6576     -151.72822      1071.7115     -1519.2407    
   7653000   251.90962     -355.49966     -281.68189     -355.43582      0              6792.3352      45.60416       20.047001      20.857         19068.025      7707.0844      5987.7228      6682.1985      2164.002       529.29054      246.04563    
   7653500   262.46233     -356.11375     -279.2037      -356.05268      0              5340.6887      45.474684      20.047001      20.857         19013.888      7053.6902      3072.1613      5896.2145     -42.239775      1078.2097      1733.9415    
   7654000   249.5227      -356.78185     -283.66352     -356.72568      0              5017.7546      45.666056      20.047001      20.857         19093.905      5834.4104      2314.9804      6903.8729      289.93274      773.29386      263.25267    
   7654500   257.00479     -357.62572     -282.3149      -357.59531      0              5292.0445      46.007737      20.047001      20.857         19236.769      5842.1605      6591.4872      3442.4859      4.1579285      174.74974     -984.78127    
   7655000   258.16707     -355.74417     -280.09276     -355.71627      0              4540.3406      45.912615      20.047001      20.857         19196.996      4168.0304      5052.1718      4400.8197     -1349.8055     -319.33078      710.24474    
   7655500   253.48741     -354.53777     -280.25766     -354.49053      0              5437.1556      45.572147      20.047001      20.857         19054.64       7491.2662      4192.5628      4627.6379      1250.9291     -620.37268      78.112543    
   7656000   258.91604     -355.92472     -280.05384     -355.90578      0              4442.9068      45.443033      20.047001      20.857         19000.655      3791.3951      4854.9649      4682.3605      1467.1556     -285.25735     -1461.8314    
   7656500   269.53489     -355.90015     -276.9176      -355.86834      0              7329.0152      45.690047      20.047001      20.857         19103.936      9463.559       5675.9084      6847.5781     -136.48038      2751.9572     -652.38926    
   7657000   252.99988     -353.53681     -279.39956     -353.54604      0              5339.7309      46.192061      20.047001      20.857         19313.838      4807.5623      4168.0838      7043.5464     -844.17609     -1555.6274     -424.17783    
   7657500   255.76796     -355.69944     -280.75106     -355.70183      0              2732.9198      45.932743      20.047001      20.857         19205.412      4842.3898      2656.4105      699.95907      694.439       -88.096938      1589.808     
   7658000   247.23701     -357.34154     -284.893       -357.33019      0              5784.1697      45.636338      20.047001      20.857         19081.48       7009.6882      5304.7743      5038.0465      1610.0306      811.11462      953.36289    
   7658500   255.00063     -355.76886     -281.04532     -355.76191      0              4307.9044      45.723082      20.047001      20.857         19117.749      4857.2739      4911.041       3155.3982      990.78076      161.88506     -2401.4102    
   7659000   252.95869     -353.19689     -279.07171     -353.15805      0              4661.5295      45.761205      20.047001      20.857         19133.689      5918.1533      4605.1987      3461.2367      1702.7046     -161.21729      192.11568    
   7659500   263.77491     -354.78683     -277.49215     -354.71465      0              3838.6584      45.778365      20.047001      20.857         19140.864      4987.4476      4329.4251      2199.1026     -298.86524     -561.51144      180.90067    
   7660000   253.86322     -354.19541     -279.80517     -354.14085      0              5493.1661      45.783399      20.047001      20.857         19142.969      4754.3594      6972.6912      4752.4479      413.12618     -240.48514      1806.0052    
   7660500   248.80663     -353.7037      -280.79521     -353.63069      0              6220.7778      45.680483      20.047001      20.857         19099.937      6386.4929      6050.9073      6224.9333      547.08548     -1314.3776     -592.28802    
   7661000   258.70064     -355.39294     -279.58518     -355.35521      0              5332.7697      45.532281      20.047001      20.857         19037.971      7873.0643      5549.3134      2575.9314      260.65438     -253.08302      68.542408    
   7661500   257.02193     -352.66478     -277.34894     -352.62936      0              4483.485       45.564049      20.047001      20.857         19051.254      5041.5674      4509.521       3899.3667      346.41029     -647.54305     -205.45737    
   7662000   258.3069      -355.68907     -279.99669     -355.6541       0              5792.8149      45.556098      20.047001      20.857         19047.929      8928.159       3478.0775      4972.2082      512.24084      633.87293      37.547898    
   7662500   255.20262     -354.00233     -279.2196      -353.95931      0              4813.7009      45.622191      20.047001      20.857         19075.564      4190.9002      4943.5584      5306.644      -852.86406     -1722.7161      499.50429    
   7663000   258.55108     -355.90041     -280.13648     -355.82636      0              6631.0751      45.654705      20.047001      20.857         19089.159      5504.5039      5836.2551      8552.4664     -1918.4953      617.08149      338.90068    
   7663500   254.90805     -354.09711     -279.40071     -354.02038      0              5378.7295      45.580152      20.047001      20.857         19057.987      6282.5394      6210.3188      3643.3302      726.7486      -2334.2595      339.98923    
   7664000   255.32596     -354.89076     -280.07189     -354.82541      0              6675.1876      45.535311      20.047001      20.857         19039.238      6804.4795      7048.9253      6172.1581      217.59443     -1835.8258      852.3334     
   7664500   251.0669      -354.62456     -281.05374     -354.56323      0              5118.5208      45.696863      20.047001      20.857         19106.786      4794.5835      5472.6023      5088.3768      1015.1794     -1110.4602     -146.89942    
   7665000   251.71741     -355.41107     -281.64962     -355.32886      0              7023.6409      45.75733       20.047001      20.857         19132.068      9419.675       4804.5682      6846.6796     -828.17534      1643.8406      817.61153    
[...]
  11291500   260.27084     -352.66028     -276.3924      -352.62882      0              6085.4395      45.525128      20.047001      20.857         19034.98       7557.5324      4978.7385      5720.0476     -120.8765      -875.12361     -96.518431    
  11292000   257.45819     -352.58715     -277.14347     -352.55249      0              4418.1474      45.645226      20.047001      20.857         19085.195      3567.8043      6169.4027      3517.2353     -728.51723     -1482.6274     -63.13288     
  11292500   260.04368     -356.66604     -280.46473     -356.62838      0              3001.8024      45.854227      20.047001      20.857         19172.583      2593.5269      2375.516       4036.3642     -1456.2633     -1894.7292      301.65581    
  11293000   264.43815     -357.75221     -280.26317     -357.71689      0              4560.0555      45.585366      20.047001      20.857         19060.167      4022.6061      6277.3761      3380.1844     -418.41086     -847.38446      576.80775    
  11293500   257.47363     -354.80855     -279.36035     -354.77353      0              5842.2324      45.547605      20.047001      20.857         19044.378      8261.0709      3795.703       5469.9233      968.83495     -2181.1017     -167.28121    
  11294000   257.24422     -356.56657     -281.18559     -356.51564      0              5654.3213      45.666346      20.047001      20.857         19094.026      6811.0965      4000.4618      6151.4057     -610.62276      992.60516      1112.8214    
  11294500   255.27726     -352.5648      -277.7602      -352.5278       0              3961.0343      45.766861      20.047001      20.857         19136.054      6317.9089      2109.3493      3455.8447     -1231.6385     -950.36016      242.95931    
  11295000   259.20514     -353.90771     -277.95211     -353.87425      0              6946.8407      45.723473      20.047001      20.857         19117.912      7270.5185      6291.3423      7278.6614      53.51027      -1201.4891     -1532.075     
  11295500   264.51056     -355.31491     -277.80466     -355.27398      0              5927.1043      45.492289      20.047001      20.857         19021.25       8393.9329      5254.8283      4132.5517      1991.2311      1188.6606      2662.4874    
  11296000   250.68288     -355.30808     -281.84979     -355.2764       0              7132.8343      45.544863      20.047001      20.857         19043.232      9951.3625      7473.7966      3973.3438      475.09202     -1317.5492     -757.90063    
  11296500   250.41228     -354.65806     -281.27906     -354.61287      0              4234.1788      45.676483      20.047001      20.857         19098.265      8011.0181      910.00506      3781.5132     -1319.0605      547.4228       996.72563    
  11297000   254.61436     -354.82896     -280.21862     -354.79881      0              5154.8969      45.793003      20.047001      20.857         19146.984      6170.948       5537.1285      3756.6142      934.67514     -2390.3372      122.20656    
  11297500   253.80461     -357.22396     -282.8509      -357.17692      0              7110.8401      45.648184      20.047001      20.857         19086.432      8013.2188      8840.9743      4478.3273     -467.66655      1834.0988      628.18025    
  11298000   249.95258     -358.34892     -285.10463     -358.29795      0              5549.5328      45.437374      20.047001      20.857         18998.288      7481.4311      4139.2732      5027.894       14.634466     -788.07993      95.774717    
  11298500   255.71739     -356.84952     -281.91595     -356.80723      0              4032.675       45.592371      20.047001      20.857         19063.096      3282.0068      5696.291       3119.7273     -1203.3689      1447.6751      3732.1143    
  11299000   259.86972     -354.53295     -278.38261     -354.50164      0              6991.7078      45.724894      20.047001      20.857         19118.506      6122.8906      6555.2851      8296.9478     -41.997581     -684.74026      411.12573    
  11299500   261.03959     -357.16365     -280.6705      -357.12266      0              5256.0472      45.639108      20.047001      20.857         19082.637      4893.5603      4832.5898      6041.9915      889.79643      376.45592     -1524.22      
  11300000   260.4086      -355.8248      -279.51655     -355.77898      0              5279.6634      45.632831      20.047001      20.857         19080.013      7906.5502      2723.9834      5208.4565     -588.63349      327.12638      256.78972    
  11300500   260.98561     -353.95032     -277.47299     -353.91641      0              5240.4274      45.76405       20.047001      20.857         19134.878      6405.4238      4055.3857      5260.4728      1929.9603      1210.1002      81.13008     
  11301000   260.14169     -353.80783     -277.57779     -353.77464      0              5448.1044      45.91129       20.047001      20.857         19196.442      5432.7261      5929.0743      4982.5129     -1514.1005     -579.86159     -690.61449    
  11301500   255.41335     -351.95372     -277.10925     -351.91655      0              6606.2061      45.535668      20.047001      20.857         19039.387      7307.3511      7074.8524      5436.4148     -378.54546     -1436.1267      905.71123    
  11302000   257.22597     -353.36445     -277.98882     -353.31357      0              6079.2946      45.296353      20.047001      20.857         18939.325      7027.2326      6864.7571      4345.8942      194.52185      1100.5493     -418.99677    
  11302500   252.16788     -357.61677     -283.72332     -357.56728      0              5329.3422      45.608408      20.047001      20.857         19069.801      7038.1418      4875.3817      4074.5031      76.423609     -618.93975      961.65172    
  11303000   252.60642     -355.72666     -281.7047      -355.68015      0              6266.9659      45.765118      20.047001      20.857         19135.325      6930.8644      5919.6238      5950.4095      52.220262     -1408.2511     -1271.5815    
  11303500   254.23686     -355.40597     -280.90624     -355.36395      0              5693.0115      45.711937      20.047001      20.857         19113.089      8035.6335      6247.1631      2796.2378      390.06054      200.31835      651.13615    
  11304000   251.08173     -356.20492     -282.62975     -356.185        0              5515.7335      45.406809      20.047001      20.857         18985.508      9240.1468      3492.477       3814.5768      631.48106      312.43943      102.60829    
  11304500   253.97064     -354.3538      -279.93208     -354.33451      0              6659.9808      45.367677      20.047001      20.857         18969.147      12001.326      3520.3127      4458.3034     -349.57848      46.426219     -436.1588     
  11305000   250.45274     -352.77443     -279.38357     -352.7618       0              5044.7887      45.833897      20.047001      20.857         19164.083      6864.5142      4974.4253      3295.4266      263.45924     -341.10685      812.88569    
  11305500   263.48966     -354.56679     -277.35569     -354.52825      0              6410.9352      45.777716      20.047001      20.857         19140.592      7020.4919      5564.8018      6647.5119      522.01676     -842.04498     -1030.3019    
  11306000   259.01688     -356.33522     -280.43479     -356.28538      0              4200.799       45.51519       20.047001      20.857         19030.825      4930.0821      4142.7526      3529.5622      1189.346       65.661418     -1213.8438    
  11306500   261.97121     -353.8671      -277.10095     -353.84075      0              5628.2399      45.434001      20.047001      20.857         18996.878      5383.0006      8794.9443      2706.7749      41.939806     -500.84248     -828.95693    
  11307000   256.04066     -356.26148     -281.23319     -356.2303       0              5028.5         45.821576      20.047001      20.857         19158.931      3545.9459      6101.1995      5438.3547     -271.81512     -770.32031     -2072.823     
  11307500   255.74283     -354.82374     -279.88271     -354.78814      0              6334.6009      45.683317      20.047001      20.857         19101.122      4127.9711      6649.1098      8226.7216      154.16848      1652.6249      351.811      
  11308000   250.44548     -352.30874     -278.92001     -352.27554      0              7647.9343      45.206595      20.047001      20.857         18901.795      8046.7622      8052.7485      6844.2922      2982.0134     -523.8204      -533.25006    
  11308500   254.66437     -354.40718     -279.78218     -354.36073      0              5989.1246      45.410974      20.047001      20.857         18987.25       7651.0068      7481.8833      2834.4836      586.30273     -770.47791      365.40467    
  11309000   252.33215     -354.66748     -280.72589     -354.62084      0              5736.6946      45.752667      20.047001      20.857         19130.119      5990.6397      5848.6374      5370.8067     -52.383734     -385.36993     -359.36827    
  11309500   251.17701     -350.92552     -277.32243     -350.89166      0              2978.176       45.69469       20.047001      20.857         19105.878      4354.6715      1918.7535      2661.1031      2048.1484      223.56969      423.29036    
  11310000   256.51784     -356.44661     -281.27848     -356.4006       0              6561.4513      45.599536      20.047001      20.857         19066.092      4204.4983      7548.7941      7931.0613     -915.36121      969.91083     -424.02664    
  11310500   252.37762     -353.31455     -279.35964     -353.28108      0              3960.6825      45.484128      20.047001      20.857         19017.837      6487.5766      2920.0303      2474.4406     -89.070978      440.50163      247.59763    
  11311000   254.59226     -355.60754     -281.00367     -355.56819      0              4666.2183      45.520502      20.047001      20.857         19033.046      4887.1856      6180.779       2930.6904      163.34118     -906.43478     -1000.5461    
  11311500   247.66657     -356.29707     -283.72265     -356.28239      0              4419.0173      45.73363       20.047001      20.857         19122.159      5177.4225      3513.3478      4566.2816     -1735.9444      159.25372     -8.9597492    
  11312000   249.45452     -354.10659     -281.00825     -354.08361      0              5191.1878      45.491747      20.047001      20.857         19021.023      6010.1467      3946.5885      5616.8281      910.49725      267.70896     -899.71154    
  11312500   253.53565     -353.33008     -279.03583     -353.29359      0              5208.9855      45.468024      20.047001      20.857         19011.104      8209.5886      4018.8781      3398.4898      1163.9878      600.68979      1802.5441    
  11313000   254.38726     -357.83238     -283.28859     -357.79704      0              3560.3017      45.848725      20.047001      20.857         19170.283      4138.8594      2677.7656      3864.2802     -386.37809     -121.87406      411.74821    
  11313500   253.94036     -357.18127     -282.76843     -357.1314       0              6339.1438      45.826594      20.047001      20.857         19161.029      6862.3038      7523.8574      4631.2703     -972.8458      -42.744461     -2622.7354    
  11314000   257.68567     -357.59217     -282.08183     -357.55769      0              3816.5002      45.418564      20.047001      20.857         18990.424      5322.2883      3326.9979      2800.2144      40.175437     -1760.5489      910.3124     
  11314500   250.94658     -356.1597      -282.62414     -356.14321      0              5774.2752      45.326652      20.047001      20.857         18951.993      5990.0625      5522.6749      5810.0883      1650.2552      1157.2934     -362.24553    
  11315000   252.11244     -356.43001     -282.55281     -356.42441      0              4341.8109      45.61534       20.047001      20.857         19072.7        6302.8786      3154.3278      3568.2262      452.29405     -2091.0281     -377.1527     
  11315500   254.34403     -354.64601     -280.11488     -354.61419      0              3809.9616      45.743873      20.047001      20.857         19126.442      4337.2547      5594.2443      1498.3857     -199.09665     -255.85152      2133.1585    
  11316000   249.26674     -355.21044     -282.16712     -355.17696      0              6423.3525      45.85219       20.047001      20.857         19171.732      9293.3171      3406.8888      6569.8516     -1044.0791      478.23882     -675.43966    
  11316500   259.92709     -355.18138     -279.01423     -355.12727      0              4877.7199      45.728566      20.047001      20.857         19120.042      6516.6243      3700.4843      4416.0511      1612.0219      1574.7424     -1348.0269    
  11317000   257.15678     -356.4107      -281.05534     -356.38947      0              5252.3491      45.633181      20.047001      20.857         19080.16       7352.1573      4229.107       4175.7831      1024.2091      898.90749      1504.9641    
  11317500   253.36301     -353.34737     -279.10371     -353.31589      0              5881.1884      45.512063      20.047001      20.857         19029.517      6602.1114      6054.9459      4986.5079      84.214929     -1893.7513      1451.766     
  11318000   247.39277     -351.78189     -279.2877      -351.73657      0              5278.3488      45.396385      20.047001      20.857         18981.15       5942.052       7091.9192      2801.0751      643.90708     -265.25409     -1418.5954    
  11318500   258.54678     -354.19609     -278.43341     -354.14508      0              6612.5795      45.622968      20.047001      20.857         19075.889      7487.583       6323.9013      6026.254       549.90247     -1827.4097     -68.769326    
  11319000   257.62712     -354.43306     -278.93988     -354.39179      0              5847.1269      45.87448       20.047001      20.857         19181.051      6289.1495      6053.1609      5199.0702      1485.9389     -45.313716      570.01316    
  11319500   264.15491     -354.22327     -276.81723     -354.18658      0              5970.7321      45.591044      20.047001      20.857         19062.541      5022.5658      7647.427       5242.2035     -951.2725       821.0363      -194.47269    
  11320000   261.58191     -355.99257     -279.3405      -355.96818      0              5510.4222      45.621903      20.047001      20.857         19075.444      4581.446       7111.8329      4837.9876     -655.32931     -544.12681     -1443.4006    
  11320500   260.44654     -355.97475     -279.65539     -355.93126      0              2829.4043      45.75003       20.047001      20.857         19129.016      4708.935       3209.4099      569.8681       775.1199      -575.60889      1212.4077    
  11321000   246.49554     -355.73444     -283.50318     -355.7017       0              2760.7189      45.597504      20.047001      20.857         19065.242      2225.2779      3825.4995      2231.3791     -638.11559      2432.2306     -910.79477    
  11321500   255.42134     -355.63374     -280.78692     -355.59932      0              4510.4931      45.573289      20.047001      20.857         19055.117      3961.0038      5620.7465      3949.7292      385.82988      142.02314     -220.19565    
  11322000   258.25226     -356.73654     -281.06017     -356.68776      0              3711.34        45.800457      20.047001      20.857         19150.101      6711.8757      3559.3352      862.80925     -940.24356      1755.6524     -65.52683     
  11322500   254.28892     -357.10473     -282.58975     -357.06039      0              6134.6122      45.926686      20.047001      20.857         19202.88       4833.2344      6153.743       7416.8592      12.573191      1302.6028      602.00009    
  11323000   251.33603     -356.90715     -283.25746     -356.85537      0              4659.359       45.584398      20.047001      20.857         19059.762      4813.6754      3127.4937      6036.9078     -29.401215     -420.22627     -158.54534    
  11323500   251.25155     -355.8866      -282.26167     -355.84542      0              6242.7625      45.543141      20.047001      20.857         19042.512      6883.3949      4799.3423      7045.5504     -1225.4546     -506.03552     -698.646      
  11324000   256.42634     -358.57761     -283.43629     -358.54884      0              5431.2761      45.523456      20.047001      20.857         19034.281      7879.294       3715.1225      4699.4117      1056.2786     -1557.4956     -115.72345    
  11324500   254.14796     -356.19298     -281.7193      -356.17227      0              5487.8096      45.51376       20.047001      20.857         19030.227      5676.6098      5878.3209      4908.498       356.99647     -143.24452     -1288.3575    
  11325000   257.88474     -358.41502     -282.84634     -358.36693      0              5921.3781      45.624746      20.047001      20.857         19076.633      6396.4027      6460.0011      4907.7306      215.9515      -1192.1567      792.07729    
  11325500   250.03357     -353.80527     -280.53725     -353.76897      0              6198.4335      45.683586      20.047001      20.857         19101.235      5855.1614      5828.3514      6911.7876     -2248.4801      350.44366     -194.96966    
  11326000   250.81942     -356.76409     -283.26578     -356.73077      0              5712.6006      45.626357      20.047001      20.857         19077.306      6336.7439      5971.8508      4829.2072      103.90736      218.51353      946.99167    
  11326500   254.6318      -358.6815      -284.06605     -358.65076      0              5932.1252      45.473904      20.047001      20.857         19013.563      6576.3502      6190.7659      5029.2596      118.0785       1509.943      -664.88533    
  11327000   257.74798     -357.80498     -282.27638     -357.77378      0              5684.8252      45.556171      20.047001      20.857         19047.96       7178.7324      5650.3548      4225.3885      938.82948     -1164.912       972.22347    
WARNING: Wall time limit reached (../timer.cpp:193)
Loop time of 85799 on 4 procs for 3808000 steps with 2268 atoms

Performance: 1.917 ns/day, 12.517 hours/ns, 44.383 timesteps/s
971.5% CPU use with 4 MPI tasks x no OpenMP threads

MPI task timing breakdown:
Section |  min time  |  avg time  |  max time  |%varavg| %total
---------------------------------------------------------------
Pair    | 47933      | 48312      | 48507      | 101.4 | 56.31
Bond    | 0.39504    | 0.43121    | 0.51217    |   7.2 |  0.00
Neigh   | 1243       | 1275.3     | 1300.6     |  60.5 |  1.49
Comm    | 4943.1     | 5112.5     | 5455.6     | 290.6 |  5.96
Output  | 954.01     | 954.03     | 954.12     |   0.2 |  1.11
Modify  | 30030      | 30134      | 30220      |  46.0 | 35.12
Other   |            | 11         |            |       |  0.01

Nlocal:            567 ave         584 max         553 min
Histogram: 2 0 0 0 0 0 0 1 0 1
Nghost:           3786 ave        3850 max        3722 min
Histogram: 2 0 0 0 0 0 0 0 0 2
Neighs:              0 ave           0 max           0 min
Histogram: 4 0 0 0 0 0 0 0 0 0
FullNghs:       144601 ave      149495 max      139954 min
Histogram: 1 1 0 0 0 0 0 0 1 1

Total # of neighbors = 578404
Ave neighs/atom = 255.02822
Ave special neighs/atom = 0
Neighbor list builds = 380800
Dangerous builds not checked

unfix		4
unfix		3
unfix		1

write_data	data.final.${pid}
write_data	data.final.0
System init for write_data ...
Generated 0 of 1 mixed pair_coeff terms from geometric mixing rule
write_restart	restart.lmp.${pid}
write_restart	restart.lmp.0
System init for write_restart ...
Generated 0 of 1 mixed pair_coeff terms from geometric mixing rule
Total wall time: 23:50:19
