LAMMPS (23 Jun 2022)
echo both

include		in.partitions
variable        pid world 0
include		in.temp
variable	temperature equal 255.0
variable        tempDamp equal 0.100 # this is 0.1 ps
include		in.pressure
variable        pressure equal 6079.5
variable        pressureDamp equal 1.0 #this is 1ps
include		in.seed
variable        seed world 745823

units           metal
atom_style	full
read_restart	restart.lmp.${pid}
read_restart	restart.lmp.0
Reading restart file ...
  restart file = 23 Jun 2022, LAMMPS = 23 Jun 2022
  restoring atom style full from restart
  orthogonal box = (0.85871833 0 0) to (46.591981 20.047001 20.857)
  4 by 1 by 1 MPI processor grid
Summary of lammps deepmd module ...
  >>> Info of deepmd-kit:
  installed to:       /u/sigbjobo/software/DEEPMD_FROM_SOURCE/deepmd-kit/install
  source:             v2.1.3
  source branch:       master
  source commit:      5a32c49
  source commit at:   2022-07-01 09:52:58 +0800
  surpport model ver.:1.1 
  build float prec:   double
  build with tf inc:  /u/sigbjobo/software/DEEPMD_FROM_SOURCE/tensorflow/install/include;/u/sigbjobo/software/DEEPMD_FROM_SOURCE/tensorflow/install/include
  build with tf lib:  /u/sigbjobo/software/DEEPMD_FROM_SOURCE/tensorflow/install/lib/libtensorflow_cc.so;/u/sigbjobo/software/DEEPMD_FROM_SOURCE/tensorflow/install/lib/libtensorflow_framework.so
  set tf intra_op_parallelism_threads: 0
  set tf inter_op_parallelism_threads: 0
  >>> Info of lammps module:
  use deepmd-kit at:  /u/sigbjobo/software/DEEPMD_FROM_SOURCE/deepmd-kit/install
  source:             v2.1.3
  source branch:      master
  source commit:      5a32c49
  source commit at:   2022-07-01 09:52:58 +0800
  build float prec:   double
  build with tf inc:  /u/sigbjobo/software/DEEPMD_FROM_SOURCE/tensorflow/install/include;/u/sigbjobo/software/DEEPMD_FROM_SOURCE/tensorflow/install/include
  build with tf lib:  /u/sigbjobo/software/DEEPMD_FROM_SOURCE/tensorflow/install/lib/libtensorflow_cc.so;/u/sigbjobo/software/DEEPMD_FROM_SOURCE/tensorflow/install/lib/libtensorflow_framework.so
  restoring pair style deepmd from restart
  2268 atoms
Finding 1-2 1-3 1-4 neighbors ...
  special bond factors lj:    0        0        0       
  special bond factors coul:  0        0        0       
     0 = max # of 1-2 neighbors
     0 = max # of 1-3 neighbors
     0 = max # of 1-4 neighbors
     1 = max # of special neighbors
  special bonds CPU = 0.000 seconds
  read_restart CPU = 0.011 seconds
include 	in.setup
variable	out_freq equal 500
variable	out_freq2 equal 1000
variable	out_freq3 equal 5000

timestep        0.0005

neigh_modify    delay 7 every 1

include         in.deepmd
# This is deepMD model

# create groups ###
#group ox type 2
#group hy type 1

mass 2 15.999
mass 1 1.008

pair_style      deepmd ../graph.pb
pair_coeff      * *

bond_style      none
angle_style     none
dihedral_style  none
improper_style  none
neigh_modify exclude none


neighbor        2.0 bin
neigh_modify    every 10 delay 0 check no

thermo          ${out_freq}
thermo          500
thermo_style 	custom step temp pe etotal epair emol press lx ly lz vol pxx pyy pzz pxy pxz pyz
#thermo_modify	flush yes
restart 	${out_freq} restart.lmp.${pid} restart2.lmp.${pid}
restart 	500 restart.lmp.${pid} restart2.lmp.${pid}
restart 	500 restart.lmp.0 restart2.lmp.${pid}
restart 	500 restart.lmp.0 restart2.lmp.0

include		in.dump
dump            myDump all atom ${out_freq3} dump.water.${pid}
dump            myDump all atom 5000 dump.water.${pid}
dump            myDump all atom 5000 dump.water.0
dump            myDump2 all dcd ${out_freq2} dump.dcd.${pid}
dump            myDump2 all dcd 1000 dump.dcd.${pid}
dump            myDump2 all dcd 1000 dump.dcd.0
dump_modify     myDump append yes
dump_modify     myDump2 append yes


timer           timeout 23:50:00 every 1000
New timer settings: style=normal  mode=nosync  timeout=23:50:00

fix             1 all plumed plumedfile plumed.dat outfile plumed.out
fix             3 all nph x ${pressure} ${pressure} ${pressureDamp}
fix             3 all nph x 6079.5 ${pressure} ${pressureDamp}
fix             3 all nph x 6079.5 6079.5 ${pressureDamp}
fix             3 all nph x 6079.5 6079.5 1
Resetting global fix info from restart file:
  fix style: nph, fix ID: 3
fix             4 all temp/csvr ${temperature} ${temperature} ${tempDamp} ${seed}
fix             4 all temp/csvr 255 ${temperature} ${tempDamp} ${seed}
fix             4 all temp/csvr 255 255 ${tempDamp} ${seed}
fix             4 all temp/csvr 255 255 0.1 ${seed}
fix             4 all temp/csvr 255 255 0.1 745823
Resetting global fix info from restart file:
  fix style: temp/csvr, fix ID: 4

run             40000000 upto

CITE-CITE-CITE-CITE-CITE-CITE-CITE-CITE-CITE-CITE-CITE-CITE-CITE

Your simulation uses code contributions which should be cited:

- USER-DEEPMD package:

@article{Wang_ComputPhysCommun_2018_v228_p178,
  author = {Wang, Han and Zhang, Linfeng and Han, Jiequn and E, Weinan},
  doi = {10.1016/j.cpc.2018.03.016},
  url = {https://doi.org/10.1016/j.cpc.2018.03.016},
  year = 2018,
  month = {jul},
  publisher = {Elsevier {BV}},
  volume = 228,
  journal = {Comput. Phys. Commun.},
  title = {{DeePMD-kit: A deep learning package for many-body potential energy representation and molecular dynamics}},
  pages = {178--184}
}

CITE-CITE-CITE-CITE-CITE-CITE-CITE-CITE-CITE-CITE-CITE-CITE-CITE

Generated 0 of 1 mixed pair_coeff terms from geometric mixing rule
All restart file global fix info was re-assigned
Neighbor list info ...
  update every 10 steps, delay 0 steps, check no
  max neighbors/atom: 2000, page size: 100000
  master list distance cutoff = 8
  ghost atom cutoff = 8
  binsize = 4, bins = 12 6 6
  1 neighbor lists, perpetual/occasional/extra = 1 0 0
  (1) pair deepmd, perpetual
      attributes: full, newton on
      pair build: full/bin
      stencil: full/bin/3d
      bin: standard
Per MPI rank memory allocation (min/avg/max) = 6.147 | 6.149 | 6.151 Mbytes
   Step          Temp          PotEng         TotEng         E_pair         E_mol          Press            Lx             Ly             Lz           Volume          Pxx            Pyy            Pzz            Pxy            Pxz            Pyz      
  37756500   261.1145      -353.93135     -277.41625     -353.93135      0              4865.9529      45.733262      20.047001      20.857         19122.005      4112.2457      3348.3073      7137.3058      1009.6179     -2784.2041     -1576.0086    
  37757000   251.28312     -355.32782     -281.69363     -355.31507      0              6828.4069      45.286576      20.047001      20.857         18935.237      6328.9343      7640.1535      6516.1331      109.96339      828.43401      630.79536    
  37757500   250.82331     -355.02932     -281.52988     -355.01727      0              4338.0728      44.95092       20.047001      20.857         18794.892      4887.7579      4356.8468      3769.6136     -496.22132     -1642.647       1667.1826    
  37758000   254.69991     -355.07981     -280.4444      -355.09078      0              6243.2848      45.187155      20.047001      20.857         18893.667      7050.4429      6230.1046      5449.3068     -953.14253     -1013.5485     -991.44647    
  37758500   253.97842     -356.68189     -282.25789     -356.69161      0              4789.7293      45.416762      20.047001      20.857         18989.67       4853.5519      5946.7016      3568.9342      884.97503      177.27047     -769.8908     
  37759000   258.16557     -356.78485     -281.13388     -356.78944      0              5103.0783      45.403396      20.047001      20.857         18984.082      4401.1479      6090.6593      4817.4277     -695.43754      2011.2721      707.3266     
  37759500   259.20042     -355.97949     -280.02528     -355.98778      0              4648.1897      45.399737      20.047001      20.857         18982.552      6759.7131      2979.6475      4205.2085      497.44199      824.32343     -55.213817    
  37760000   251.28624     -354.09104     -280.45594     -354.09654      0              4924.3341      45.437463      20.047001      20.857         18998.326      5676.0655      6124.5118      2972.4252     -91.927889     -43.670258     -227.30132    
  37760500   251.85558     -355.42192     -281.61999     -355.4352       0              4687.8934      45.55774       20.047001      20.857         19048.616      7230.4243      1770.3889      5062.8671      448.42968     -353.37022     -982.55818    
  37761000   252.28784     -354.91733     -280.98873     -354.92544      0              2398.0591      45.393202      20.047001      20.857         18979.819      3569.1354      2090.6929      1534.3489      323.2608      -1056.9676      70.339851    
  37761500   260.98132     -353.33758     -276.8615      -353.3433       0              6088.2678      45.324439      20.047001      20.857         18951.068      8356.524       5436.2263      4472.0532      777.04077      927.07133      219.59804    
  37762000   258.92276     -354.01472     -278.14187     -354.01515      0              5368.2956      45.58985       20.047001      20.857         19062.042      7388.5635      4444.1069      4272.2165      665.15451      802.87365     -1224.2838    
  37762500   256.49421     -355.2826      -280.1214      -355.2852       0              3937.0362      45.792799      20.047001      20.857         19146.899      6010.9278      2270.5997      3529.5811     -1621.2893     -277.72769      361.86932    
  37763000   258.57482     -355.63242     -279.86153     -355.63858      0              5251.9169      45.699406      20.047001      20.857         19107.849      6506.9296      3954.5317      5294.2895      194.65359     -576.8393       1659.5572    
  37763500   256.72114     -354.61586     -279.38815     -354.61993      0              4838.6849      45.556558      20.047001      20.857         19048.122      4024.2596      4268.251       6223.5439     -380.6461      -683.21382     -700.07864    
  37764000   263.08759     -356.76063     -279.66735     -356.73693      0              6213.3019      45.454116      20.047001      20.857         19005.289      4703.2213      6906.6052      7030.079      -212.90389      460.31956     -335.11666    
  37764500   250.72216     -351.98629     -278.51649     -351.99565      0              6592.2245      45.525858      20.047001      20.857         19035.285      6176.9952      7431.5695      6168.1088     -514.42711     -536.96112      3284.1473    
  37765000   250.39268     -353.25069     -279.87743     -353.24763      0              6126.7917      45.558586      20.047001      20.857         19048.97       6508.4377      5541.4853      6330.4519      900.19541      1099.5149     -925.77395    
  37765500   253.38463     -356.04103     -281.79104     -356.0366       0              6177.0222      45.381704      20.047001      20.857         18975.012      6665.5822      5245.802       6619.6822     -1021.1672     -44.470632      1523.3542    
  37766000   253.0139      -355.99278     -281.85142     -355.9826       0              5459.4124      45.363776      20.047001      20.857         18967.516      6131.315       5589.3955      4657.5267      852.38954      1973.7552      1922.5988    
  37766500   258.29759     -355.82623     -280.13658     -355.83185      0              5899.8241      45.571937      20.047001      20.857         19054.552      6282.9008      4064.76        7351.8116      398.91946      2947.3864     -968.65227    
  37767000   257.74944     -353.86498     -278.33595     -353.87275      0              3906.617       45.507259      20.047001      20.857         19027.509      3687.0358      4716.1724      3316.6426     -202.33196     -118.38862      992.24341    
  37767500   258.19147     -354.87647     -279.21791     -354.85456      0              5731.5525      45.271505      20.047001      20.857         18928.935      7890.2148      5512.7301      3791.7126      1195.4808      757.17777     -2538.747     
  37768000   259.35076     -355.62619     -279.62792     -355.6011       0              4383.4914      45.481014      20.047001      20.857         19016.535      5051.9436      3638.2491      4460.2813      834.23188      263.15937     -554.40743    
  37768500   261.56651     -352.72622     -276.07867     -352.71871      0              3783.7491      45.786639      20.047001      20.857         19144.323      3599.0012      5579.3171      2172.9291      280.96529      1683.6846      449.3128     
  37769000   259.29263     -356.41093     -280.4297      -356.41585      0              5434.8443      45.73952       20.047001      20.857         19124.622      5465.3325      4285.953       6553.2474      336.57805      276.72768      986.73991    
  37769500   253.91836     -353.0233      -278.6169      -353.03067      0              4939.8322      45.404591      20.047001      20.857         18984.581      7522.7959      3787.9937      3508.7071     -1159.7752     -690.32954      142.63036    
  37770000   258.35287     -354.81631     -279.11046     -354.80804      0              5806.681       45.444704      20.047001      20.857         19001.353      7033.5269      4811.246       5575.27        147.75893      181.63065     -983.7691     
  37770500   257.31161     -353.13924     -277.73851     -353.14922      0              5356.9984      45.544003      20.047001      20.857         19042.872      7007.8407      4201.8997      4861.2549      355.61497     -682.9736       411.4556     
  37771000   253.66932     -354.13571     -279.8023      -354.10436      0              7977.0678      45.403807      20.047001      20.857         18984.253      8604.1049      8055.5215      7271.5771     -493.96226      179.38286     -597.99664    
  37771500   250.26711     -356.30606     -282.9696      -356.27075      0              6196.8677      45.416223      20.047001      20.857         18989.445      9131.8411      4193.0448      5265.7172      2649.4366      852.32991     -1187.3019    
  37772000   250.51284     -355.86578     -282.45732     -355.85637      0              4631.7547      45.604277      20.047001      20.857         19068.074      4424.636       5990.7942      3479.8339     -1993.9071     -264.8682       62.02539     
  37772500   256.22427     -357.56376     -282.48166     -357.55864      0              5366.0428      45.593445      20.047001      20.857         19063.545      5109.3524      5124.5636      5864.2124      290.31439      993.6331      -1118.09      
  37773000   250.4292      -355.47291     -282.08896     -355.46274      0              6792.0432      45.562556      20.047001      20.857         19050.63       7151.1031      8625.1442      4599.8823      438.15415      1322.826      -794.36194    
  37773500   258.83886     -356.71264     -280.86437     -356.71999      0              6979.6441      45.556431      20.047001      20.857         19048.068      7641.7996      4923.3238      8373.809      -527.54088      2015.5475      302.08505    
  37774000   259.09458     -355.32107     -279.39787     -355.32763      0              6358.2694      45.520542      20.047001      20.857         19033.063      7604.3868      4951.1588      6519.2626     -729.98595      1113.8929     -190.38961    
  37774500   257.7404      -355.28118     -279.75481     -355.26534      0              5481.927       45.483493      20.047001      20.857         19017.572      7722.2858      5189.1039      3534.3911     -215.97937     -999.37387     -1.2766918    
  37775000   253.88245     -358.17794     -283.78207     -358.16933      0              4888.4291      45.715871      20.047001      20.857         19114.734      7314.1738      4263.0856      3088.0277      1080.6018      69.022743      1136.4917    
  37775500   253.93889     -360.05967     -285.64727     -360.04634      0              4468.8139      45.751692      20.047001      20.857         19129.711      4990.3516      3864.2787      4551.8114     -1005.0914      1670.7336     -422.57934    
  37776000   249.52191     -355.57816     -282.46007     -355.57554      0              5594.7849      45.30801       20.047001      20.857         18944.199      7541.4541      4575.6471      4667.2536     -214.34528      1308.1305      1687.5582    
  37776500   248.16819     -356.62905     -283.90764     -356.6054       0              4621.7337      45.185158      20.047001      20.857         18892.832      6887.147       490.39172      6487.6624     -172.79384     -618.12307     -22.413398    
  37777000   262.00392     -355.14062     -278.36489     -355.13083      0              3484.9263      45.487474      20.047001      20.857         19019.236      2929.5101      3679.6145      3845.6544      925.02072     -1709.3083     -1285.0394    
  37777500   256.52626     -354.29099     -279.12039     -354.27753      0              5403.7019      45.65677       20.047001      20.857         19090.022      4668.726       6028.1872      5514.1926      197.63338      1433.8349      120.64882    
  37778000   257.84913     -355.19325     -279.63501     -355.18804      0              4238.3365      45.54015       20.047001      20.857         19041.261      4234.2723      4764.452       3716.2851     -116.8455      -484.6182       1156.4357    
  37778500   256.10199     -357.77825     -282.73197     -357.74155      0              6610.66        45.23838       20.047001      20.857         18915.085      7425.4019      6076.6067      6329.9713      278.08755      1012.8409     -721.4624     
  37779000   254.32073     -356.24283     -281.71853     -356.21314      0              4545.9186      45.443203      20.047001      20.857         19000.726      6763.3492      3974.412       2899.9947      295.95074      61.631724     -303.22288    
  37779500   254.02862     -356.88285     -282.44415     -356.87135      0              4488.4167      45.476264      20.047001      20.857         19014.549      4261.8449      4631.1801      4572.2252     -1278.0834     -727.86762     -1098.8456    
  37780000   254.25841     -354.02366     -279.51762     -354.02388      0              4728.6995      45.322226      20.047001      20.857         18950.143      5913.5784      5704.6871      2567.8331     -145.77983     -272.21461     -2719.858     
  37780500   256.44019     -354.62083     -279.47545     -354.60061      0              4691.8059      45.360917      20.047001      20.857         18966.32       5690.7132      2393.2265      5991.4779      252.10659     -1004.3073      2000.9728    
  37781000   257.72424     -355.97247     -280.45083     -355.95814      0              4492.2107      45.753822      20.047001      20.857         19130.602      6806.7477      3573.5573      3096.3272      260.16241     -227.46717     -106.31939    
  37781500   252.29017     -354.71128     -280.78199     -354.68894      0              5427.7962      45.812761      20.047001      20.857         19155.245      4856.0013      6743.3876      4683.9998      1370.8757     -226.16329     -504.55082    
  37782000   246.75535     -354.77848     -282.47108     -354.7877       0              6490.0895      45.388791      20.047001      20.857         18977.975      7560.8713      4432.1506      7477.2468      554.13989     -86.196068     -889.37069    
  37782500   255.159       -353.88639     -279.11645     -353.85855      0              7668.3884      45.0782        20.047001      20.857         18848.11       8229.3         9181.2594      5594.6057     -68.655811      69.587146      220.94156    
  37783000   254.78292     -355.37698     -280.71724     -355.36144      0              4839.5426      45.601188      20.047001      20.857         19066.782      5788.8579      3026.7993      5702.9707      389.09975     -1215.887      -1116.3509    
  37783500   256.53085     -356.60181     -281.42987     -356.59075      0              4511.9542      45.752735      20.047001      20.857         19130.147      5354.5721      3723.846       4457.4445     -1505.0979      1246.9614      925.92681    
  37784000   255.72928     -353.25186     -278.31481     -353.25154      0              7320.9091      45.28905       20.047001      20.857         18936.271      8340.6037      7851.915       5770.2086     -786.4376       609.67715      296.31678    
  37784500   258.88821     -352.14431     -276.28159     -352.13635      0              4948.7793      45.354283      20.047001      20.857         18963.546      5732.6304      5960.1726      3153.5349     -252.14746     -146.53413      1893.1294    
  37785000   256.5538      -352.31888     -277.14022     -352.29768      0              6680.6328      45.473446      20.047001      20.857         19013.371      6446.5073      6015.403       7579.988      -1381.644       320.19705     -773.18414    
  37785500   257.4558      -354.70376     -279.26078     -354.68634      0              4987.4466      45.567076      20.047001      20.857         19052.519      5875.1598      5079.073       4008.1071      1077.7082      368.75557      1153.22      
  37786000   254.45127     -354.33067     -279.76811     -354.32792      0              4242.3331      45.533006      20.047001      20.857         19038.274      4138.9309      5498.8961      3089.1725      1400.9341     -530.79973      736.65181    
  37786500   260.65449     -354.82579     -278.44548     -354.8043       0              6400.0149      45.279798      20.047001      20.857         18932.403      8354.9436      4556.4986      6288.6026     -511.38784      940.10751     -1020.5213    
  37787000   258.55769     -354.22201     -278.45613     -354.21274      0              6519.5549      45.55735       20.047001      20.857         19048.453      3710.8849      8165.3595      7682.4203      292.99345      155.1872      -627.90649    
  37787500   253.54601     -358.52527     -284.22798     -358.51459      0              5205.8417      45.75732       20.047001      20.857         19132.064      7110.3229      3268.8935      5238.3086     -105.03331      1903.2453      1499.1754    
  37788000   254.44877     -355.55845     -280.99663     -355.54789      0              7207.8116      45.568224      20.047001      20.857         19053          8979.9826      6158.8499      6484.6024      859.3958       649.16446     -679.13927    
  37788500   253.55861     -357.0157      -282.71473     -357.00525      0              4568.6967      45.591289      20.047001      20.857         19062.644      8339.0901      2699.9561      2667.0438     -407.87074     -125.84386     -1928.856     
  37789000   255.88318     -356.40738     -281.42523     -356.42086      0              4035.3817      45.758876      20.047001      20.857         19132.715      5909.3112      2671.0943      3525.7395      693.95338     -235.65374      459.38602    
  37789500   248.69199     -354.42333     -281.54843     -354.4328       0              4276.0211      45.65284       20.047001      20.857         19088.379      5732.8147      3157.5701      3937.6786      723.01971     -704.52014     -2415.2648    
  37790000   252.24993     -357.47465     -283.55716     -357.47779      0              5043.0331      45.483655      20.047001      20.857         19017.64       5038.8375      5160.855       4929.4067     -371.94476     -552.1415      -819.01462    
  37790500   250.21781     -354.88663     -281.56462     -354.89153      0              4930.2114      45.666933      20.047001      20.857         19094.272      3696.0656      7777.2633      3317.3053      430.555        650.62108     -1246.1305    
  37791000   251.74869     -355.83809     -282.06748     -355.84177      0              4761.8091      45.70076       20.047001      20.857         19108.415      5435.9352      4768.1435      4081.3485      523.12664     -210.97082     -2308.8714    
  37791500   252.2991      -356.63638     -282.70448     -356.61989      0              5990.2426      45.479796      20.047001      20.857         19016.026      4526.7393      7431.2724      6012.7162     -266.00557      2632.1941      364.17737    
  37792000   253.11403     -356.69873     -282.52803     -356.69416      0              5004.196       45.618021      20.047001      20.857         19073.821      5062.7563      7005.6898      2944.1418      723.59591      668.49833     -849.40508    
  37792500   260.8088      -355.36121     -278.93569     -355.34795      0              6094.8473      45.574854      20.047001      20.857         19055.772      8492.7494      4455.1233      5336.6692      829.9164       728.20402      222.33861    
  37793000   252.17604     -357.45689     -283.56105     -357.45385      0              4966.9472      45.49091       20.047001      20.857         19020.673      5193.9942      4818.177       4888.6703      1740.3623      113.86353     -1833.2084    
  37793500   257.46671     -353.9421      -278.49592     -353.93747      0              6501.9004      45.497738      20.047001      20.857         19023.528      8130.602       6407.9921      4967.1071     -631.79112     -464.60511      824.30294    
  37794000   254.6166      -355.81378     -281.20278     -355.79853      0              4281.5138      45.787106      20.047001      20.857         19144.518      6397.6182      1841.7954      4605.1277      351.84022     -2907.6564     -327.19444    
  37794500   252.31407     -357.36413     -283.42785     -357.34682      0              5240.6267      45.902528      20.047001      20.857         19192.779      5053.9095      5226.9553      5441.0153     -148.06998      518.35571      159.86511    
  37795000   260.47035     -356.75205     -280.42571     -356.72608      0              4969.3541      45.594409      20.047001      20.857         19063.948      6687.6791      4131.0085      4089.3747     -437.61         70.92026       728.09431    
  37795500   252.35532     -355.902       -281.95363     -355.88662      0              5857.897       45.666132      20.047001      20.857         19093.937      6568.4328      5937.8599      5067.3982      263.25913      1318.4066      1667.2079    
  37796000   244.71751     -358.86958     -287.15934     -358.84117      0              6344.7304      45.752398      20.047001      20.857         19130.006      8522.6466      4773.201       5738.3435      406.01488      186.78061      421.29691    
  37796500   252.74994     -355.23194     -281.16793     -355.20965      0              7429.4899      45.643141      20.047001      20.857         19084.324      7857.1692      9229.8384      5201.4622      528.78667     -390.10094      285.38124    
  37797000   256.51487     -358.08655     -282.9193      -358.06826      0              4431.2947      45.773217      20.047001      20.857         19138.711      2803.2216      7088.6004      3402.0622     -265.57422     -44.117549     -606.67777    
  37797500   255.36809     -357.69327     -282.86205     -357.70185      0              6811.6851      45.571648      20.047001      20.857         19054.431      9253.719       4745.451       6435.8852     -25.787627      396.42706      240.96649    
  37798000   255.29418     -354.54842     -279.73887     -354.5424       0              8217.7062      45.416431      20.047001      20.857         18989.532      10791.262      5178.9818      8682.8742      163.56759     -828.98957      406.15063    
  37798500   253.54986     -355.4614      -281.16299     -355.4334       0              4511.081       45.779578      20.047001      20.857         19141.371      5092.7415      4697.1577      3743.3438     -424.17001     -2028.0518     -2991.6279    
  37799000   251.61648     -356.62185     -282.88998     -356.58385      0              5726.3809      45.797522      20.047001      20.857         19148.873      8084.6556      3498.8082      5595.6788      826.30519     -145.94828      579.3192     
  37799500   254.7254      -356.33947     -281.69659     -356.29313      0              5701.8085      45.821369      20.047001      20.857         19158.845      6556.7911      6709.7872      3838.8471      366.43359     -395.19721     -1804.3517    
  37800000   255.76335     -355.22383     -280.27679     -355.20118      0              4288.7436      45.714733      20.047001      20.857         19114.258      4098.8589      5037.6247      3729.7474     -649.84989     -74.881988      854.34584    
  37800500   250.47797     -357.99403     -284.59578     -357.99358      0              5041.5155      45.804683      20.047001      20.857         19151.868      5818.6809      6949.9512      2355.9143     -764.15665      1418.9984     -268.66004    
  37801000   255.31325     -356.89829     -282.08314     -356.88619      0              5167.0499      45.815528      20.047001      20.857         19156.402      7916.9042      3348.9129      4235.3326     -250.58597      1290.8919     -2449.1202    
  37801500   258.60837     -354.76057     -278.97985     -354.73976      0              5584.2101      45.879014      20.047001      20.857         19182.947      5465.5823      5416.8339      5870.2142      9.6610493     -316.51033      168.39818    
  37802000   258.34037     -355.91355     -280.21136     -355.90504      0              4797.6673      46.016558      20.047001      20.857         19240.457      5506.6835      3573.4222      5312.8962      286.4834      -1563.786      -23.313668    
  37802500   257.6718      -355.48801     -279.98174     -355.49266      0              4349.5075      45.865988      20.047001      20.857         19177.501      5073.8311      3794.0709      4180.6204      480.98069     -1867.75       -668.51369    
  37803000   261.23267     -356.12778     -279.57806     -356.11713      0              5347.8436      45.775636      20.047001      20.857         19139.723      4161.8628      5975.6873      5905.9806      961.99658     -755.28704     -663.72472    
  37803500   262.0751      -356.75196     -279.95537     -356.73546      0              4051.0754      46.030078      20.047001      20.857         19246.11       2306.1496      4198.1405      5648.936       1017.5342     -283.64306     -1592.4235    
  37804000   250.27851     -355.68553     -282.34573     -355.65537      0              5136.3142      45.875607      20.047001      20.857         19181.523      5402.7062      5395.527       4610.7093     -395.256        532.64036      294.64429    
  37804500   251.30147     -356.60615     -282.96658     -356.57914      0              5015.9539      45.673877      20.047001      20.857         19097.175      5926.1813      5429.2442      3692.4363      73.362134      1065.8749      1283.2379    
  37805000   260.11998     -356.61808     -280.39441     -356.6113       0              3835.3855      45.670128      20.047001      20.857         19095.608      4021.9452      5398.0905      2086.1208      903.77598      747.57019      1184.5373    
  37805500   256.87946     -357.78433     -282.51024     -357.78537      0              4981.9414      45.721265      20.047001      20.857         19116.989      6468.9255      5920.7665      2556.1322     -104.64989     -257.49183     -1562.0391    
  37806000   255.2054      -357.53989     -282.75635     -357.51229      0              5132.8429      45.730953      20.047001      20.857         19121.04       7144.842       3044.5487      5209.138      -977.88958     -511.01137      506.46634    
  37806500   248.51948     -358.34266     -285.51832     -358.34038      0              5528.3344      45.808205      20.047001      20.857         19153.34       9098.9073      3365.5935      4120.5025     -156.22561      847.92588      187.97945    
  37807000   255.5975      -357.95559     -283.05715     -357.96282      0              6196.8065      45.671682      20.047001      20.857         19096.257      7645.5783      5401.9178      5542.9235      1234.2743      306.09539      518.55441    
  37807500   250.6161      -354.07129     -280.63257     -354.07064      0              6488.3559      45.568226      20.047001      20.857         19053          7700.9203      4491.689       7272.4584     -1162.5111      392.76473     -948.31961    
  37808000   257.02606     -355.33064     -280.01359     -355.33192      0              6012.7207      45.614096      20.047001      20.857         19072.179      7507.1621      6079.6322      4451.368       1572.3905     -278.52015      1293.5668    
  37808500   256.60558     -356.34189     -281.14806     -356.3364       0              4601.9451      45.956538      20.047001      20.857         19215.361      7701.2885      2580.5023      3524.0446      548.98837     -1795.4503     -1908.6281    
  37809000   260.84318     -354.51698     -278.08139     -354.50579      0              6089.9396      45.831864      20.047001      20.857         19163.233      7770.3373      5200.3767      5299.1049      40.417899      852.48142      42.193049    
  37809500   256.4077      -352.4669      -277.33104     -352.46385      0              4757.5227      45.314694      20.047001      20.857         18946.993      5553.799       2819.8466      5898.9226      2035.5894     -354.66963      1724.3072    
  37810000   257.6586      -352.48098     -276.97857     -352.48712      0              3869.332       45.532684      20.047001      20.857         19038.14       5943.4986      3121.6771      2542.8202      285.84688      542.64856     -1672.3021    
  37810500   253.90576     -356.54332     -282.14062     -356.53451      0              4148.5217      45.83027       20.047001      20.857         19162.566      3398.3043      3204.6609      5842.5999      769.23953      25.068228     -711.64129    
  37811000   259.2407      -353.60777     -277.64176     -353.60638      0              5581.1317      45.640955      20.047001      20.857         19083.41       4970.0186      6602.932       5170.4445      1320.0592     -523.87563      503.16894    
  37811500   259.70278     -355.85936     -279.75794     -355.84521      0              3902.4478      45.457818      20.047001      20.857         19006.836      4504.9074      4715.279       2487.1571      768.78382      696.37039     -1215.2015    
  37812000   256.8886      -358.25238     -282.97561     -358.25707      0              4434.5253      45.518942      20.047001      20.857         19032.394      2982.2669      5087.6191      5233.6898     -211.00847      651.22134      181.60321    
  37812500   249.27889     -354.89424     -281.84736     -354.90084      0              6548.7885      45.308838      20.047001      20.857         18944.545      7118.1711      6143.8761      6384.3183     -913.11797     -1192.81        2181.6322    
  37813000   255.0575      -356.78065     -282.04045     -356.76597      0              6393.5559      45.361931      20.047001      20.857         18966.744      6718.141       6096.6745      6365.8523     -33.518135     -294.19559      780.91358    
  37813500   255.92214     -353.72125     -278.72768     -353.69916      0              5409.4902      45.507095      20.047001      20.857         19027.44       8163.8187      3369.4693      4695.1826      1262.7446      1969.8984     -298.48428    
  37814000   252.56797     -356.71642     -282.70573     -356.69713      0              4278.318       45.676848      20.047001      20.857         19098.417      6748.7791      2971.1345      3115.0403     -163.46822     -1271.7846      202.58581    
  37814500   257.86314     -358.04617     -282.48383     -358.01652      0              5050.6788      45.657244      20.047001      20.857         19090.221      6314.8704      2701.7555      6135.4105      55.888405      1736.6374      764.54049    
  37815000   251.76814     -357.78646     -284.01015     -357.79373      0              4580.5783      45.311974      20.047001      20.857         18945.856      6799.6164      2921.9801      4020.1385      1643.8188      1443.8261      147.28835    
  37815500   256.19516     -356.84031     -281.76674     -356.82732      0              6179.1539      45.200996      20.047001      20.857         18899.454      5727.922       6229.2089      6580.3307     -1307.6066      474.71518      62.491266    
  37816000   257.72107     -357.48771     -281.96699     -357.4672       0              4069.429       45.583187      20.047001      20.857         19059.256      3261.9411      3799.3207      5147.0251      877.55238      246.99311     -1219.2565    
  37816500   250.95692     -358.13768     -284.59908     -358.10032      0              5425.0156      45.55198       20.047001      20.857         19046.208      5086.293       5873.0049      5315.7491     -1100.1791      1544.8481     -989.98076    
  37817000   249.27435     -359.28417     -286.23863     -359.26279      0              4447.374       45.342802      20.047001      20.857         18958.746      8641.8818      647.24304      4052.9972      520.17921     -632.35084      1625.5918    
  37817500   250.10164     -359.83252     -286.54455     -359.79933      0              6246.6553      45.374246      20.047001      20.857         18971.893      8094.4584      4545.9961      6099.5115     -731.26857     -176.51368     -975.28546    
  37818000   249.95151     -355.84004     -282.59607     -355.81306      0              3932.5484      45.46845       20.047001      20.857         19011.282      7372.859      -352.92021      4777.7064      1291.7891     -48.994247     -1950.7087    
  37818500   248.57896     -357.98391     -285.14213     -357.97363      0              4849.4646      45.576606      20.047001      20.857         19056.504      4769.1828      5031.0949      4748.1161      11.232619      171.30869      1542.7794    
  37819000   256.68816     -355.20955     -279.99152     -355.18716      0              5395.1087      45.430991      20.047001      20.857         18995.62       6417.3359      3305.8051      6462.185       1531.033      -1658.7859     -1000.3617    
  37819500   258.45892     -354.39549     -278.65856     -354.38462      0              4292.7172      45.388822      20.047001      20.857         18977.988      4946.3567      4952.5336      2979.2613      451.89651     -667.29071      601.14531    
  37820000   260.17339     -355.0654      -278.82608     -355.05385      0              4449.3951      45.504146      20.047001      20.857         19026.207      4058.403       5715.1942      3574.5881     -816.61071      587.48439     -809.80664    
  37820500   252.041       -357.52472     -283.66846     -357.50002      0              7633.6745      45.737899      20.047001      20.857         19123.944      9031.0939      7692.5216      6177.4081      792.39554     -2142.1583      1200.862     
  37821000   249.97256     -357.54654     -284.2964      -357.51719      0              4332.3756      45.450293      20.047001      20.857         19003.69       6391.2563      2989.401       3616.4694      2436.0351      1437.6189     -906.58891    
  37821500   255.17992     -357.88293     -283.10686     -357.85106      0              5228.0922      44.948263      20.047001      20.857         18793.781      6917.6269      4404.678       4361.9716      948.68079     -1260.1586     -1073.6488    
  37822000   251.91302     -355.87394     -282.05517     -355.85953      0              3937.9723      45.223472      20.047001      20.857         18908.851      4453.8128      2697.5836      4662.5205     -998.37877      1045.9852      289.61698    
  37822500   257.97944     -356.77902     -281.18259     -356.75435      0              2007.6746      45.676033      20.047001      20.857         19098.077      3005.6661      439.91329      2577.4445      1196.2243     -603.78904     -229.3374     
  37823000   256.01753     -360.44969     -285.42816     -360.40847      0              6651.515       45.428834      20.047001      20.857         18994.717      6435.5725      9361.4119      4157.5605      335.58052     -918.1757      -1083.9986    
  37823500   260.70205     -357.65012     -281.25588     -357.61149      0              5171.5874      45.128948      20.047001      20.857         18869.329      4615.9785      7000.2657      3898.5181     -25.728754     -588.59718      1580.8557    
  37824000   255.66033     -358.11958     -283.20273     -358.09004      0              6610.4651      45.336673      20.047001      20.857         18956.183      6577.8985      8356.8393      4896.6575      415.09748     -360.62258     -34.162496    
  37824500   247.4567      -356.80089     -284.28797     -356.79132      0              2929.8767      45.627804      20.047001      20.857         19077.911      478.53898      3405.4959      4905.5951      495.21011      1413.2988      210.33624    
  37825000   255.58826     -358.13144     -283.23571     -358.10112      0              5912.2556      45.242569      20.047001      20.857         18916.836      3829.5465      7649.3826      6257.8378     -331.01452     -73.67651       2097.3241    
  37825500   251.84767     -358.31758     -284.51796     -358.28504      0              6515.5018      45.122587      20.047001      20.857         18866.67       8740.0414      6124.9639      4681.5         529.18453     -470.11809      129.48433    
  37826000   255.25174     -358.541       -283.74388     -358.51056      0              7337.8484      45.514592      20.047001      20.857         19030.575      8620.5751      6101.3548      7291.6152      657.06605      305.75942      399.30658    
  37826500   254.1226      -358.8712      -284.40496     -358.8498       0              6143.7593      45.534151      20.047001      20.857         19038.753      7280.6279      4298.497       6852.1529      1324.3217      401.54882      544.52593    
  37827000   258.75039     -358.1899      -282.36756     -358.14598      0              5347.94        45.238812      20.047001      20.857         18915.266      7848.5511      2959.2118      5236.057      -1006.621       332.47223      306.64614    
  37827500   258.79601     -356.04733     -280.21163     -356.01433      0              3757.4726      45.315643      20.047001      20.857         18947.39       4798.5734      5399.5066      1074.3378      1774.8201     -264.26665      464.44109    
  37828000   260.47875     -357.79126     -281.46246     -357.75942      0              5551.9647      45.368651      20.047001      20.857         18969.554      5445.3734      4347.3612      6863.1596     -1459.4295     -292.13513      403.36205    
  37828500   259.97872     -358.64284     -282.46056     -358.62423      0              3355.5082      45.221865      20.047001      20.857         18908.18       4711.3133      2008.377       3346.8343      590.55147      1477.5937      2474.2864    
  37829000   259.39288     -357.31583     -281.30522     -357.27276      0              8165.7042      45.166907      20.047001      20.857         18885.201      9252.7651      9500.624       5743.7234      2031.4717      354.73623      187.17958    
  37829500   251.68304     -356.60009     -282.84871     -356.5645       0              2503.4183      45.425593      20.047001      20.857         18993.362      2611.9652      1528.6929      3369.5969      679.96261      857.19613     -743.04936    
  37830000   256.12716     -356.7344      -281.68076     -356.70036      0              8647.1032      45.448981      20.047001      20.857         19003.141      9210.0633      7414.8139      9316.4323      925.74349      17.240603      1593.9041    
  37830500   257.3112      -357.63198     -282.23137     -357.60276      0              2923.0701      45.425992      20.047001      20.857         18993.529      6526.6533      747.81386      1494.743      -786.58491      600.54391      76.512048    
  37831000   250.46937     -355.6436      -282.24787     -355.62615      0              2753.7808      45.400554      20.047001      20.857         18982.893      3073.8534      2717.0385      2470.4507      925.26679      780.93666      724.15398    
  37831500   259.89986     -358.94744     -282.78827     -358.93541      0              5651.7553      45.401683      20.047001      20.857         18983.365      6719.7276      4671.8939      5563.6444      628.21354      286.25729      507.47819    
  37832000   252.11214     -356.77998     -282.90287     -356.76641      0              5270.0266      45.326574      20.047001      20.857         18951.961      4174.5005      6567.5859      5067.9935      951.29688      443.89198     -187.16044    
  37832500   249.1767      -354.76182     -281.74488     -354.75642      0              6367.8356      45.026548      20.047001      20.857         18826.514      6123.9031      7531.9183      5447.6853      1712.9754      560.1596      -1080.1718    
  37833000   250.87186     -354.99808     -281.48441     -355.00088      0              7467.2841      45.380989      20.047001      20.857         18974.713      7978.7488      6660.7567      7762.3469     -1553.3353     -1215.2796     -1959.4964    
  37833500   245.79971     -356.97477     -284.94741     -356.95547      0              6550.4332      45.693617      20.047001      20.857         19105.429      6615.6126      5063.1138      7972.5732      491.37433      2566.9526      18.214998    
  37834000   257.58575     -355.60053     -280.11947     -355.56896      0              6266.8611      45.402976      20.047001      20.857         18983.906      6268.1503      8057.2617      4475.1714     -605.92327     -158.17673     -975.36772    
  37834500   255.5593      -354.79076     -279.90352     -354.73203      0              5515.2527      45.271011      20.047001      20.857         18928.729      6302.3137      6171.7761      4071.6683      1111.1389     -1143.3261      176.95932    
  37835000   253.6752      -357.68276     -283.34762     -357.65083      0              1968.8086      45.711341      20.047001      20.857         19112.84       3621.966       689.24223      1595.2175     -115.46314     -1116.7772     -461.2053     
  37835500   254.87066     -355.03114     -280.34569     -355.0452       0              6564.046       45.697898      20.047001      20.857         19107.219      5987.8896      6794.4415      6909.8071     -57.18657       165.03079     -2062.9261    
  37836000   257.80849     -356.04385     -280.49752     -356.01404      0              6841.0895      45.369757      20.047001      20.857         18970.017      7334.7064      6385.8584      6802.7038      1184.0178      2086.7932      2567.377     
  37836500   257.48289     -353.97759     -278.52667     -353.95056      0              5064.1978      45.29322       20.047001      20.857         18938.015      8111.5875      4900.9832      2180.0227     -920.49751     -644.22478     -62.216473    
  37837000   260.13566     -355.35951     -279.13124     -355.3332       0              4624.225       45.719759      20.047001      20.857         19116.359      5191.9097      5036.1848      3644.5804      846.20835      872.32944      753.75247    
  37837500   257.10407     -356.80784     -281.46793     -356.78107      0              3149.513       45.686742      20.047001      20.857         19102.554      1800.3456      4131.9128      3516.2806     -196.01137     -421.96679     -1428.5442    
  37838000   254.2071      -355.82296     -281.33196     -355.81679      0              6501.5017      45.348923      20.047001      20.857         18961.305      7271.2723      8939.9832      3293.2495      564.56616      228.64216     -62.937547    
  37838500   252.65794     -356.07302     -282.03597     -356.05397      0              6583.0398      45.342687      20.047001      20.857         18958.698      6961.7066      5474.6941      7312.7188      952.2943      -62.012439      714.69132    
  37839000   256.80358     -357.92042     -282.66856     -357.891        0              3844.0408      45.472241      20.047001      20.857         19012.867      5996.6125      2977.5146      2557.9954      818.46062     -332.77156     -1039.9882    
  37839500   255.4112      -358.64178     -283.79793     -358.60143      0              3544.9486      45.484875      20.047001      20.857         19018.15       5710.0379      1433.1762      3491.6318     -863.84234     -794.21919      1794.4509    
  37840000   255.59643     -357.72313     -282.82501     -357.6878       0              6436.7887      45.343879      20.047001      20.857         18959.196      8411.457       6402.1398      4496.7693      817.86982      680.97596     -1256.9605    
  37840500   256.37534     -355.81361     -280.68724     -355.7844       0              5364.5274      45.39688       20.047001      20.857         18981.357      6069.0033      2760.0295      7264.5493      624.42045      930.01227      1216.6364    
  37841000   256.88899     -356.86088     -281.58399     -356.83806      0              6957.4567      45.547294      20.047001      20.857         19044.248      7376.0964      7160.6068      6335.667       572.64122     -768.59496     -1431.2171    
  37841500   255.50899     -359.44525     -284.57274     -359.41374      0              4442.7928      45.56519       20.047001      20.857         19051.731      4563.4273      4338.3442      4426.6068     -42.14798      -1538.8483     -815.36748    
  37842000   250.48875     -357.24504     -283.84363     -357.21206      0              4586.7985      45.262817      20.047001      20.857         18925.303      5344.3887      3558.7894      4857.2176      14.319753     -569.50283     -501.82476    
  37842500   260.28413     -358.89944     -282.62766     -358.8601       0              5631.1918      45.300919      20.047001      20.857         18941.234      7180.9349      4211.7294      5500.9112      650.43947      146.95601      35.425323    
  37843000   257.04056     -359.42159     -284.10028     -359.37523      0              4222.5482      45.526545      20.047001      20.857         19035.573      5288.4121      4147.5917      3231.6409      324.48822      20.289684      676.94812    
  37843500   254.80151     -359.217       -284.55182     -359.16761      0              4219.3735      45.73422       20.047001      20.857         19122.406      3839.4385      4967.4706      3851.2112      1989.1966     -391.4862      -1245.1558    
  37844000   258.42485     -356.92127     -281.19432     -356.86092      0              6602.3723      45.667332      20.047001      20.857         19094.439      7537.1052      6932.2303      5337.7814      389.57392      892.38399     -347.63791    
  37844500   257.01894     -357.84154     -282.52657     -357.81196      0              3055.709       45.32935       20.047001      20.857         18953.122      4335.8575      2050.0958      2781.1738      172.6864       748.67467     -123.29382    
  37845000   255.15471     -358.92442     -284.15573     -358.90399      0              6327.3651      45.201668      20.047001      20.857         18899.735      7367.7963      5675.4233      5938.8757      306.70937      1462.5193      22.060744    
  37845500   252.90539     -359.1325      -285.02294     -359.13153      0              4057.6333      45.470588      20.047001      20.857         19012.176      5695.1148      4394.5373      2083.2477     -995.80333      363.50143     -1448.1669    
  37846000   252.57551     -359.71198     -285.69908     -359.6633       0              4804.2347      45.411599      20.047001      20.857         18987.511      5080.4252      4761.1453      4571.1337     -358.71422     -279.97279      1358.6619    
  37846500   253.75263     -357.36645     -283.00862     -357.31635      0              6318.3744      45.416495      20.047001      20.857         18989.559      8056.7539      5206.9439      5691.4255     -1337.6954      629.57081      891.71695    
  37847000   250.36776     -357.22988     -283.86393     -357.18734      0              4191.0864      45.544009      20.047001      20.857         19042.875      4157.5921      5946.8415      2468.8258      795.94018      1084.1917      319.67028    
  37847500   259.18295     -359.77857     -283.82948     -359.74122      0              5331.5038      45.582433      20.047001      20.857         19058.941      4489.6065      7060.7468      4444.1582      219.4011      -63.355595     -758.16009    
  37848000   248.41404     -356.82766     -284.03421     -356.80184      0              7826.6964      45.398098      20.047001      20.857         18981.866      7467.711       7710.4111      8301.9672     -240.34897     -2095.3005      583.02961    
  37848500   252.97544     -354.29812     -280.16803     -354.26842      0              3566.8895      45.237665      20.047001      20.857         18914.786      6268.5795      1445.236       2986.8531      1602.447      -771.02011      228.7004     
  37849000   254.1551      -355.52076     -281.04499     -355.49146      0              4888.4253      45.35966       20.047001      20.857         18965.795      5004.0608      5124.0115      4537.2035      1044.8779     -667.93837     -596.34718    
  37849500   256.56229     -355.27172     -280.09057     -355.25773      0              4928.8561      45.610698      20.047001      20.857         19070.759      6021.7828      3255.0219      5509.7635      193.17778      1227.7674      49.795876    
  37850000   257.16488     -357.27105     -281.91332     -357.24754      0              5188.4671      45.479932      20.047001      20.857         19016.083      3701.399       6624.4683      5239.5339     -492.02096      1251.397      -910.45073    
  37850500   253.08288     -355.16853     -281.00696     -355.13169      0              4874.0534      45.330655      20.047001      20.857         18953.667      4095.2607      5389.1465      5137.753      -1429.1112     -530.62597     -336.3535     
  37851000   253.75693     -356.66752     -282.30843     -356.62137      0              7688.866       45.19498       20.047001      20.857         18896.938      7536.8008      8731.9313      6797.8659      1341.6872      889.8869      -192.54568    
  37851500   255.50292     -355.7528      -280.88208     -355.7248       0              6033.9254      45.493075      20.047001      20.857         19021.578      5266.7488      5817.2344      7017.7932     -1657.5824     -75.971        -750.57071    
  37852000   263.90334     -356.81163     -279.47931     -356.77859      0              4835.4801      45.655083      20.047001      20.857         19089.317      5107.5118      4292.9454      5105.9833     -769.3114      -1497.7257     -372.23538    
  37852500   263.31392     -355.35206     -278.19246     -355.31224      0              5303.474       45.398391      20.047001      20.857         18981.989      4048.656       5897.3452      5964.421      -223.13117     -1837.0972     -599.94155    
  37853000   253.24168     -355.37202     -281.16391     -355.34272      0              6466.6842      45.312981      20.047001      20.857         18946.277      10847.891      5267.8109      3284.3512      336.18936     -528.86141     -823.77812    
  37853500   257.18392     -356.85834     -281.49503     -356.83027      0              4219.4126      45.705887      20.047001      20.857         19110.559      5126.7026      4186.0116      3345.5237      20.549454     -366.19729      111.65501    
  37854000   253.56612     -355.56936     -281.26618     -355.56659      0              4392.2357      45.820183      20.047001      20.857         19158.348      6713.7338      3511.4308      2951.5425      415.5345       382.00241      32.712733    
  37854500   254.4868      -355.64692     -281.07396     -355.6228       0              6320.9135      45.476358      20.047001      20.857         19014.589      6795.6788      4742.5596      7424.502       1100.8235      1337.3449     -2371.9012    
  37855000   254.24403     -354.64894     -280.14711     -354.60054      0              4050.5951      45.501852      20.047001      20.857         19025.248      3631.1223      5099.2001      3421.4631      127.36728     -1726.5436     -382.77553    
  37855500   255.4203      -356.99036     -282.14384     -356.96832      0              5286.8783      45.630279      20.047001      20.857         19078.946      7192.7953      3573.4924      5094.3472      190.89668     -146.37292     -632.47356    
  37856000   252.06615     -353.86075     -279.99711     -353.83073      0              7742.7812      45.447969      20.047001      20.857         19002.719      6688.0016      9830.546       6709.7961     -705.3364      -1719.4317     -627.05785    
  37856500   257.78397     -356.61617     -281.07703     -356.56878      0              5247.0289      45.373667      20.047001      20.857         18971.651      4794.8096      5526.591       5419.6862      1427.329      -2270.8304     -315.67215    
  37857000   253.35093     -356.78072     -282.5406      -356.74368      0              5986.7795      45.439118      20.047001      20.857         18999.018      4437.2154      8198.0689      5325.0542      104.16001      1433.3617     -926.81765    
  37857500   253.84336     -356.65068     -282.26626     -356.61941      0              7299.0594      45.362881      20.047001      20.857         18967.141      7925.8876      7729.8985      6241.3922     -228.59859     -1165.5031     -761.28203    
  37858000   250.83368     -357.48284     -283.98036     -357.44667      0              7211.4574      45.128365      20.047001      20.857         18869.085      8303.5142      7195.5679      6135.2899     -343.90132     -870.28196      866.24087    
  37858500   248.20494     -356.43902     -283.70684     -356.42895      0              8268.5952      45.359331      20.047001      20.857         18965.657      6804.2243      9251.841       8749.7203     -461.11515     -1430.7444     -1106.1028    
  37859000   256.34826     -355.8855      -280.76706     -355.87733      0              3600.4129      45.57271       20.047001      20.857         19054.875      4168.394       2769.8471      3862.9976      2046.3183     -668.93014     -661.18725    
  37859500   264.10496     -357.52936     -280.13796     -357.49707      0              4661.4804      45.311226      20.047001      20.857         18945.543      5938.5954      6077.3285      1968.5172     -1043.3371      72.544574     -2184.8641    
  37860000   250.67147     -356.95261     -283.49766     -356.9015       0              7154.177       45.233558      20.047001      20.857         18913.069      7576.3842      7871.9585      6014.1884     -1816.2045     -1075.2171     -670.09225    
  37860500   260.18931     -356.48018     -280.23619     -356.45058      0              4524.0085      45.576463      20.047001      20.857         19056.444      4552.0483      5140.2162      3879.7611     -44.838729      666.80497      196.83548    
  37861000   252.6247      -357.03134     -283.00403     -357.01018      0              5666.5665      45.513192      20.047001      20.857         19029.989      5825.866       6537.9198      4635.9136     -109.53658      1687.0433     -780.82143    
  37861500   261.57314     -356.76108     -280.11158     -356.73849      0              5458.5539      45.218683      20.047001      20.857         18906.849      5985.9009      5684.3663      4705.3947     -1628.9278      1062.5669     -624.87687    
  37862000   254.01134     -355.39235     -280.95871     -355.36452      0              3443.3562      45.172017      20.047001      20.857         18887.337      4352.5431      2211.1801      3766.3454     -366.83487      1125.0841     -1321.7548    
  37862500   253.30883     -356.13345     -281.90566     -356.12921      0              7809.3777      45.472927      20.047001      20.857         19013.154      6659.9744      9398.8764      7369.2824      393.46353     -201.86597      460.48824    
  37863000   253.88396     -355.05252     -280.6562      -355.02828      0              6654.2073      45.374792      20.047001      20.857         18972.122      5803.5836      5419.3734      8739.6647      916.14461     -1495.216       1276.9754    
  37863500   253.85996     -355.75392     -281.36464     -355.73319      0              6295.1532      45.231205      20.047001      20.857         18912.085      7304.6868      5887.657       5693.1158     -548.88732     -889.76721      337.30649    
  37864000   249.575       -355.93552     -282.80188     -355.92094      0              6545.3384      45.258956      20.047001      20.857         18923.688      8197.9455      4790.5227      6647.5469     -1345.4032      1584.3344      206.31274    
  37864500   259.15163     -355.17182     -279.23191     -355.14495      0              3290.1415      45.271237      20.047001      20.857         18928.823      3794.258       3119.5251      2956.6415      693.48969     -1923.4724      544.16417    
  37865000   255.01746     -355.64862     -280.92015     -355.61866      0              7681.3843      45.283011      20.047001      20.857         18933.746      8675.577       7377.7884      6990.7876      218.51256      1271.7739     -607.71255    
  37865500   252.52745     -356.55624     -282.55742     -356.53354      0              4711.4067      45.368561      20.047001      20.857         18969.516      6954.6302      2884.302       4295.2879     -630.91569      294.54033      806.65484    
  37866000   259.47082     -357.16127     -281.12782     -357.13335      0              6043.6029      45.088208      20.047001      20.857         18852.295      6105.2211      5904.2864      6121.3013      317.66216     -169.8727      -3776.3928    
  37866500   254.25205     -356.92474     -282.42056     -356.90814      0              4251.5418      45.1784        20.047001      20.857         18890.006      6924.8404      4107.4056      1722.3794      1179.7906      890.24228     -759.00222    
  37867000   255.25956     -357.54356     -282.74415     -357.52425      0              4522.8328      45.758222      20.047001      20.857         19132.442      5717.4315      3880.1728      3970.8942      94.429845      276.97719      552.97531    
  37867500   255.70252     -357.16002     -282.2308      -357.12349      0              3699.0404      45.581725      20.047001      20.857         19058.644      5308.2799      5544.0799      244.76128     -1498.2217     -2420.8058      457.42806    
  37868000   255.52868     -355.53417     -280.6559      -355.51744      0              7602.4053      45.276943      20.047001      20.857         18931.209      8732.0176      8583.4606      5491.7377      400.27224      225.77597      397.5383     
  37868500   257.39171     -357.03058     -281.60638     -357.00078      0              4333.4852      45.404016      20.047001      20.857         18984.341      4227.2477      5263.6557      3509.5523      367.78558      2518.6368      1412.3892    
  37869000   254.3908      -355.01883     -280.47399     -355.00829      0              5513.8856      45.367544      20.047001      20.857         18969.091      5551.0447      5198.0646      5792.5475      530.59669     -770.65308     -1184.242     
  37869500   257.0229      -356.69131     -281.37519     -356.65312      0              6314.1821      45.284931      20.047001      20.857         18934.549      6784.5532      7808.6681      4349.325       749.91697      423.99028      1526.3129    
  37870000   261.76909     -356.29443     -279.58751     -356.26645      0              5048.0775      45.33736       20.047001      20.857         18956.471      6710.3817      2416.567       6017.2839      1053.0336     -1172.5259     -1005.92      
  37870500   252.93189     -355.85643     -281.7391      -355.8226       0              5116.7169      45.403657      20.047001      20.857         18984.191      6498.7091      3678.1263      5173.3154     -1289.338       265.32426     -218.31185    
  37871000   250.34692     -355.67103     -282.31118     -355.63718      0              4631.3192      45.466996      20.047001      20.857         19010.674      7483.0898      466.40509      5944.4626      313.29996     -595.50269      1529.679     
  37871500   257.64806     -358.36562     -282.8663      -358.31897      0              6956.7764      45.574906      20.047001      20.857         19055.793      8943.3329      4362.9746      7564.0217     -832.30337      22.857742      2352.3452    
  37872000   256.56176     -357.17696     -281.99597     -357.14944      0              4997.5327      45.502796      20.047001      20.857         19025.643      1891.3115      6675.7488      6425.5377      960.18992     -1220.9789     -294.35403    
  37872500   257.00546     -356.52717     -281.21615     -356.48696      0              5871.8681      45.288385      20.047001      20.857         18935.993      6078.218       5437.7253      6099.6609     -1151.0387     -13.076461     -1316.1023    
  37873000   257.5671      -356.17977     -280.70417     -356.16047      0              5233.1562      45.300538      20.047001      20.857         18941.074      5025.3554      6298.7931      4375.3201      665.22615     -654.74439     -2148.7613    
  37873500   260.08168     -354.56483     -278.35238     -354.5349       0              7150.7135      45.342056      20.047001      20.857         18958.434      7371.1798      6274.7749      7806.1859     -441.00817     -2019.806      -186.49347    
  37874000   251.91673     -355.60651     -281.78666     -355.57495      0              2400.6733      45.644423      20.047001      20.857         19084.86       2489.1333      2313.5413      2399.3452      195.22559     -373.95708      2081.5559    
  37874500   260.26439     -356.4709      -280.20492     -356.44546      0              4739.4424      45.508405      20.047001      20.857         19027.988      6658.5849      3163.6302      4396.1121     -482.60437      394.79273      1940.3021    
  37875000   260.33344     -354.36514     -278.07891     -354.35363      0              5582.4919      45.192608      20.047001      20.857         18895.947      7609.9256      6008.2172      3129.3328      205.379       -497.00978     -197.81992    
  37875500   257.84702     -355.7513      -280.19368     -355.72511      0              4870.5449      45.486768      20.047001      20.857         19018.941      7202.9331      4410.4632      2998.2384     -2366.1634     -110.88969     -1258.8248    
  37876000   248.18563     -356.09026     -283.36374     -356.06792      0              3891.2908      45.69374       20.047001      20.857         19105.48       4368.6882      3796.8707      3508.3135     -454.38157     -289.3753      -723.88389    
  37876500   256.20144     -354.21971     -279.1443      -354.20105      0              5458.2635      45.438788      20.047001      20.857         18998.88       7222.5081      5137.9916      4014.2907      40.790459     -796.31719      93.255285    
  37877000   263.41801     -357.49825     -280.30815     -357.46972      0              6705.7697      45.400196      20.047001      20.857         18982.744      8837.9341      3911.7834      7367.5914     -199.61753      286.16114      374.00536    
  37877500   251.10622     -356.12312     -282.54077     -356.07816      0              3909.0768      45.37883       20.047001      20.857         18973.81       5267.1935      3364.1205      3095.9165     -754.79208      704.01706      15.035079    
  37878000   246.08481     -355.92254     -283.81163     -355.88986      0              7528.9029      45.303829      20.047001      20.857         18942.451      8688.718       6968.1015      6929.8891      545.27226     -253.39046      114.81366    
  37878500   250.89974     -358.7135      -285.19166     -358.66827      0              4415.8675      45.390119      20.047001      20.857         18978.53       4082.0229      7247.8498      1917.7297     -658.5248       863.68813      768.71101    
  37879000   257.58212     -356.84646     -281.36647     -356.81339      0              5760.6891      45.37199       20.047001      20.857         18970.95       7477.7521      5495.1605      4309.1548      1089.2254     -1333.499      -226.80986    
  37879500   254.62333     -355.4356      -280.82263     -355.41555      0              6290.7036      45.6269        20.047001      20.857         19077.533      8099.7784      4899.5091      5872.8232     -1633.189      -1668.8922      264.22266    
  37880000   258.17331     -354.40912     -278.75588     -354.38465      0              5561.2653      45.698805      20.047001      20.857         19107.598      5364.5399      6664.3456      4654.9104      491.34488     -3366.2095      320.03271    
  37880500   261.88841     -355.88404     -279.14216     -355.86472      0              4918.1206      45.415722      20.047001      20.857         18989.235      5174.0178      7416.7976      2163.5462     -324.26581     -1657.0114      42.117842    
  37881000   263.20045     -356.82433     -279.69797     -356.79351      0              5778.1422      45.274564      20.047001      20.857         18930.214      4842.3303      5447.4848      7044.6116     -230.62613     -896.65425     -662.74644    
  37881500   255.87345     -357.6216      -282.6423      -357.59657      0              3467.3991      45.391184      20.047001      20.857         18978.976      3425.7211      3313.1411      3663.3349     -436.61825     -1534.7687     -183.17246    
  37882000   257.44        -356.10707     -280.66872     -356.07378      0              4795.2429      45.531645      20.047001      20.857         19037.705      6016.8456      4277.3709      4091.5121     -564.86531      1247.2332     -1015.0997    
  37882500   255.2712      -355.47486     -280.67203     -355.43849      0              3220.3917      45.426252      20.047001      20.857         18993.638      5083.8507      4366.0214      211.30316     -178.69743     -929.61987     -463.6899     
  37883000   257.35709     -357.37408     -281.96003     -357.34928      0              6677.3578      45.221037      20.047001      20.857         18907.833      3909.9266      9582.3236      6539.823       24.997288     -1317.2244     -75.35879     
  37883500   251.60742     -355.54137     -281.81216     -355.52066      0              5356.657       45.469154      20.047001      20.857         19011.576      6733.5937      5622.7702      3713.6071      1806.8741      267.80181     -780.93917    
  37884000   253.58478     -357.10579     -282.79714     -357.08476      0              5421.6728      45.672808      20.047001      20.857         19096.728      6367.9184      4618.2821      5278.8179     -834.28246     -876.34083      63.709573    
  37884500   254.29746     -356.74336     -282.22588     -356.72991      0              3817.0437      45.59182       20.047001      20.857         19062.865      3352.4401      3083.2735      5015.4175      953.27055      268.76136      82.838156    
  37885000   256.83112     -355.87043     -280.6105      -355.85187      0              4503.7384      45.37976       20.047001      20.857         18974.199      8790.817       700.94415      4019.4541     -403.29641      296.62226     -825.15033    
  37885500   249.84988     -355.6184      -282.40421     -355.60516      0              5504.8264      45.379839      20.047001      20.857         18974.232      6003.0576      4831.3998      5680.022       1764.3415     -564.50502     -131.36549    
  37886000   253.10913     -358.62128     -284.45201     -358.60266      0              4721.9048      45.432606      20.047001      20.857         18996.295      6346.6865      5144.6371      2674.3907      1023.1856      1015.9877      170.69856    
  37886500   258.55318     -357.48849     -281.72394     -357.4483       0              3235.8111      45.378379      20.047001      20.857         18973.622      5627.2685      1721.1813      2358.9836     -477.4091      -794.86131     -639.27909    
  37887000   259.09996     -355.52828     -279.60351     -355.50721      0              5568.3101      45.553757      20.047001      20.857         19046.95       5967.2953      6292.256       4445.3789     -840.10939      500.96787     -1779.4699    
  37887500   265.45638     -353.57507     -275.78766     -353.5651       0              1535.51        45.805685      20.047001      20.857         19152.287      1964.2957      432.96742      2209.2669      6.3525145     -979.73449      1356.8072    
  37888000   254.69927     -352.58271     -277.94748     -352.57334      0              4731.5769      45.425247      20.047001      20.857         18993.218      7119.1211      2375.2494      4700.3601     -702.90364      4.6231659     -479.69032    
  37888500   253.22875     -352.73196     -278.52765     -352.73978      0              4306.7007      45.405341      20.047001      20.857         18984.895      4522.7842      3224.7781      5172.5397     -1212.2029     -796.34337      552.25311    
  37889000   261.46457     -353.86276     -277.24508     -353.8656       0              5894.5248      45.669838      20.047001      20.857         19095.486      7337.1777      3868.9249      6477.4716      1070.3167     -382.31113     -779.42621    
  37889500   261.79826     -355.99933     -279.28386     -355.98337      0              5317.9444      45.500186      20.047001      20.857         19024.551      6420.5561      5251.7556      4281.5216      68.898742     -561.01421      684.53378    
  37890000   261.56255     -356.95866     -280.31227     -356.93258      0              5551.5592      45.615003      20.047001      20.857         19072.559      6029.7937      4754.7071      5870.1768     -747.63917      156.931       -498.68077    
  37890500   258.61235     -355.60534     -279.82345     -355.58792      0              4285.6378      45.737846      20.047001      20.857         19123.922      5989.6465      2093.7296      4773.5371      55.774464      30.263304     -846.09863    
  37891000   255.28934     -353.88688     -279.07874     -353.86741      0              2741.3707      45.412295      20.047001      20.857         18987.802      5295.3554      1011.5363      1917.2205     -1356.7433     -1328.1582      792.06769    
  37891500   263.45229     -356.54435     -279.3442      -356.52526      0              6193.3917      45.245703      20.047001      20.857         18918.147      8200.9171      4175.7223      6203.5357     -140.88696      2016.0852      143.46615    
  37892000   256.70108     -355.83254     -280.61072     -355.82538      0              2517.196       45.679241      20.047001      20.857         19099.418      2615.6259      3217.5352      1718.4271     -1363.931      -2080.1814     -572.45114    
  37892500   252.65795     -357.86106     -283.824       -357.82471      0              5118.0851      45.900228      20.047001      20.857         19191.817      4965.6451      4661.2362      5727.3739     -532.66051     -327.2821      -160.90208    
  37893000   254.20187     -353.76362     -279.27415     -353.75004      0              6066.6723      45.643979      20.047001      20.857         19084.674      7807.3628      3715.7056      6676.9485      502.33625      1697.4318      1843.0092    
  37893500   254.01294     -354.68627     -280.25216     -354.69522      0              5746.9744      45.604907      20.047001      20.857         19068.337      7668.8915      4003.0456      5568.986       386.54808      263.55703      813.3755     
  37894000   253.842       -352.97313     -278.58911     -352.95639      0              7526.0119      45.511456      20.047001      20.857         19029.263      9255.5865      8180.5674      5141.8818      1520.6284     -609.35633      1005.7753    
  37894500   255.89815     -355.75788     -280.77134     -355.7465       0              4856.7825      45.557585      20.047001      20.857         19048.551      5035.5012      4170.1851      5364.6612     -1412.1773     -1173.1019      860.92428    
  37895000   255.06297     -354.87706     -280.13526     -354.85045      0              4435.5416      45.732835      20.047001      20.857         19121.827      6611.165       5412.2213      1283.2384      428.24342     -770.29822     -32.800552    
  37895500   256.70251     -353.61861     -278.39636     -353.6159       0              7598.4137      45.663475      20.047001      20.857         19092.826      7424.5392      8819.9484      6550.7533     -1810.3221      534.31161     -704.1059     
  37896000   259.96219     -353.91406     -277.73662     -353.92008      0              5633.4994      45.605798      20.047001      20.857         19068.71       5713.1744      5237.9863      5949.3375      525.52488      186.23253     -22.12323     
  37896500   253.26641     -353.49631     -279.28096     -353.49673      0              5527.3531      45.685821      20.047001      20.857         19102.169      6838.0375      3587.929       6156.0927     -243.18835     -1222.4774     -1407.0107    
  37897000   249.24738     -356.6388      -283.60115     -356.62918      0              5525.4537      45.664323      20.047001      20.857         19093.18       4960.4971      6819.4314      4796.4326     -501.58816      78.497252      2326.0041    
  37897500   258.06257     -357.40252     -281.78174     -357.40183      0              5260.2985      45.550773      20.047001      20.857         19045.703      5312.6425      6190.4368      4277.8163      954.22215      97.360724      440.97507    
  37898000   260.82223     -356.52383     -280.09437     -356.5175       0              5721.3345      45.505795      20.047001      20.857         19026.897      5560.3095      5720.71        5882.9841     -1113.8368      1074.5303     -171.30164    
  37898500   250.78827     -354.53819     -281.04902     -354.53808      0              5754.6687      45.559864      20.047001      20.857         19049.504      7227.7381      5863.2944      4172.9737     -231.75017     -1635.3437     -1167.0572    
  37899000   253.39304     -354.60737     -280.35491     -354.59903      0              2530.2964      45.607375      20.047001      20.857         19069.369      4756.0276      1201.2273      1633.6344     -2267.7727      1453.5176     -307.99859    
  37899500   257.96454     -355.24522     -279.65316     -355.22193      0              6659.0757      45.297276      20.047001      20.857         18939.71       8963.3243      5939.6052      5074.2976      1891.364       201.31133     -1236.1936    
  37900000   256.58335     -354.00731     -278.81999     -354.0018       0              5199.7957      45.194278      20.047001      20.857         18896.645      7470.2767      3809.9436      4319.1667      382.66422     -1698.6945      555.0862     
  37900500   263.93206     -353.57938     -276.23864     -353.59139      0              4247.4716      45.622043      20.047001      20.857         19075.502      3284.5313      4949.8377      4508.0457      1631.5256      1559.9496     -11.272374    
  37901000   268.0638      -355.33527     -276.7838      -355.33034      0              4781.8172      45.655583      20.047001      20.857         19089.526      5948.0182      3821.2996      4576.1338     -905.27056      359.18311      132.99485    
  37901500   256.1948      -355.99789     -280.92442     -356.00696      0              5173.1182      45.404953      20.047001      20.857         18984.732      6251.8312      6492.7089      2774.8144     -182.21375     -1379.4596     -232.7477     
  37902000   248.94283     -354.41059     -281.46219     -354.41023      0              4922.6054      45.241045      20.047001      20.857         18916.199      8358.972       2780.9185      3627.9259     -1278.0986      2154.8973      1050.391     
[...]
  39964500   259.41437     -351.93003     -275.91312     -351.94108      0              6504.4089      45.816128      20.047001      20.857         19156.653      7059.1291      6113.3931      6340.7046     -1498.6802     -386.06396      1144.3622    
  39965000   256.67209     -353.87268     -278.65935     -353.88091      0              6178.088       45.762591      20.047001      20.857         19134.268      6974.6204      6254.2842      5305.3593      162.55642     -2236.6109      1326.5413    
  39965500   256.20109     -354.19641     -279.1211      -354.19619      0              4758.3983      45.464969      20.047001      20.857         19009.826      5348.6232      4582.4643      4344.1073      318.16726     -653.2854      -425.15919    
  39966000   254.9215      -353.78563     -279.08529     -353.79935      0              4441.1054      45.48914       20.047001      20.857         19019.933      3704.9293      3386.3183      6232.0686     -1539.2942      401.85696     -16.906389    
  39966500   258.60779     -356.46257     -280.68202     -356.47671      0              6729.154       45.74786       20.047001      20.857         19128.109      7410.9865      6248.5613      6527.9141      2027.7177     -1141.2878      247.23347    
  39967000   251.19345     -355.51762     -281.90971     -355.5254       0              4149.0563      45.647111      20.047001      20.857         19085.984      5766.2451      5348.4507      1332.4731     -435.32791      539.43758     -157.37559    
  39967500   255.43658     -355.15344     -280.30216     -355.14609      0              5783.4176      45.194823      20.047001      20.857         18896.873      6422.9477      5251.3343      5675.9709     -897.7032       477.78567      927.09855    
  39968000   258.89007     -352.52398     -276.66071     -352.53558      0              6748.1655      45.334966      20.047001      20.857         18955.47       7576.1048      6873.3447      5795.0471     -673.31127     -728.36642      1065.6821    
  39968500   255.04225     -353.7274      -278.99167     -353.74525      0              2747.4373      45.640565      20.047001      20.857         19083.247      3082.3351      1135.5433      4024.4335      504.95323      104.89897      429.75441    
  39969000   258.18414     -354.99636     -279.33996     -355.01061      0              6002.7189      45.385892      20.047001      20.857         18976.763      7712.9552      4411.3579      5883.8436     -1158.5179      651.23507      164.36835    
  39969500   253.54106     -352.93686     -278.64103     -352.94815      0              7600.6823      45.004308      20.047001      20.857         18817.215      9093.2789      7250.7334      6458.0346      1007.6635     -831.20574      1301.6028    
  39970000   249.06143     -354.90521     -281.92206     -354.89993      0              5287.3617      45.357628      20.047001      20.857         18964.945      5560.1086      6001.7071      4300.2693     -1392.311       70.948165     -316.26976    
  39970500   250.61956     -354.75526     -281.31552     -354.75913      0              5804.6469      45.68513       20.047001      20.857         19101.88       7130.3285      6624.9651      3658.647       2592.7345     -86.755611     -765.76249    
  39971000   263.60741     -356.02312     -278.77751     -356.03684      0              5774.3503      45.669562      20.047001      20.857         19095.371      5933.9882      5824.7417      5564.321      -178.76835      790.22677     -286.58739    
  39971500   256.04794     -354.94314     -279.91271     -354.94973      0              3308.5195      45.411411      20.047001      20.857         18987.433      4988.0301      2334.6794      2602.8488      942.77782     -350.82955      416.61323    
  39972000   254.22899     -355.64711     -281.14969     -355.63832      0              4816.2258      45.685152      20.047001      20.857         19101.889      6399.5797      4137.3375      3911.7602     -171.2937       674.50101     -920.81857    
  39972500   252.6966      -356.3092      -282.26083     -356.3194       0              3303.8979      45.914642      20.047001      20.857         19197.844      3935.0044      3252.3919      2724.2974     -499.87412     -265.5674       1484.2937    
  39973000   251.21062     -355.62993     -282.01699     -355.64407      0              5386.8122      45.502163      20.047001      20.857         19025.378      4704.0489      4854.217       6602.1707      211.87186     -482.34169      186.35047    
  39973500   253.74333     -353.74148     -279.38637     -353.75607      0              5997.6154      45.215502      20.047001      20.857         18905.519      8855.5797      5974.8182      3162.4483     -95.032481     -76.867358      705.32756    
  39974000   252.89237     -356.83432     -282.72857     -356.84824      0              2937.4339      45.649561      20.047001      20.857         19087.008      4855.2103      1498.4693      2458.622      -712.70165      873.03987     -150.63956    
  39974500   256.62349     -354.73867     -279.53958     -354.74922      0              4305.3794      45.790388      20.047001      20.857         19145.891      4481.1077      5609.6101      2825.4205      570.0036      -2089.8116      8.4707561    
  39975000   256.02618     -356.46784     -281.44378     -356.47027      0              4747.0585      45.575425      20.047001      20.857         19056.011      5435.2438      3822.3113      4983.6205     -872.652       -637.27134      1702.4687    
  39975500   253.02893     -356.01643     -281.87066     -356.01741      0              5795.2402      45.624692      20.047001      20.857         19076.61       5117.7581      6620.5307      5647.4318     -195.13718      484.10294     -2375.8255    
  39976000   256.89911     -355.88365     -280.6038      -355.88798      0              5592.1585      45.725701      20.047001      20.857         19118.844      3734.8924      7499.2121      5542.3711      721.44667      365.21712     -592.03467    
  39976500   250.33264     -353.33815     -279.98249     -353.35192      0              5550.0327      45.733726      20.047001      20.857         19122.199      8013.3999      5099.4128      3537.2855      313.86613     -1069.113       895.21066    
  39977000   261.99314     -355.03242     -278.25985     -355.03953      0              5641.1407      45.492307      20.047001      20.857         19021.257      5956.6244      3848.3528      7118.4447      346.88904     -879.05209     -191.38873    
  39977500   260.98739     -355.48318     -279.00533     -355.48631      0              6456.0512      45.638057      20.047001      20.857         19082.198      7566.9619      5055.1013      6746.0903     -764.36424      745.45755     -3051.165     
  39978000   252.36938     -353.09049     -279.138       -353.10356      0              4516.2395      46.061295      20.047001      20.857         19259.162      4487.324       4137.4082      4923.9863      1011.3806     -1025.6656      1721.6019    
  39978500   253.84994     -351.5048      -277.11846     -351.58491      0              3848.2492      45.934414      20.047001      20.857         19206.111      3020.1733      4105.7822      4418.792       964.86383     -46.934585      544.51712    
  39979000   260.34756     -350.94665     -274.65629     -350.95207      0              5039.9898      45.406183      20.047001      20.857         18985.247      7085.2584      2620.5176      5414.1935     -123.9395      -932.39087     -613.29455    
  39979500   262.25272     -351.27475     -274.42611     -351.28982      0              3565.4101      45.53522       20.047001      20.857         19039.2        2272.1131      6105.769       2318.3482      1053.4846      582.44723     -531.98667    
  39980000   261.93753     -355.16136     -278.40508     -355.16935      0              7266.157       45.835229      20.047001      20.857         19164.64       9407.9597      3833.4885      8557.0229      291.84412      5.6422906     -1731.872     
  39980500   260.13696     -353.47923     -277.25058     -353.49151      0              3954.9009      45.858445      20.047001      20.857         19174.347      2966.2427      4839.1453      4059.3146     -237.49072      1595.4361      973.63066    
  39981000   259.60115     -351.71945     -275.64781     -351.73131      0              5558.4822      45.75453       20.047001      20.857         19130.898      5617.555       4940.2905      6117.6011     -268.247       -831.11212      352.26321    
  39981500   258.27923     -352.47912     -276.79485     -352.49609      0              2887.8358      45.788924      20.047001      20.857         19145.279      3222.5586      4890.785       550.16387      1017.148       317.49912      2214.5477    
  39982000   255.83958     -353.48821     -278.51883     -353.50252      0              4969.7689      45.556985      20.047001      20.857         19048.3        5488.1958      4655.5307      4765.5802     -1285.7207      511.24749     -1554.4246    
  39982500   257.01658     -355.05425     -279.73998     -355.07017      0              6997.1072      45.688235      20.047001      20.857         19103.179      6756.6878      7090.422       7144.2118     -595.3178      -846.21154     -1663.1164    
  39983000   253.18963     -351.68721     -277.49436     -351.69931      0              6066.3436      45.885233      20.047001      20.857         19185.547      6542.3844      7151.2915      4505.355       63.04618      -1386.7422      1031.8673    
  39983500   254.68951     -352.40317     -277.77081     -352.418        0              5865.5559      45.523599      20.047001      20.857         19034.341      7204.0527      4600.246       5792.3688     -519.94558     -1748.7957      420.82803    
  39984000   256.35321     -352.66128     -277.54139     -352.67243      0              5877.0834      45.553166      20.047001      20.857         19046.704      7976.097       4614.4138      5040.7394     -370.11257     -191.23645     -741.35893    
  39984500   251.4953      -352.99314     -279.29678     -353.00608      0              5691.2422      45.690228      20.047001      20.857         19104.012      6212.4301      5554.3761      5306.9205     -741.93692      638.48197      2192.7915    
  39985000   247.15945     -354.85398     -282.42817     -354.86789      0              5197.6698      45.613229      20.047001      20.857         19071.817      5275.1775      6107.7618      4210.0701      14.901624     -240.04516      1107.1825    
  39985500   246.85951     -352.76027     -280.42235     -352.77267      0              4341.6583      45.438814      20.047001      20.857         18998.89       4289.2616      4918.7115      3817.0018     -192.8252      -852.10835      785.06616    
  39986000   255.88254     -353.8619      -278.87994     -353.85606      0              5857.0699      45.523282      20.047001      20.857         19034.208      5933.1679      6408.1069      5229.9349     -425.37873      22.272047     -27.39274     
  39986500   264.69055     -353.91362     -276.35062     -353.91682      0              4822.2985      45.659842      20.047001      20.857         19091.307      3786.3517      6361.2048      4319.3389     -991.6424       929.53046     -1012.0662    
  39987000   257.23514     -355.07377     -279.69545     -355.08385      0              4405.9145      45.855481      20.047001      20.857         19173.107      3499.4597      3678.8203      6039.4635      236.13582     -612.67626     -330.33403    
  39987500   250.45943     -354.28012     -280.88731     -354.29326      0              4544.8717      45.704039      20.047001      20.857         19109.786      5562.9726      3520.742       4550.9005      297.13815      741.06212     -2042.636     
  39988000   249.1095      -353.11335     -280.11611     -353.1211       0              4658.7516      45.268094      20.047001      20.857         18927.509      6226.9321      4119.8082      3629.5144      189.81779     -472.64371     -124.65107    
  39988500   255.16464     -353.34672     -278.57512     -353.35189      0              5168.9278      45.481116      20.047001      20.857         19016.578      6357.2743      5208.47        3941.0391     -404.04261      1899.2528      338.92737    
  39989000   254.3067      -352.29781     -277.77762     -352.31181      0              4652.714       45.764526      20.047001      20.857         19135.077      4779.2318      2474.1176      6704.7928      742.16785      36.330807     -350.26308    
  39989500   255.3573      -356.25048     -281.42243     -356.25869      0              4213.4878      45.41727       20.047001      20.857         18989.882      4657.6403      4933.0227      3049.8004     -1545.0923     -388.56164     -863.76586    
  39990000   255.04438     -354.99997     -280.26361     -354.99637      0              7777.2997      45.350659      20.047001      20.857         18962.031      10142.37       6908.1613      6281.3676      610.76315     -203.96015      1213.9684    
  39990500   250.66148     -354.49849     -281.04647     -354.50994      0              3468.8008      45.650133      20.047001      20.857         19087.247      4081.1149      3448.7112      2876.5762      1242.4028      1270.6811     -1006.6428    
  39991000   250.36337     -354.41656     -281.0519      -354.4095       0              6439.9231      45.629879      20.047001      20.857         19078.779      6494.9215      7287.7617      5537.0861     -286.85521     -486.43549     -963.32645    
  39991500   247.34189     -358.83934     -286.36006     -358.84342      0              5895.5316      45.735179      20.047001      20.857         19122.807      8114.2957      5756.3637      3815.9353     -159.79189      835.9305       757.00346    
  39992000   243.71361     -357.76896     -286.35289     -357.76043      0              5048.1147      45.773822      20.047001      20.857         19138.964      5336.4606      6943.2934      2864.5901     -856.04328      228.67045     -2087.151     
  39992500   250.6093      -356.19405     -282.75732     -356.16767      0              4504.5538      45.653985      20.047001      20.857         19088.858      4425.3311      5883.8121      3204.5183     -1290.1242      961.29918      143.88387    
  39993000   261.31192     -357.15238     -280.57943     -357.1265       0              8294.1222      45.604122      20.047001      20.857         19068.009      9641.6631      7511.8213      7728.8821      249.12996     -298.10348     -338.36462    
  39993500   257.21266     -353.40165     -278.02992     -353.39987      0              4208.9576      45.860179      20.047001      20.857         19175.072      4468.3664      3945.5192      4212.9872     -584.05207      405.36036     -1006.7961    
  39994000   253.73848     -353.89956     -279.54588     -353.91412      0              4384.9896      46.033807      20.047001      20.857         19247.669      5170.6966      4359.4705      3624.8015      397.57445     -62.072974      664.50711    
  39994500   249.72045     -352.02967     -278.8534      -352.04216      0              6710.7709      45.582914      20.047001      20.857         19059.141      5924.6725      8230.1797      5977.4605      613.55146      676.49291      1363.9344    
  39995000   256.31893     -354.85388     -279.74404     -354.85257      0              5989.3098      45.205616      20.047001      20.857         18901.386      7550.5648      5889.7655      4527.5992     -1465.312       1845.2712     -1234.2144    
  39995500   249.26675     -354.4953      -281.45198     -354.49346      0              6272.686       45.691176      20.047001      20.857         19104.408      5778.4862      8540.9962      4498.5757     -29.767126      800.26473     -578.27477    
  39996000   257.48596     -355.32249     -279.87067     -355.31882      0              3351.8093      45.843905      20.047001      20.857         19168.267      5264.903       3074.2152      1716.3096      801.64071      344.93697     -1223.7071    
  39996500   256.40064     -355.36423     -280.23045     -355.36007      0              3963.0055      45.534629      20.047001      20.857         19038.953      5047.8485      4726.7124      2114.4555      334.27496      217.84546      20.926584    
  39997000   253.10473     -352.55445     -278.38647     -352.53543      0              7471.9696      45.315438      20.047001      20.857         18947.305      8359.735       7286.7271      6769.4466     -30.812783      705.16763      1470.3058    
  39997500   251.56009     -353.72577     -280.01043     -353.71567      0              5912.3822      45.461612      20.047001      20.857         19008.423      6401.2888      6896.6743      4439.1834      463.59002     -797.64661      701.43913    
  39998000   256.15308     -354.97037     -279.90913     -354.95897      0              4447.9058      45.660849      20.047001      20.857         19091.728      5309.1152      3194.5599      4840.0422     -979.17665     -1730.5786      1093.1401    
  39998500   259.42717     -354.95185     -278.93119     -354.95025      0              4350.6685      45.636706      20.047001      20.857         19081.633      7916.9276      1148.5534      3986.5244      326.18223      969.16477      1042.0652    
  39999000   255.8384      -356.01207     -281.04304     -356.00752      0              3672.9193      45.563545      20.047001      20.857         19051.043      5355.4771      880.19744      4783.0834     -755.59573     -1112.05       -630.38295    
  39999500   258.203       -355.89381     -280.23187     -355.90409      0              5631.9127      45.457375      20.047001      20.857         19006.651      7966.1487      4235.5139      4694.0756      335.49127      1263.824      -101.21819    
  40000000   264.44742     -356.03124     -278.53949     -356.0193       0              4765.8247      45.517583      20.047001      20.857         19031.825      6037.7253      6103.7546      2155.994      -23.944476     -1664.0002     -1969.2017    
Loop time of 52093.4 on 4 procs for 2243500 steps with 2268 atoms

Performance: 1.860 ns/day, 12.900 hours/ns, 43.067 timesteps/s
951.1% CPU use with 4 MPI tasks x no OpenMP threads

MPI task timing breakdown:
Section |  min time  |  avg time  |  max time  |%varavg| %total
---------------------------------------------------------------
Pair    | 28298      | 28408      | 28468      |  39.3 | 54.53
Bond    | 0.25836    | 0.26746    | 0.28646    |   2.2 |  0.00
Neigh   | 740.88     | 755.41     | 763.43     |  32.8 |  1.45
Comm    | 2967.5     | 3030.5     | 3130.4     | 123.0 |  5.82
Output  | 1735.5     | 1735.5     | 1735.5     |   0.1 |  3.33
Modify  | 18117      | 18157      | 18182      |  19.1 | 34.85
Other   |            | 6.644      |            |       |  0.01

Nlocal:            567 ave         577 max         558 min
Histogram: 1 0 0 0 2 0 0 0 0 1
Nghost:           3787 ave        3826 max        3750 min
Histogram: 1 0 0 0 1 1 0 0 0 1
Neighs:              0 ave           0 max           0 min
Histogram: 4 0 0 0 0 0 0 0 0 0
FullNghs:       144718 ave      146668 max      142451 min
Histogram: 1 0 0 0 1 0 0 1 0 1

Total # of neighbors = 578874
Ave neighs/atom = 255.23545
Ave special neighs/atom = 0
Neighbor list builds = 224350
Dangerous builds not checked

unfix		4
unfix		3
unfix		1

write_data	data.final.${pid}
write_data	data.final.0
System init for write_data ...
Generated 0 of 1 mixed pair_coeff terms from geometric mixing rule
write_restart	restart.lmp.${pid}
write_restart	restart.lmp.0
System init for write_restart ...
Generated 0 of 1 mixed pair_coeff terms from geometric mixing rule
Total wall time: 14:28:32
