LAMMPS (23 Jun 2022)
echo both

include		in.partitions
variable        pid world 0
include		in.temp
variable	temperature equal 255.0
variable        tempDamp equal 0.100 # this is 0.1 ps
include		in.pressure
variable        pressure equal 6079.5
variable        pressureDamp equal 1.0 #this is 1ps
include		in.seed
variable        seed world 745823

units           metal
atom_style	full
read_restart	restart.lmp.${pid}
read_restart	restart.lmp.0
Reading restart file ...
  restart file = 23 Jun 2022, LAMMPS = 23 Jun 2022
  restoring atom style full from restart
  orthogonal box = (1.0506022 0 0) to (46.400097 20.047001 20.857)
  4 by 1 by 1 MPI processor grid
Summary of lammps deepmd module ...
  >>> Info of deepmd-kit:
  installed to:       /u/sigbjobo/software/DEEPMD_FROM_SOURCE/deepmd-kit/install
  source:             v2.1.3
  source branch:       master
  source commit:      5a32c49
  source commit at:   2022-07-01 09:52:58 +0800
  surpport model ver.:1.1 
  build float prec:   double
  build with tf inc:  /u/sigbjobo/software/DEEPMD_FROM_SOURCE/tensorflow/install/include;/u/sigbjobo/software/DEEPMD_FROM_SOURCE/tensorflow/install/include
  build with tf lib:  /u/sigbjobo/software/DEEPMD_FROM_SOURCE/tensorflow/install/lib/libtensorflow_cc.so;/u/sigbjobo/software/DEEPMD_FROM_SOURCE/tensorflow/install/lib/libtensorflow_framework.so
  set tf intra_op_parallelism_threads: 0
  set tf inter_op_parallelism_threads: 0
  >>> Info of lammps module:
  use deepmd-kit at:  /u/sigbjobo/software/DEEPMD_FROM_SOURCE/deepmd-kit/install
  source:             v2.1.3
  source branch:      master
  source commit:      5a32c49
  source commit at:   2022-07-01 09:52:58 +0800
  build float prec:   double
  build with tf inc:  /u/sigbjobo/software/DEEPMD_FROM_SOURCE/tensorflow/install/include;/u/sigbjobo/software/DEEPMD_FROM_SOURCE/tensorflow/install/include
  build with tf lib:  /u/sigbjobo/software/DEEPMD_FROM_SOURCE/tensorflow/install/lib/libtensorflow_cc.so;/u/sigbjobo/software/DEEPMD_FROM_SOURCE/tensorflow/install/lib/libtensorflow_framework.so
  restoring pair style deepmd from restart
  2268 atoms
Finding 1-2 1-3 1-4 neighbors ...
  special bond factors lj:    0        0        0       
  special bond factors coul:  0        0        0       
     0 = max # of 1-2 neighbors
     0 = max # of 1-3 neighbors
     0 = max # of 1-4 neighbors
     1 = max # of special neighbors
  special bonds CPU = 0.001 seconds
  read_restart CPU = 0.009 seconds
include 	in.setup
variable	out_freq equal 500
variable	out_freq2 equal 1000
variable	out_freq3 equal 5000

timestep        0.0005

neigh_modify    delay 7 every 1

include         in.deepmd
# This is deepMD model

# create groups ###
#group ox type 2
#group hy type 1

mass 2 15.999
mass 1 1.008

pair_style      deepmd ../graph.pb
pair_coeff      * *

bond_style      none
angle_style     none
dihedral_style  none
improper_style  none
neigh_modify exclude none


neighbor        2.0 bin
neigh_modify    every 10 delay 0 check no

thermo          ${out_freq}
thermo          500
thermo_style 	custom step temp pe etotal epair emol press lx ly lz vol pxx pyy pzz pxy pxz pyz
#thermo_modify	flush yes
restart 	${out_freq} restart.lmp.${pid} restart2.lmp.${pid}
restart 	500 restart.lmp.${pid} restart2.lmp.${pid}
restart 	500 restart.lmp.0 restart2.lmp.${pid}
restart 	500 restart.lmp.0 restart2.lmp.0

include		in.dump
dump            myDump all atom ${out_freq3} dump.water.${pid}
dump            myDump all atom 5000 dump.water.${pid}
dump            myDump all atom 5000 dump.water.0
dump            myDump2 all dcd ${out_freq2} dump.dcd.${pid}
dump            myDump2 all dcd 1000 dump.dcd.${pid}
dump            myDump2 all dcd 1000 dump.dcd.0
dump_modify     myDump append yes
dump_modify     myDump2 append yes


timer           timeout 23:50:00 every 1000
New timer settings: style=normal  mode=nosync  timeout=23:50:00

fix             1 all plumed plumedfile plumed.dat outfile plumed.out
fix             3 all nph x ${pressure} ${pressure} ${pressureDamp}
fix             3 all nph x 6079.5 ${pressure} ${pressureDamp}
fix             3 all nph x 6079.5 6079.5 ${pressureDamp}
fix             3 all nph x 6079.5 6079.5 1
Resetting global fix info from restart file:
  fix style: nph, fix ID: 3
fix             4 all temp/csvr ${temperature} ${temperature} ${tempDamp} ${seed}
fix             4 all temp/csvr 255 ${temperature} ${tempDamp} ${seed}
fix             4 all temp/csvr 255 255 ${tempDamp} ${seed}
fix             4 all temp/csvr 255 255 0.1 ${seed}
fix             4 all temp/csvr 255 255 0.1 745823
Resetting global fix info from restart file:
  fix style: temp/csvr, fix ID: 4

run             40000000 upto

CITE-CITE-CITE-CITE-CITE-CITE-CITE-CITE-CITE-CITE-CITE-CITE-CITE

Your simulation uses code contributions which should be cited:

- USER-DEEPMD package:

@article{Wang_ComputPhysCommun_2018_v228_p178,
  author = {Wang, Han and Zhang, Linfeng and Han, Jiequn and E, Weinan},
  doi = {10.1016/j.cpc.2018.03.016},
  url = {https://doi.org/10.1016/j.cpc.2018.03.016},
  year = 2018,
  month = {jul},
  publisher = {Elsevier {BV}},
  volume = 228,
  journal = {Comput. Phys. Commun.},
  title = {{DeePMD-kit: A deep learning package for many-body potential energy representation and molecular dynamics}},
  pages = {178--184}
}

CITE-CITE-CITE-CITE-CITE-CITE-CITE-CITE-CITE-CITE-CITE-CITE-CITE

Generated 0 of 1 mixed pair_coeff terms from geometric mixing rule
All restart file global fix info was re-assigned
Neighbor list info ...
  update every 10 steps, delay 0 steps, check no
  max neighbors/atom: 2000, page size: 100000
  master list distance cutoff = 8
  ghost atom cutoff = 8
  binsize = 4, bins = 12 6 6
  1 neighbor lists, perpetual/occasional/extra = 1 0 0
  (1) pair deepmd, perpetual
      attributes: full, newton on
      pair build: full/bin
      stencil: full/bin/3d
      bin: standard
Per MPI rank memory allocation (min/avg/max) = 6.149 | 6.151 | 6.154 Mbytes
   Step          Temp          PotEng         TotEng         E_pair         E_mol          Press            Lx             Ly             Lz           Volume          Pxx            Pyy            Pzz            Pxy            Pxz            Pyz      
  28878500   254.26735     -351.5429      -277.03424     -351.5429       0              5797.4706      45.349495      20.047001      20.857         18961.544      8365.0413      5761.3038      3266.0667     -596.12716      1166.5431     -537.94456    
  28879000   248.01403     -354.65803     -281.98179     -354.66658      0              5777.2988      45.415658      20.047001      20.857         18989.208      6366.3543      6806.9269      4158.6152     -186.45283     -183.84776      1257.1561    
  28879500   247.70951     -354.23272     -281.64572     -354.25019      0              5396.0211      45.38635       20.047001      20.857         18976.954      7857.5759      3196.3788      5134.1084      377.93905     -2554.6227     -768.93736    
  28880000   255.03354     -354.52294     -279.78976     -354.52601      0              6798.1597      45.05313       20.047001      20.857         18837.628      8754.877       6318.9269      5320.6751     -20.651936      475.1612      -182.77415    
  28880500   257.06401     -356.25913     -280.93095     -356.26381      0              5837.8449      45.20333       20.047001      20.857         18900.43       5320.1884      6016.9445      6176.4019      524.57935      515.76571      1500.3317    
  28881000   252.17803     -356.22069     -282.32427     -356.22776      0              6120.0603      45.76525       20.047001      20.857         19135.38       5851.6731      6807.2576      5701.25        493.31951      1368.7624      1258.9968    
  28881500   252.92493     -352.47412     -278.35883     -352.48658      0              2272.0228      45.80369       20.047001      20.857         19151.453      3526.3614      985.34393      2304.363      -70.531572      1266.6852      950.08666    
  28882000   256.71679     -353.70527     -278.47884     -353.71586      0              6319.6502      45.50261       20.047001      20.857         19025.565      6692.7622      6930.0303      5336.1581     -1553.7171      214.30255      493.36871    
  28882500   252.55848     -356.08248     -282.07457     -356.08338      0              5882.6844      45.537093      20.047001      20.857         19039.983      7331.7041      5714.3315      4602.0175     -1130.7011      1571.5063      1627.3682    
  28883000   254.88019     -356.14221     -281.45397     -356.14643      0              4223.6931      45.759579      20.047001      20.857         19133.009      3278.9874      1974.0458      7418.046       2248.4554     -277.92652     -1268.6976    
  28883500   259.25035     -358.52301     -282.55416     -358.53543      0              5315.2318      45.802009      20.047001      20.857         19150.75       6872.1155      5400.0164      3673.5636      599.33057      789.55005      1095.898     
  28884000   249.07782     -356.29279     -283.30483     -356.2839       0              4307.9192      45.58312       20.047001      20.857         19059.228      4248.1835      3620.945       5054.6291      762.75083     -21.288736      543.4829     
  28884500   252.00027     -356.43008     -282.58575     -356.43036      0              4797.4192      45.535966      20.047001      20.857         19039.512      5744.7092      5529.7812      3117.767       320.87207     -1292.3403     -155.35531    
  28885000   254.52653     -355.99123     -281.40663     -355.98962      0              7262.2357      45.626381      20.047001      20.857         19077.316      7077.9551      6276.5665      8432.1854      1761.4098     -569.29908      888.06481    
  28885500   258.3652      -354.8617      -279.15224     -354.84649      0              4795.5231      45.636852      20.047001      20.857         19081.694      6411.6053      3573.2322      4401.7318     -1407.8253     -771.98713      614.03132    
  28886000   255.33815     -355.75937     -280.93693     -355.76036      0              5691.2583      45.694819      20.047001      20.857         19105.932      7833.3102      3619.4945      5620.9703      849.6514       128.88724      1185.3767    
  28886500   252.78212     -356.58456     -282.51112     -356.58317      0              5980.7733      45.650724      20.047001      20.857         19087.494      8130.2963      4645.5006      5166.5229     -1174.131      -1117.2493     -964.23215    
  28887000   254.22059     -355.71787     -281.22291     -355.71414      0              5726.8463      45.647562      20.047001      20.857         19086.172      7660.9229      5082.6816      4436.9344     -345.61463     -1084.2884      373.07862    
  28887500   255.32551     -352.0227      -277.20396     -352.02395      0              6170.8088      45.598341      20.047001      20.857         19065.592      6393.7783      5356.2706      6762.3774      1248.7125     -1387.0018      221.43745    
  28888000   257.22138     -354.60922     -279.23493     -354.6236       0              5506.6941      45.687446      20.047001      20.857         19102.849      4623.3542      6433.2475      5463.4807      1609.0395      642.87578     -1002.0024    
  28888500   260.0928      -355.54069     -279.32499     -355.55203      0              6169.3313      45.590032      20.047001      20.857         19062.118      7907.7519      5978.6021      4621.6399      715.41358      50.217692     -1266.4345    
  28889000   246.60153     -356.39133     -284.12901     -356.40534      0              5385.424       45.295025      20.047001      20.857         18938.769      7047.283       5406.9443      3702.0448      1616.6348      1470.7376      1347.4598    
  28889500   252.29516     -356.76428     -282.83354     -356.77251      0              5726.3879      45.258577      20.047001      20.857         18923.53       6514.2877      7876.9199      2787.956       1294.9072      79.393021      71.355079    
  28890000   255.07365     -356.65989     -281.91495     -356.67331      0              5698.9256      45.637921      20.047001      20.857         19082.141      6101.6352      4616.2827      6378.859      -154.04925     -3039.6193     -1416.9285    
  28890500   252.22839     -357.25132     -283.34014     -357.27514      0              4938.9293      45.837233      20.047001      20.857         19165.478      3328.1483      6152.668       5335.9716      87.49133      -38.72213      -161.36297    
  28891000   255.28052     -355.80974     -281.00418     -355.82352      0              6192.882       45.597883      20.047001      20.857         19065.4        5174.9752      6395.8858      7007.7852     -628.50286      496.08059      1743.4958    
  28891500   257.60493     -354.48259     -278.99591     -354.48791      0              4290.9468      45.404415      20.047001      20.857         18984.507      3468.613       4211.1753      5193.0521     -181.31436     -255.33788      866.73751    
  28892000   241.73745     -357.66499     -286.828       -357.65567      0              6632.3998      45.551414      20.047001      20.857         19045.971      8350.5035      4860.5607      6686.1353     -199.29411     -222.17779     -294.36772    
  28892500   241.96828     -356.92898     -286.02435     -356.93004      0              4962.7514      45.732946      20.047001      20.857         19121.873      6186.8008      4371.9273      4329.526      -530.96295      402.05795     -272.94783    
  28893000   251.55624     -355.75173     -282.03751     -355.74974      0              6907.7416      45.496822      20.047001      20.857         19023.145      6802.5921      5420.7002      8499.9324      87.065756      654.34847      1179.7153    
  28893500   259.35778     -355.49002     -279.4897      -355.48227      0              5475.0446      45.584957      20.047001      20.857         19059.996      7023.8391      4540.4614      4860.8333      419.29252     -911.69985      951.05923    
  28894000   253.59833     -355.45132     -281.1387      -355.4618       0              3969.1788      45.619876      20.047001      20.857         19074.596      7252.2426      1555.4598      3099.8338      2850.0674      854.87942      226.82216    
  28894500   251.66333     -354.64711     -280.90151     -354.64353      0              4675.1462      45.528006      20.047001      20.857         19036.184      7917.4263      3336.7204      2771.2918      1401.159      -156.16035     -992.16262    
  28895000   248.88236     -353.47187     -280.54119     -353.467        0              6368.2723      45.622588      20.047001      20.857         19075.73       5521.1393      6855.3416      6728.3359      276.20604      28.206164     -243.8729     
  28895500   256.67818     -353.78146     -278.56635     -353.77893      0              3754.9345      45.683199      20.047001      20.857         19101.073      5202.7082      2280.6524      3781.443      -662.933       -826.60048     -1348.8678    
  28896000   256.39398     -355.56156     -280.42973     -355.55899      0              7162.7698      45.50617       20.047001      20.857         19027.053      8586.3366      4674.3212      8227.6516      2679.8377      1302.3541     -1786.2561    
  28896500   245.22456     -354.4165      -282.55767     -354.40934      0              3193.6472      45.451271      20.047001      20.857         19004.099      5008.3585      95.521362      4477.0618     -400.09291      1097.3991      1860.2474    
  28897000   253.17842     -356.39903     -282.20946     -356.38847      0              4244.6628      45.746337      20.047001      20.857         19127.472      5535.8932      4585.8489      2612.2463      1973.4772     -195.41324     -705.12317    
  28897500   265.3917      -353.59148     -275.82303     -353.59785      0              6424.4197      45.832423      20.047001      20.857         19163.466      5868.5097      7364.7516      6039.9978     -782.90524     -270.63695      2258.5283    
  28898000   256.3166      -355.23556     -280.1264      -355.23569      0              4816.0581      45.278219      20.047001      20.857         18931.743      3417.8981      6283.6773      4746.599      -56.998155      1089.1886      154.55973    
  28898500   261.59441     -353.50004     -276.84431     -353.51365      0              6059.4684      45.446314      20.047001      20.857         19002.027      5721.8424      7685.2856      4771.2771      15.232444      2046.8315     -573.18053    
  28899000   255.63015     -356.2923      -281.3843      -356.30137      0              6695.3429      45.940001      20.047001      20.857         19208.447      7966.0647      6525.6599      5594.304       955.78326     -460.20916     -299.18187    
  28899500   256.89601     -357.16218     -281.88324     -357.1678       0              6323.931       45.897704      20.047001      20.857         19190.762      8694.8085      5956.989       4319.9956     -650.36471      828.67025      227.73928    
  28900000   248.23507     -354.06122     -281.32021     -354.04861      0              6189.7469      45.610446      20.047001      20.857         19070.653      7532.0263      5008.4075      6028.8069      305.21445     -984.62523     -119.26027    
  28900500   258.18528     -354.32804     -278.6713      -354.3347       0              7542.3193      45.588519      20.047001      20.857         19061.485      10291.853      5668.2762      6666.8284     -939.36962      1095.9117     -2029.6963    
  28901000   253.73987     -352.02955     -277.67545     -352.02952      0              4267.5044      45.581424      20.047001      20.857         19058.519      5318.7215      4173.2593      3310.5324      877.82433     -1758.958       888.29293    
  28901500   259.96478     -352.61632     -276.43813     -352.62038      0              6507.5238      45.672225      20.047001      20.857         19096.484      5861.4985      6273.0866      7387.9862      1234.8417     -42.324766     -337.20361    
  28902000   251.91165     -351.69273     -277.87436     -351.69543      0              5177.4707      45.478591      20.047001      20.857         19015.522      4432.6432      7068.7005      4031.0684      212.91513     -1741.6038     -2108.014     
  28902500   256.55687     -354.09598     -278.91642     -354.08494      0              7234.9799      45.298547      20.047001      20.857         18940.242      8309.0547      6713.4524      6682.4327      1460.6701      565.7389      -375.02634    
  28903000   255.95289     -354.93117     -279.92859     -354.92218      0              6000.5602      45.563058      20.047001      20.857         19050.84       7287.89        7205.9194      3507.8713      100.55341      404.35585     -54.239579    
  28903500   250.56845     -354.91        -281.48524     -354.91254      0              5092.7531      45.799821      20.047001      20.857         19149.835      5615.878       6318.1853      3344.1962     -520.41192     -528.89182     -90.792591    
  28904000   258.15485     -354.58254     -278.93472     -354.59305      0              6180.1132      45.569317      20.047001      20.857         19053.457      7897.6201      5918.2037      4724.5157     -1586.2175      2966.6877      1139.4956    
  28904500   256.94526     -355.08313     -279.78975     -355.07368      0              6657.4689      45.414341      20.047001      20.857         18988.658      7707.4766      5624.2641      6640.666       1347.9287     -1620.7978     -1534.7733    
  28905000   258.2123      -357.86011     -282.19545     -357.84985      0              5208.5632      45.683767      20.047001      20.857         19101.311      6610.0841      3839.6558      5175.9496     -454.15232      481.16328      2007.8371    
  28905500   255.36788     -357.83111     -282.99996     -357.82429      0              5537.5304      45.760534      20.047001      20.857         19133.408      5228.4894      8926.2659      2457.8359     -491.70485     -250.34597      1244.2428    
  28906000   257.40184     -356.60767     -281.1805      -356.58376      0              6191.8204      45.595167      20.047001      20.857         19064.265      7210.2553      6429.9798      4935.2261     -388.51078     -485.59276     -284.93373    
  28906500   254.87719     -354.70442     -280.01706     -354.68971      0              4782.8422      45.365441      20.047001      20.857         18968.212      6720.9063      4190.8068      3436.8134      936.16181     -1355.2383      115.08792    
  28907000   252.23399     -355.8272      -281.91438     -355.83145      0              3741.2086      45.427916      20.047001      20.857         18994.334      4445.0664      2097.3166      4681.2427     -209.64842     -697.60298      491.12385    
  28907500   255.58082     -352.96859     -278.07505     -352.97956      0              4056.8576      45.522016      20.047001      20.857         19033.679      3126.0346      4467.3597      4577.1784      106.86172      411.37005      782.38893    
  28908000   256.99356     -355.98752     -280.67999     -355.97225      0              4086.7515      45.567486      20.047001      20.857         19052.691      7198.2639      2985.5726      2076.4181      216.07635      817.05714     -2316.7097    
  28908500   250.12161     -355.6261      -282.33228     -355.60569      0              4102.0274      45.531023      20.047001      20.857         19037.445      5061.9291      2503.6539      4740.4993      311.42057      587.20097      1478.6673    
  28909000   249.38603     -353.66947     -280.5912      -353.65627      0              5593.72        45.446832      20.047001      20.857         19002.243      6699.216       4359.4262      5722.5179     -229.28952      1195.682       1202.8119    
  28909500   250.14631     -355.14342     -281.84236     -355.12818      0              3890.4564      45.425184      20.047001      20.857         18993.192      3315.9482      6835.4877      1519.9334     -1717.9153      1020.673      -1371.2059    
  28910000   256.64299     -351.93669     -276.73189     -351.94245      0              6981.5001      45.273023      20.047001      20.857         18929.57       7499.777       5270.3626      8174.3608      341.22796     -1534.6911      1006.4858    
  28910500   257.39768     -354.08351     -278.65756     -354.09939      0              4600.5592      45.281309      20.047001      20.857         18933.035      4743.0835      4338.641       4719.9531     -370.95161     -394.44946     -643.0268     
  28911000   262.58471     -355.81981     -278.87389     -355.80637      0              3710.2109      45.370802      20.047001      20.857         18970.453      4902.6304      2198.8628      4029.1396     -1031.3317     -248.09697      1641.4225    
  28911500   257.42051     -355.89982     -280.46718     -355.88339      0              5703.8469      45.530098      20.047001      20.857         19037.058      7758.0509      3371.9071      5981.5827     -146.25988     -160.84755     -47.411817    
  28912000   253.53308     -355.57067     -281.27718     -355.57432      0              6329.2417      45.630291      20.047001      20.857         19078.951      7164.5993      5370.9298      6452.1959      485.20306      526.50019      1713.0655    
  28912500   254.58395     -356.41018     -281.80875     -356.38277      0              4025.5147      45.171674      20.047001      20.857         18887.194      5707.1176      3839.3621      2530.0645      37.553424      1851.9012      243.661      
  28913000   251.86258     -354.05245     -280.24846     -354.03337      0              6294.0095      44.943196      20.047001      20.857         18791.662      6608.8186      5935.7218      6337.4881      360.38617      590.25375     -518.32963    
  28913500   247.49098     -355.51759     -282.99463     -355.50643      0              5302.6326      45.461799      20.047001      20.857         19008.501      5765.8671      4315.4906      5826.5401      1364.4472     -1653.2051     -560.10593    
  28914000   255.19798     -358.27396     -283.4926      -358.26317      0              3559.8516      45.621842      20.047001      20.857         19075.418      3834.0586      2339.255       4506.2413     -2582.4035      875.3474       374.74686    
  28914500   249.61299     -356.96225     -283.81747     -356.93163      0              6751.6388      45.22449       20.047001      20.857         18909.277      9331.4516      4664.0359      6259.4289      319.46372      1019.2752      1908.1724    
  28915000   251.67994     -354.77504     -281.02458     -354.76482      0              8419.2416      45.198284      20.047001      20.857         18898.32       7774.9647      6893.5839      10589.176     -899.24934      49.591925      1305.6966    
  28915500   255.08825     -353.88015     -279.13093     -353.87354      0              5728.6685      45.341076      20.047001      20.857         18958.024      5846.739       6239.3499      5099.9167     -195.83369      245.85344      525.13103    
  28916000   254.54437     -354.0256      -279.43576     -354.03202      0              6044.9613      45.454642      20.047001      20.857         19005.509      7388.0746      7232.4284      3514.3809      926.64652     -1270.6056     -715.07325    
  28916500   254.17846     -353.7243      -279.24168     -353.71646      0              6889.6227      45.280596      20.047001      20.857         18932.736      6092.1551      8063.8507      6512.8623      725.49772      1416.1332      969.15561    
  28917000   258.2352      -355.78058     -280.10921     -355.78698      0              5746.5277      45.183213      20.047001      20.857         18892.019      5390.1522      3539.0515      8310.3794      977.39424      1450.9689      1593.9164    
  28917500   260.14309     -354.95733     -278.72688     -354.97067      0              5850.2859      45.230135      20.047001      20.857         18911.638      3705.7471      7501.1016      6344.009       842.67014     -672.44324      2140.4087    
  28918000   256.04593     -355.36036     -280.33052     -355.36975      0              6972.5152      45.363805      20.047001      20.857         18967.528      7037.314       5764.3501      8115.8816      917.57525     -832.40541      87.620617    
  28918500   252.1557      -354.40712     -280.51724     -354.40533      0              4940.8575      45.596158      20.047001      20.857         19064.679      4327.7452      4824.823       5670.0043      342.40075     -1991.484       1552.8664    
  28919000   257.66632     -356.52406     -281.01939     -356.52484      0              5095.8377      45.532362      20.047001      20.857         19038.005      4702.5844      4797.2861      5787.6425     -581.46421      645.43948     -110.17542    
  28919500   261.37822     -354.95618     -278.3638      -354.96561      0              4834.0293      45.241406      20.047001      20.857         18916.35       4519.2123      6244.4321      3738.4435     -109.46633     -327.99232      1155.6655    
  28920000   261.02795     -355.34357     -278.85384     -355.34351      0              4611.7514      45.124548      20.047001      20.857         18867.489      5211.8227      3691.4465      4931.985       363.24594     -202.14376     -723.87369    
  28920500   258.80252     -355.27971     -279.4421      -355.28703      0              4745.1899      45.599035      20.047001      20.857         19065.882      6264.6362      3782.5207      4188.4127      601.14804      591.36213      412.18591    
  28921000   254.32935     -355.80533     -281.27851     -355.81674      0              4179.0299      46.00707       20.047001      20.857         19236.49       6125.4708      1775.1076      4636.5113      21.402753     -519.99664     -904.26928    
  28921500   255.09413     -352.60845     -277.85752     -352.59696      0              3786.5847      45.617633      20.047001      20.857         19073.659      2501.4785      4797.637       4060.6386     -46.40802       301.47541     -929.75558    
  28922000   259.82644     -356.48142     -280.34376     -356.47372      0              5898.8488      45.105094      20.047001      20.857         18859.355      6705.9762      5233.9048      5756.6654     -612.2484       533.12057      2242.628     
  28922500   255.98427     -356.23655     -281.22478     -356.23818      0              6328.3464      45.384437      20.047001      20.857         18976.155      7908.666       4678.7846      6397.5885      219.39102     -529.76881      980.05411    
  28923000   257.64483     -354.27613     -278.77776     -354.28101      0              5172.3618      45.574175      20.047001      20.857         19055.488      4805.3304      5057.6418      5654.1131     -821.44191      287.87948     -698.53559    
  28923500   253.36127     -352.90909     -278.66594     -352.90455      0              4417.1319      45.399898      20.047001      20.857         18982.619      4671.8526      6559.6154      2019.9278     -530.73041     -112.17397     -756.64893    
  28924000   250.30699     -354.61889     -281.27074     -354.61262      0              7317.5489      45.355481      20.047001      20.857         18964.047      8027.9349      5523.5147      8401.197       206.8813       1117.5778     -248.23894    
  28924500   254.46059     -354.31946     -279.75418     -354.3277       0              4399.7191      45.40222       20.047001      20.857         18983.59       5164.8273      3934.4726      4099.8575     -257.73704      155.3731      -551.24911    
  28925000   255.5027      -355.02783     -280.15717     -355.03514      0              5546.1819      45.608669      20.047001      20.857         19069.91       5493.4077      4630.6153      6514.5227     -0.94848549     1049.7925     -987.561      
  28925500   246.00769     -357.40627     -285.31796     -357.39521      0              6107.8042      45.516795      20.047001      20.857         19031.496      7170.6871      7271.701       3881.0246     -1097.8326     -1265.7237      185.25276    
  28926000   253.29039     -355.67914     -281.45676     -355.65692      0              4959.6297      45.221006      20.047001      20.857         18907.821      5989.3162      4971.093       3918.4798     -106.55571      586.87727     -1137.1802    
  28926500   257.73763     -356.70591     -281.18034     -356.69766      0              5574.5885      45.320057      20.047001      20.857         18949.236      6605.1606      4884.1198      5234.4853     -834.74445      621.15434     -1013.8127    
  28927000   257.09029     -356.13816     -280.80229     -356.14066      0              4320.0289      45.603835      20.047001      20.857         19067.889      5623.2018      3952.4389      3384.4461     -337.36644      1058.6146     -797.52786    
  28927500   251.87635     -355.53238     -281.72436     -355.53308      0              3658.8878      45.339797      20.047001      20.857         18957.49       3712.8028      3751.4198      3512.4408     -181.40665      1447.4512     -156.68978    
  28928000   256.89412     -354.94307     -279.66468     -354.92649      0              6667.1941      45.044549      20.047001      20.857         18834.04       7960.4106      4930.5126      7110.6592      1859.701      -476.11672     -1087.1275    
ERROR on proc 0: Cannot open restart file restart2.lmp.0: Permission denied (../write_restart.cpp:233)
Last command: run             40000000 upto
