LAMMPS (23 Jun 2022)
echo both

include		in.partitions
variable        pid world 0
include		in.temp
variable	temperature equal 255.0
variable        tempDamp equal 0.100 # this is 0.1 ps
include		in.pressure
variable        pressure equal 6079.5
variable        pressureDamp equal 1.0 #this is 1ps
include		in.seed
variable        seed world 745823

units           metal
atom_style	full
read_restart	restart.lmp.${pid}
read_restart	restart.lmp.0
Reading restart file ...
  restart file = 23 Jun 2022, LAMMPS = 23 Jun 2022
  restoring atom style full from restart
  orthogonal box = (0.69448956 0 0) to (46.756209 20.047001 20.857)
  4 by 1 by 1 MPI processor grid
Summary of lammps deepmd module ...
  >>> Info of deepmd-kit:
  installed to:       /u/sigbjobo/software/DEEPMD_FROM_SOURCE/deepmd-kit/install
  source:             v2.1.3
  source branch:       master
  source commit:      5a32c49
  source commit at:   2022-07-01 09:52:58 +0800
  surpport model ver.:1.1 
  build float prec:   double
  build with tf inc:  /u/sigbjobo/software/DEEPMD_FROM_SOURCE/tensorflow/install/include;/u/sigbjobo/software/DEEPMD_FROM_SOURCE/tensorflow/install/include
  build with tf lib:  /u/sigbjobo/software/DEEPMD_FROM_SOURCE/tensorflow/install/lib/libtensorflow_cc.so;/u/sigbjobo/software/DEEPMD_FROM_SOURCE/tensorflow/install/lib/libtensorflow_framework.so
  set tf intra_op_parallelism_threads: 0
  set tf inter_op_parallelism_threads: 0
  >>> Info of lammps module:
  use deepmd-kit at:  /u/sigbjobo/software/DEEPMD_FROM_SOURCE/deepmd-kit/install
  source:             v2.1.3
  source branch:      master
  source commit:      5a32c49
  source commit at:   2022-07-01 09:52:58 +0800
  build float prec:   double
  build with tf inc:  /u/sigbjobo/software/DEEPMD_FROM_SOURCE/tensorflow/install/include;/u/sigbjobo/software/DEEPMD_FROM_SOURCE/tensorflow/install/include
  build with tf lib:  /u/sigbjobo/software/DEEPMD_FROM_SOURCE/tensorflow/install/lib/libtensorflow_cc.so;/u/sigbjobo/software/DEEPMD_FROM_SOURCE/tensorflow/install/lib/libtensorflow_framework.so
  restoring pair style deepmd from restart
  2268 atoms
Finding 1-2 1-3 1-4 neighbors ...
  special bond factors lj:    0        0        0       
  special bond factors coul:  0        0        0       
     0 = max # of 1-2 neighbors
     0 = max # of 1-3 neighbors
     0 = max # of 1-4 neighbors
     1 = max # of special neighbors
  special bonds CPU = 0.000 seconds
  read_restart CPU = 0.006 seconds
include 	in.setup
variable	out_freq equal 500
variable	out_freq2 equal 1000
variable	out_freq3 equal 5000

timestep        0.0005

neigh_modify    delay 7 every 1

include         in.deepmd
# This is deepMD model

# create groups ###
#group ox type 2
#group hy type 1

mass 2 15.999
mass 1 1.008

pair_style      deepmd ../graph.pb
pair_coeff      * *

bond_style      none
angle_style     none
dihedral_style  none
improper_style  none
neigh_modify exclude none


neighbor        2.0 bin
neigh_modify    every 10 delay 0 check no

thermo          ${out_freq}
thermo          500
thermo_style 	custom step temp pe etotal epair emol press lx ly lz vol pxx pyy pzz pxy pxz pyz
#thermo_modify	flush yes
restart 	${out_freq} restart.lmp.${pid} restart2.lmp.${pid}
restart 	500 restart.lmp.${pid} restart2.lmp.${pid}
restart 	500 restart.lmp.0 restart2.lmp.${pid}
restart 	500 restart.lmp.0 restart2.lmp.0

include		in.dump
dump            myDump all atom ${out_freq3} dump.water.${pid}
dump            myDump all atom 5000 dump.water.${pid}
dump            myDump all atom 5000 dump.water.0
dump            myDump2 all dcd ${out_freq2} dump.dcd.${pid}
dump            myDump2 all dcd 1000 dump.dcd.${pid}
dump            myDump2 all dcd 1000 dump.dcd.0
dump_modify     myDump append yes
dump_modify     myDump2 append yes


timer           timeout 23:50:00 every 1000
New timer settings: style=normal  mode=nosync  timeout=23:50:00

fix             1 all plumed plumedfile plumed.dat outfile plumed.out
fix             3 all nph x ${pressure} ${pressure} ${pressureDamp}
fix             3 all nph x 6079.5 ${pressure} ${pressureDamp}
fix             3 all nph x 6079.5 6079.5 ${pressureDamp}
fix             3 all nph x 6079.5 6079.5 1
Resetting global fix info from restart file:
  fix style: nph, fix ID: 3
fix             4 all temp/csvr ${temperature} ${temperature} ${tempDamp} ${seed}
fix             4 all temp/csvr 255 ${temperature} ${tempDamp} ${seed}
fix             4 all temp/csvr 255 255 ${tempDamp} ${seed}
fix             4 all temp/csvr 255 255 0.1 ${seed}
fix             4 all temp/csvr 255 255 0.1 745823
Resetting global fix info from restart file:
  fix style: temp/csvr, fix ID: 4

run             40000000 upto

CITE-CITE-CITE-CITE-CITE-CITE-CITE-CITE-CITE-CITE-CITE-CITE-CITE

Your simulation uses code contributions which should be cited:

- USER-DEEPMD package:

@article{Wang_ComputPhysCommun_2018_v228_p178,
  author = {Wang, Han and Zhang, Linfeng and Han, Jiequn and E, Weinan},
  doi = {10.1016/j.cpc.2018.03.016},
  url = {https://doi.org/10.1016/j.cpc.2018.03.016},
  year = 2018,
  month = {jul},
  publisher = {Elsevier {BV}},
  volume = 228,
  journal = {Comput. Phys. Commun.},
  title = {{DeePMD-kit: A deep learning package for many-body potential energy representation and molecular dynamics}},
  pages = {178--184}
}

CITE-CITE-CITE-CITE-CITE-CITE-CITE-CITE-CITE-CITE-CITE-CITE-CITE

Generated 0 of 1 mixed pair_coeff terms from geometric mixing rule
All restart file global fix info was re-assigned
Neighbor list info ...
  update every 10 steps, delay 0 steps, check no
  max neighbors/atom: 2000, page size: 100000
  master list distance cutoff = 8
  ghost atom cutoff = 8
  binsize = 4, bins = 12 6 6
  1 neighbor lists, perpetual/occasional/extra = 1 0 0
  (1) pair deepmd, perpetual
      attributes: full, newton on
      pair build: full/bin
      stencil: full/bin/3d
      bin: standard
Per MPI rank memory allocation (min/avg/max) = 6.149 | 6.151 | 6.154 Mbytes
   Step          Temp          PotEng         TotEng         E_pair         E_mol          Press            Lx             Ly             Lz           Volume          Pxx            Pyy            Pzz            Pxy            Pxz            Pyz      
  24578500   261.84332     -355.46469     -278.73602     -355.46469      0              4820.7033      46.06172       20.047001      20.857         19259.34       5945.9452      4341.515       4174.6496      2168.6404     -1062.6862      633.10315    
  24579000   253.23604     -351.00558     -276.79913     -351.02306      0              2668.2558      45.759541      20.047001      20.857         19132.993      1736.787       3751.9143      2516.0662      25.7985       -1394.2977      842.11037    
  24579500   255.83271     -354.18312     -279.21575     -354.1871       0              5714.1264      45.354308      20.047001      20.857         18963.557      4620.2214      4665.0546      7857.1032      2256.5294     -575.63616     -186.51468    
  24580000   246.47452     -351.68257     -279.45746     -351.68642      0              6129.9792      45.665826      20.047001      20.857         19093.809      5815.625       6268.1121      6306.2005     -772.79611     -878.66283      1270.9739    
  24580500   258.3592      -355.3403      -279.63259     -355.35001      0              4353.4662      45.829623      20.047001      20.857         19162.296      4872.4036      2854.9057      5333.0891     -29.013353     -1033.1995     -64.56334     
  24581000   253.77        -353.01798     -278.65506     -353.03075      0              3541.2717      45.722581      20.047001      20.857         19117.539      3267.9754      3516.2955      3839.5443     -328.16962     -143.43904      451.92635    
  24581500   260.91533     -354.05447     -277.59773     -354.0499       0              5166.942       45.530576      20.047001      20.857         19037.258      5225.9083      6057.3158      4217.602       698.89952      2176.3396     -718.50693    
  24582000   252.93399     -355.491       -281.37305     -355.50307      0              6755.0928      45.513085      20.047001      20.857         19029.945      7387.1278      5653.2964      7224.8542      506.87074     -1498.5301      471.63486    
  24582500   243.48521     -353.19753     -281.84839     -353.19944      0              4735.373       45.808028      20.047001      20.857         19153.267      6905.9898      3173.3607      4126.7683     -389.08395      1838.0846     -338.05149    
  24583000   255.34864     -352.26029     -277.43477     -352.27356      0              6278.7997      45.7946        20.047001      20.857         19147.652      6727.3806      5382.2254      6726.793       325.41636     -627.73324      806.65194    
  24583500   255.24254     -352.34088     -277.54646     -352.35371      0              4478.8141      45.380453      20.047001      20.857         18974.488      7946.3506      3540.9381      1949.1535     -1097.7263      325.23527      9.0924415    
  24584000   256.53834     -351.47276     -276.29862     -351.4849       0              5504.3729      45.490422      20.047001      20.857         19020.469      6670.2567      4141.3884      5701.4736     -440.34448      104.58137      1281.3343    
  24584500   255.68568     -354.68143     -279.75715     -354.69529      0              3376.645       45.811095      20.047001      20.857         19154.549      885.48247      5838.058       3406.3947     -571.19966      220.20473     -771.1463     
  24585000   256.68334     -353.64428     -278.42765     -353.65585      0              4960.0805      45.561688      20.047001      20.857         19050.267      6341.023       3967.6527      4571.566      -963.18114      36.703279      340.54809    
  24585500   254.23146     -354.02506     -279.52691     -354.04431      0              6924.2944      45.150216      20.047001      20.857         18878.222      10845.165      4878.5696      5049.1482      301.07927     -478.62334     -242.16745    
  24586000   251.79392     -356.90987     -283.126       -356.91567      0              2871.4839      45.393426      20.047001      20.857         18979.913      2408.3394      1633.4948      4572.6174      116.38808     -935.13246      792.40853    
  24586500   258.82843     -354.74247     -278.89727     -354.75531      0              3296.3242      45.656934      20.047001      20.857         19090.091      4633.0572      2031.571       3224.3443      694.38696      445.42382      1011.2606    
  24587000   249.25186     -352.13687     -279.09791     -352.15454      0              5504.5363      45.405667      20.047001      20.857         18985.031      7565.1482      3587.5166      5360.9441      183.83735     -2793.9507     -1648.3193    
  24587500   262.75992     -355.54738     -278.55011     -355.55787      0              5949.2241      45.126032      20.047001      20.857         18868.11       7149.5895      6185.3956      4512.6873      66.253211      657.29045     -1122.0288    
  24588000   255.87608     -353.36679     -278.38672     -353.38222      0              4874.7559      45.331598      20.047001      20.857         18954.061      6759.3651      3736.9714      4127.9313      112.28785     -1013.5044      1527.0089    
  24588500   249.91899     -353.76107     -280.52662     -353.78075      0              3092.655       45.639952      20.047001      20.857         19082.99       3908.1128      1887.3738      3482.4784      44.877836      2019.209      -1246.4535    
  24589000   254.63154     -351.78129     -277.16591     -351.78954      0              5733.3357      45.439414      20.047001      20.857         18999.141      6869.1064      6045.185       4285.7155      177.30537     -418.7833       44.08359     
  24589500   257.72874     -353.2229      -277.69994     -353.24019      0              5776.5436      45.406494      20.047001      20.857         18985.377      4473.7504      6772.3184      6083.562       563.45967      1110.4963     -875.73248    
  24590000   254.30933     -354.43124     -279.91027     -354.44412      0              4184.0734      45.457641      20.047001      20.857         19006.762      3111.8623      2932.8165      6507.5414      1843.3406     -656.30319     -445.62157    
  24590500   261.47133     -353.68328     -277.06362     -353.70778      0              4601.364       45.390399      20.047001      20.857         18978.647      6399.9584      3085.975       4318.1586     -459.69354      261.94736      68.138884    
  24591000   260.02191     -355.95806     -279.76313     -355.97041      0              6876.6774      45.308486      20.047001      20.857         18944.398      7999.0191      5886.8649      6744.1483     -380.52467     -678.87308      780.41945    
  24591500   254.25373     -354.49418     -279.98952     -354.50905      0              7253.9563      45.3522        20.047001      20.857         18962.676      5163.9033      10388.68       6209.2861      1538.6791     -718.58053      236.10978    
  24592000   256.40717     -352.77505     -277.63935     -352.78738      0              3275.3973      45.513598      20.047001      20.857         19030.159      4277.5596      2564.3655      2984.2666      231.83378      349.26959      1936.9032    
  24592500   256.59494     -354.22568     -279.03496     -354.23774      0              5671.9457      45.546504      20.047001      20.857         19043.918      7276.9867      4806.6097      4932.2407     -400.86217     -740.41855      820.42713    
  24593000   252.14597     -353.60254     -279.71551     -353.61491      0              5227.4466      45.449396      20.047001      20.857         19003.315      5074.5368      4892.8081      5714.9948     -83.423472      596.19842      1048.4306    
  24593500   252.05592     -351.85085     -277.99021     -351.87002      0              5988.2675      45.27384       20.047001      20.857         18929.911      7736.9802      4744.6991      5483.1233     -104.45675      888.44252     -716.97749    
  24594000   258.43026     -354.92036     -279.19182     -354.92354      0              5918.352       45.559847      20.047001      20.857         19049.497      5733.0957      7262.9167      4759.0435     -456.80445      1936.1631     -1250.4857    
  24594500   257.34825     -355.30419     -279.89273     -355.31653      0              6144.1961      45.920752      20.047001      20.857         19200.398      6728.5167      5334.1029      6369.9686     -759.24994      560.50187      1945.2638    
  24595000   253.67795     -354.06868     -279.73273     -354.08232      0              5838.5573      45.448524      20.047001      20.857         19002.951      4989.1009      6087.5965      6438.9746      548.28946      1579.5324     -2140.0809    
  24595500   261.25507     -353.91657     -277.36028     -353.92428      0              4182.2207      45.280227      20.047001      20.857         18932.582      4792.505       4791.6995      2962.4576     -1624.1943     -1945.955       304.73071    
  24596000   242.83539     -353.92623     -282.76751     -353.94417      0              5121.2594      45.612535      20.047001      20.857         19071.527      6263.153       3278.4259      5822.1992      939.74656      701.42788      665.99792    
  24596500   249.38678     -353.22513     -280.14663     -353.24353      0              6062.5352      45.675477      20.047001      20.857         19097.844      5556.5731      4395.1681      8235.8645      612.36317      1254.6101     -1506.7656    
  24597000   248.77043     -353.19491     -280.29703     -353.20703      0              8047.9745      45.243642      20.047001      20.857         18917.285      11127.171      5436.8896      7579.8629     -309.97997      324.27291      1265.9039    
  24597500   257.59916     -353.128       -277.64301     -353.1403       0              6371.2618      45.499841      20.047001      20.857         19024.407      8110.6763      2939.2379      8063.8713     -419.35479      405.60446     -1043.9431    
  24598000   257.88183     -350.88149     -275.31366     -350.89917      0              5863.789       45.816044      20.047001      20.857         19156.618      8113.9135      4851.2703      4626.1832      144.10937     -98.472394      958.98761    
  24598500   252.58793     -353.01758     -279.00105     -353.02261      0              4945.9004      45.647626      20.047001      20.857         19086.199      4678.883       4596.2879      5562.5302      2688.5126     -256.10481      265.31021    
  24599000   256.94262     -354.48779     -279.19518     -354.50154      0              7048.2823      45.487047      20.047001      20.857         19019.058      8160.6585      5814.3241      7169.8642      1716.8822      1378.3206      603.29095    
  24599500   258.64845     -354.58929     -278.79682     -354.60156      0              4623.0907      45.628768      20.047001      20.857         19078.314      5550.6275      5776.5277      2542.117       1112.7897      1769.6222     -529.46228    
  24600000   253.36653     -356.72905     -282.48436     -356.74377      0              6033.2537      45.660662      20.047001      20.857         19091.65       6930.3505      5305.0027      5864.4078      185.77784      399.96954      229.7348     
  24600500   258.54426     -355.71014     -279.9482      -355.72588      0              4632.9117      45.502045      20.047001      20.857         19025.329      5583.2912      4644.2845      3671.1593     -1957.8879     -619.9754      -469.58126    
  24601000   259.173       -358.70981     -282.76363     -358.71992      0              7908.2048      45.465716      20.047001      20.857         19010.139      9454.8078      5526.7408      8743.0657      1725.3302      1650.4652      562.98622    
  24601500   260.91003     -355.40635     -278.95116     -355.44463      0              3306.9645      45.853549      20.047001      20.857         19172.3        4255.9026      2667.9783      2997.0126     -347.63961      998.88099     -1750.2526    
  24602000   263.03487     -357.87185     -280.79402     -357.89219      0              3770.9124      45.887102      20.047001      20.857         19186.329      4136.6661      3820.2566      3355.8145      1121.9849     -1201.8692     -201.54832    
  24602500   252.16526     -353.61885     -279.72617     -353.63117      0              6620.4321      45.471943      20.047001      20.857         19012.742      5417.7576      7875.1525      6568.3863      1605.2391      956.35765     -2050.4948    
  24603000   254.86824     -355.54733     -280.86258     -355.5631       0              7018.204       45.316848      20.047001      20.857         18947.894      6658.2242      6398.5004      7997.8876     -604.52449     -1234.174       789.54553    
  24603500   258.59932     -356.99554     -281.21747     -357.01757      0              4525.2478      45.85038       20.047001      20.857         19170.974      5911.8918      1777.5609      5886.2909     -1391.5158     -326.28084     -2429.0707    
  24604000   250.8346      -355.62776     -282.12501     -355.64468      0              5229.6916      45.954083      20.047001      20.857         19214.335      4451.1909      7404.4459      3833.4381      225.93138      1004.5947      1086.9509    
  24604500   259.04211     -356.11711     -280.20929     -356.13051      0              5512.4116      45.554005      20.047001      20.857         19047.054      5661.4011      6307.062       4568.7716      456.71526      651.97413      280.83355    
  24605000   261.79652     -355.17446     -278.4595      -355.18726      0              4949.6971      45.457876      20.047001      20.857         19006.861      5858.5874      5273.4609      3717.0431      727.12944      249.67404     -1084.1355    
  24605500   254.47879     -354.88243     -280.31181     -354.89775      0              5680.6801      45.623682      20.047001      20.857         19076.188      8660.116       2026.0957      6355.8288     -369.74543     -534.53989      1770.0135    
  24606000   253.32956     -353.75952     -279.52567     -353.78199      0              4218.7318      45.752796      20.047001      20.857         19130.173      4938.7395      3478.1752      4239.2807      463.02069     -1039.0545     -914.95768    
  24606500   262.10449     -352.74787     -275.94267     -352.77543      0              5846.5611      45.529239      20.047001      20.857         19036.699      8002.2563      3341.2773      6196.1498      106.65019      929.06481      1870.2929    
  24607000   257.2516      -351.9982      -276.61505     -352.01849      0              4781.5894      45.469365      20.047001      20.857         19011.665      4583.4112      6090.9179      3670.439      -967.17336      88.454093     -611.41496    
  24607500   257.52396     -354.6454      -279.18245     -354.65828      0              3625.9         45.730341      20.047001      20.857         19120.784      6509.4334      576.73644      3791.5302      103.92341      1382.3939      456.69428    
  24608000   253.07276     -355.72361     -281.565       -355.74025      0              6197.0109      45.774177      20.047001      20.857         19139.112      6967.1188      6218.4671      5405.4468     -546.17311      2267.1221      829.81049    
  24608500   251.8435      -355.04075     -281.24236     -355.05968      0              5196.4921      45.631278      20.047001      20.857         19079.364      6552.0088      3426.2435      5611.224      -45.90078      -559.60243      113.83585    
  24609000   253.23739     -356.9951      -282.78825     -357.00925      0              5877.2985      45.66781       20.047001      20.857         19094.638      6187.2948      8256.146       3188.4547      59.863802      477.65101     -1660.0268    
  24609500   260.23902     -355.5785      -279.31995     -355.59563      0              4460.9626      45.694347      20.047001      20.857         19105.734      7221.5706      2482.2495      3679.0676     -1323.7947      416.74092      1959.2692    
  24610000   257.89512     -355.59517     -280.02345     -355.61259      0              4902.1827      45.427398      20.047001      20.857         18994.117      5969.2996      3052.5575      5684.691       351.75352      1139.5682     -512.90397    
  24610500   256.6089      -357.37377     -282.17896     -357.38791      0              6250.602       45.41896       20.047001      20.857         18990.589      4305.5431      9203.4782      5242.7847      124.40319     -1042.2411     -455.41179    
  24611000   260.63302     -354.94556     -278.57155     -354.95952      0              5957.504       45.654687      20.047001      20.857         19089.151      6374.2473      6526.9404      4971.3244     -42.298285      1897.8233      1818.0645    
  24611500   252.16734     -356.10889     -282.2156      -356.12771      0              4713.6322      45.770777      20.047001      20.857         19137.691      4433.6984      4558.0071      5149.1912      1239.9004     -1078.7764      727.12073    
  24612000   255.82011     -354.21933     -279.25566     -354.24105      0              4830.932       45.702824      20.047001      20.857         19109.278      7439.123       2925.5113      4128.1617      412.77132     -1366.5314      379.9606     
  24612500   258.59442     -354.69891     -278.92228     -354.71707      0              7146.1298      45.943677      20.047001      20.857         19209.984      5756.5718      6548.6812      9133.1365      297.20356     -1123.2043      654.83715    
  24613000   264.9016      -355.98636     -278.36151     -355.9986       0              6101.0215      45.863895      20.047001      20.857         19176.625      8260.1367      4978.0357      5064.8922      1330.4004     -1668.2842      273.37821    
  24613500   259.40468     -353.70397     -277.68991     -353.72303      0              4900.433       45.63567       20.047001      20.857         19081.2        3779.2425      4897.8798      6024.1767     -1509.3674      745.10734     -498.05173    
  24614000   251.97466     -352.57659     -278.73976     -352.59147      0              6498.26        45.52034       20.047001      20.857         19032.978      8028.8462      6397.7096      5068.2242      2192.2714      1025.8145     -1165.7833    
  24614500   255.13872     -351.81243     -277.04843     -351.8303       0              3680.0249      45.896899      20.047001      20.857         19190.425      1845.2323      5378.7205      3816.1219     -222.40967      529.56545     -311.21595    
  24615000   257.86465     -350.91493     -275.35214     -350.93346      0              7491.1874      45.649318      20.047001      20.857         19086.907      8100.7048      7925.5223      6447.3349     -196.26493      495.51416     -104.50025    
  24615500   255.98197     -351.9652      -276.9541      -351.98376      0              7183.0921      45.321065      20.047001      20.857         18949.657      9629.7         6129.3598      5790.2164     -1292.1814     -1688.8801     -558.70787    
  24616000   251.58649     -351.95599     -278.23291     -351.97349      0              5949.1223      45.512638      20.047001      20.857         19029.758      6891.7533      6364.2527      4591.3611      1672.172      -1450.3745     -1740.8741    
  24616500   252.97575     -352.96529     -278.83511     -352.97838      0              5945.0939      45.750117      20.047001      20.857         19129.052      7676.0361      4836.4283      5322.8173      76.882057      80.334247      1107.8684    
  24617000   255.03029     -352.87641     -278.14418     -352.8921       0              6644.4166      45.756494      20.047001      20.857         19131.719      7707.5415      6288.2646      5937.4436     -694.31264     -51.51988      -113.0647     
  24617500   257.12441     -352.55273     -277.20685     -352.5691       0              6006.3445      45.479567      20.047001      20.857         19015.93       5650.215       6580.9534      5787.8652     -522.39336     -77.977989      276.08696    
  24618000   258.09847     -352.96493     -277.33362     -352.98016      0              5710.8597      45.397036      20.047001      20.857         18981.422      7800.0733      3827.1308      5505.3751     -903.15421      1176.9275     -277.64069    
  24618500   257.62622     -353.47523     -277.98231     -353.49006      0              5699.9191      45.574359      20.047001      20.857         19055.565      6342.5311      5807.4711      4949.7551      72.865512      183.62002     -131.01728    
  24619000   257.18777     -349.23649     -273.87205     -349.3705       0              3561.8439      45.657829      20.047001      20.857         19090.465      3505.7386      4983.156       2196.637       737.87063      1494.9521      488.09793    
  24619500   254.6785      -350.24077     -275.61163     -350.27461      0              3898.6527      45.658629      20.047001      20.857         19090.8        5920.7731      1887.888       3887.297      -628.96145      1002.7119      662.74314    
  24620000   253.95223     -353.46031     -279.04399     -353.48528      0              5093.5036      45.699278      20.047001      20.857         19107.796      6643.9751      4042.9086      4593.6271      879.78139      1614.5441     -45.452093    
  24620500   258.2598      -354.58056     -278.90198     -354.60747      0              5828.6344      45.685714      20.047001      20.857         19102.125      6547.2845      5078.2598      5860.3588      697.80518      1934.7503     -361.85706    
  24621000   257.63771     -353.87951     -278.38322     -353.90321      0              5947.9763      45.410842      20.047001      20.857         18987.195      7346.8144      4605.7022      5891.4124     -1204.4661      944.1673       1079.8675    
  24621500   253.44837     -354.48686     -280.21819     -354.52901      0              4247.0866      45.512804      20.047001      20.857         19029.827      5426.8431      2666.2246      4648.1921      875.40436      324.57056      374.39709    
  24622000   251.68397     -352.27669     -278.52505     -352.29297      0              7031.4046      45.534817      20.047001      20.857         19039.031      7764.8932      5330.7012      7998.6195     -196.26748      1518.7614     -1417.2254    
  24622500   252.14734     -353.2981      -279.41067     -353.31469      0              4115.2373      45.344462      20.047001      20.857         18959.44       6795.8433      3523.0343      2026.8344      2396.33        55.737811      369.91402    
  24623000   257.61304     -352.55509     -277.06603     -352.56763      0              6407.6126      45.308347      20.047001      20.857         18944.34       6610.7563      7009.5315      5602.5498      2074.8514     -145.41846     -577.18644    
  24623500   256.27164     -350.74199     -275.64601     -350.75621      0              4574.1474      45.625752      20.047001      20.857         19077.053      4869.0079      3902.999       4950.4352     -82.931387      1263.7737      1012.8087    
  24624000   257.4903      -352.85447     -277.40137     -352.86997      0              5143.2418      45.70507       20.047001      20.857         19110.217      7041.4153      4664.7163      3723.5939      532.94922      1966.7253      1014.2799    
  24624500   255.08761     -353.11958     -278.37056     -353.1333       0              5952.6922      45.331248      20.047001      20.857         18953.915      5178.3649      6736.9563      5942.7554      120.74132      289.62869      1511.8731    
  24625000   248.48261     -351.55685     -278.74331     -351.58352      0              5286.2403      45.29174       20.047001      20.857         18937.396      4472.4447      7020.8985      4365.3777      447.08862     -1572.9807     -1966.5552    
  24625500   254.3803      -353.57522     -279.03346     -353.59407      0              5603.0611      45.422839      20.047001      20.857         18992.211      7950.6154      3206.1929      5652.375      -64.386416     -82.927059      1158.4411    
  24626000   258.37236     -353.84299     -278.13143     -353.85609      0              5805.0629      45.384025      20.047001      20.857         18975.982      7045.4924      4052.0791      6317.6173      553.58828     -113.34117     -1860.3492    
  24626500   261.46374     -356.68485     -280.06741     -356.6983       0              7688.1482      45.344253      20.047001      20.857         18959.352      8234.9551      7684.2338      7145.2557      320.58505     -1223.3673     -267.31712    
  24627000   263.15438     -352.96795     -275.8551      -352.98124      0              5204.0344      45.627815      20.047001      20.857         19077.916      6729.3607      6033.4365      2849.306      -2011.7281     -2049.795       58.026101    
  24627500   250.03231     -351.34493     -278.07727     -351.35744      0              5783.4121      45.739293      20.047001      20.857         19124.527      6011.8045      5696.5353      5641.8965      87.783088     -2082.206       1443.4369    
  24628000   259.14237     -353.14314     -277.20594     -353.15542      0              4408.8615      45.534468      20.047001      20.857         19038.885      7047.1689      5089.8074      1089.6082     -1421.9148     -1611.1744      968.01601    
  24628500   256.8253      -353.0423      -277.78407     -353.05929      0              5826.3326      45.581326      20.047001      20.857         19058.478      6395.31        6507.9237      4575.7641      909.72242     -1501.3455     -193.27394    
ERROR on proc 0: Cannot open restart file restart.lmp.0: Permission denied (../write_restart.cpp:233)
Last command: run             40000000 upto
