LAMMPS (23 Jun 2022)
echo both

include		in.partitions
variable        pid world 0
include		in.temp
variable	temperature equal 255.0
variable        tempDamp equal 0.100 # this is 0.1 ps
include		in.pressure
variable        pressure equal 6079.5
variable        pressureDamp equal 1.0 #this is 1ps
include		in.seed
variable        seed world 745823

units           metal
atom_style	full
read_restart	restart.lmp.${pid}
read_restart	restart.lmp.0
Reading restart file ...
  restart file = 23 Jun 2022, LAMMPS = 23 Jun 2022
  restoring atom style full from restart
  orthogonal box = (0.8489073 0 0) to (46.601792 20.047001 20.857)
  4 by 1 by 1 MPI processor grid
Summary of lammps deepmd module ...
  >>> Info of deepmd-kit:
  installed to:       /u/sigbjobo/software/DEEPMD_FROM_SOURCE/deepmd-kit/install
  source:             v2.1.3
  source branch:       master
  source commit:      5a32c49
  source commit at:   2022-07-01 09:52:58 +0800
  surpport model ver.:1.1 
  build float prec:   double
  build with tf inc:  /u/sigbjobo/software/DEEPMD_FROM_SOURCE/tensorflow/install/include;/u/sigbjobo/software/DEEPMD_FROM_SOURCE/tensorflow/install/include
  build with tf lib:  /u/sigbjobo/software/DEEPMD_FROM_SOURCE/tensorflow/install/lib/libtensorflow_cc.so;/u/sigbjobo/software/DEEPMD_FROM_SOURCE/tensorflow/install/lib/libtensorflow_framework.so
  set tf intra_op_parallelism_threads: 0
  set tf inter_op_parallelism_threads: 0
  >>> Info of lammps module:
  use deepmd-kit at:  /u/sigbjobo/software/DEEPMD_FROM_SOURCE/deepmd-kit/install
  source:             v2.1.3
  source branch:      master
  source commit:      5a32c49
  source commit at:   2022-07-01 09:52:58 +0800
  build float prec:   double
  build with tf inc:  /u/sigbjobo/software/DEEPMD_FROM_SOURCE/tensorflow/install/include;/u/sigbjobo/software/DEEPMD_FROM_SOURCE/tensorflow/install/include
  build with tf lib:  /u/sigbjobo/software/DEEPMD_FROM_SOURCE/tensorflow/install/lib/libtensorflow_cc.so;/u/sigbjobo/software/DEEPMD_FROM_SOURCE/tensorflow/install/lib/libtensorflow_framework.so
  restoring pair style deepmd from restart
  2268 atoms
Finding 1-2 1-3 1-4 neighbors ...
  special bond factors lj:    0        0        0       
  special bond factors coul:  0        0        0       
     0 = max # of 1-2 neighbors
     0 = max # of 1-3 neighbors
     0 = max # of 1-4 neighbors
     1 = max # of special neighbors
  special bonds CPU = 0.001 seconds
  read_restart CPU = 0.008 seconds
include 	in.setup
variable	out_freq equal 500
variable	out_freq2 equal 1000
variable	out_freq3 equal 5000

timestep        0.0005

neigh_modify    delay 7 every 1

include         in.deepmd
# This is deepMD model

# create groups ###
#group ox type 2
#group hy type 1

mass 2 15.999
mass 1 1.008

pair_style      deepmd ../graph.pb
pair_coeff      * *

bond_style      none
angle_style     none
dihedral_style  none
improper_style  none
neigh_modify exclude none


neighbor        2.0 bin
neigh_modify    every 10 delay 0 check no

thermo          ${out_freq}
thermo          500
thermo_style 	custom step temp pe etotal epair emol press lx ly lz vol pxx pyy pzz pxy pxz pyz
#thermo_modify	flush yes
restart 	${out_freq} restart.lmp.${pid} restart2.lmp.${pid}
restart 	500 restart.lmp.${pid} restart2.lmp.${pid}
restart 	500 restart.lmp.0 restart2.lmp.${pid}
restart 	500 restart.lmp.0 restart2.lmp.0

include		in.dump
dump            myDump all atom ${out_freq3} dump.water.${pid}
dump            myDump all atom 5000 dump.water.${pid}
dump            myDump all atom 5000 dump.water.0
dump            myDump2 all dcd ${out_freq2} dump.dcd.${pid}
dump            myDump2 all dcd 1000 dump.dcd.${pid}
dump            myDump2 all dcd 1000 dump.dcd.0
dump_modify     myDump append yes
dump_modify     myDump2 append yes


timer           timeout 23:50:00 every 1000
New timer settings: style=normal  mode=nosync  timeout=23:50:00

fix             1 all plumed plumedfile plumed.dat outfile plumed.out
fix             3 all nph x ${pressure} ${pressure} ${pressureDamp}
fix             3 all nph x 6079.5 ${pressure} ${pressureDamp}
fix             3 all nph x 6079.5 6079.5 ${pressureDamp}
fix             3 all nph x 6079.5 6079.5 1
fix             4 all temp/csvr ${temperature} ${temperature} ${tempDamp} ${seed}
fix             4 all temp/csvr 255 ${temperature} ${tempDamp} ${seed}
fix             4 all temp/csvr 255 255 ${tempDamp} ${seed}
fix             4 all temp/csvr 255 255 0.1 ${seed}
fix             4 all temp/csvr 255 255 0.1 745823

run             40000000 upto

CITE-CITE-CITE-CITE-CITE-CITE-CITE-CITE-CITE-CITE-CITE-CITE-CITE

Your simulation uses code contributions which should be cited:

- USER-DEEPMD package:

@article{Wang_ComputPhysCommun_2018_v228_p178,
  author = {Wang, Han and Zhang, Linfeng and Han, Jiequn and E, Weinan},
  doi = {10.1016/j.cpc.2018.03.016},
  url = {https://doi.org/10.1016/j.cpc.2018.03.016},
  year = 2018,
  month = {jul},
  publisher = {Elsevier {BV}},
  volume = 228,
  journal = {Comput. Phys. Commun.},
  title = {{DeePMD-kit: A deep learning package for many-body potential energy representation and molecular dynamics}},
  pages = {178--184}
}

CITE-CITE-CITE-CITE-CITE-CITE-CITE-CITE-CITE-CITE-CITE-CITE-CITE

Generated 0 of 1 mixed pair_coeff terms from geometric mixing rule
Neighbor list info ...
  update every 10 steps, delay 0 steps, check no
  max neighbors/atom: 2000, page size: 100000
  master list distance cutoff = 8
  ghost atom cutoff = 8
  binsize = 4, bins = 12 6 6
  1 neighbor lists, perpetual/occasional/extra = 1 0 0
  (1) pair deepmd, perpetual
      attributes: full, newton on
      pair build: full/bin
      stencil: full/bin/3d
      bin: standard
Per MPI rank memory allocation (min/avg/max) = 7.21 | 7.211 | 7.213 Mbytes
   Step          Temp          PotEng         TotEng         E_pair         E_mol          Press            Lx             Ly             Lz           Volume          Pxx            Pyy            Pzz            Pxy            Pxz            Pyz      
  22575000   252.00782     -351.86425     -278.0177      -351.86425      0              6029.8911      45.752884      20.047001      20.857         19130.21       6116.0423      7563.2125      4410.4185     -191.69589     -217.8267      -1703.2482    
  22575500   258.77288     -353.31346     -277.48453     -353.33039      0              3905.4929      45.732295      20.047001      20.857         19121.601      2475.9468      6253.5781      2986.9537      326.84481     -723.48854      312.56285    
  22576000   255.97386     -352.3485      -277.33978     -352.36944      0              4594.5245      45.564045      20.047001      20.857         19051.252      5839.0254      2713.0368      5231.5113     -35.455062      206.23184      1357.1112    
  22576500   253.99425     -353.14449     -278.71586     -353.16773      0              6802.7771      45.646975      20.047001      20.857         19085.927      9194.304       3638.4031      7575.6243     -710.3624       696.89242      715.31135    
  22577000   255.73032     -352.72765     -277.79029     -352.74656      0              3408.5194      45.956877      20.047001      20.857         19215.503      5066.5607      4003.0979      1155.8995     -927.12635     -1241.2217      324.46012    
  22577500   257.08306     -352.7736      -277.43985     -352.79069      0              4195.3225      46.1634        20.047001      20.857         19301.855      5933.5471      3866.3503      2786.0701      1005.2608      995.929       -2175.3616    
  22578000   257.02758     -353.90105     -278.58355     -353.91627      0              5543.0435      45.804141      20.047001      20.857         19151.641      8297.3709      4015.4867      4316.2729     -232.4545       86.828937      821.46945    
  22578500   259.31765     -355.82734     -279.83878     -355.84233      0              6727.0919      45.376994      20.047001      20.857         18973.042      5355.0572      7300.5191      7525.6993     -800.63353      295.55775      1629.9034    
  22579000   249.92196     -354.26106     -281.02575     -354.27332      0              4765.0315      45.848407      20.047001      20.857         19170.15       6611.5373      4614.0461      3069.5111      1239.4761      2215.9351      521.89822    
  22579500   254.09268     -354.18627     -279.72879     -354.19971      0              4248.5862      46.086067      20.047001      20.857         19269.52       5868.7927      3826.1235      3050.8423     -1026.4549      106.86262     -560.56955    
  22580000   253.48425     -352.92403     -278.64484     -352.94155      0              2930.2462      45.791548      20.047001      20.857         19146.376      2265.259       2745.5875      3779.892       1822.9076      393.21467      1116.7443    
  22580500   253.62648     -355.1929      -280.87204     -355.2051       0              6497.0709      45.614897      20.047001      20.857         19072.514      7597.2509      8723.2479      3170.7139     -143.55663     -494.28106      1386.5736    
  22581000   250.13964     -353.76358     -280.46448     -353.77701      0              5445.0652      45.881191      20.047001      20.857         19183.858      3485.0986      5687.3478      7162.7493      234.70418     -1939.4328      92.078346    
  22581500   254.63623     -356.49592     -281.87916     -356.57726      0              3198.1941      46.021068      20.047001      20.857         19242.343      3679.9822      4507.8681      1406.7321     -455.39974     -233.90818      53.582016    
  22582000   255.66294     -353.80185     -278.88424     -353.81797      0              4258.1922      46.062283      20.047001      20.857         19259.576      3212.2333      6224.7735      3337.5699     -8.5716179     -876.76367     -514.33782    
  22582500   256.30544     -353.00193     -277.89604     -353.01765      0              5354.5909      45.777088      20.047001      20.857         19140.33       5760.9905      5021.5441      5281.238      -107.36822     -309.86776      1013.6708    
  22583000   248.76731     -353.10665     -280.20968     -353.12057      0              5205.6225      45.572051      20.047001      20.857         19054.6        7809.1121      2053.5424      5754.2129     -1254.0448     -455.98892      1562.5074    
  22583500   260.07395     -356.64078     -280.43059     -356.66764      0              3357.6618      45.708458      20.047001      20.857         19111.634      4152.518       1053.1118      4867.3556     -888.44117      114.52507     -1485.9866    
  22584000   261.72377     -353.8335      -277.13986     -353.84876      0              5100.5411      45.785875      20.047001      20.857         19144.004      5613.3365      4873.2263      4815.0605     -318.83654     -986.35142      1787.6897    
  22584500   258.04567     -353.71782     -278.10198     -353.76974      0              3799.5413      45.891973      20.047001      20.857         19188.366      4740.4489      3654.6124      3003.5627     -573.26478     -676.30065     -1179.2598    
  22585000   259.10973     -353.43075     -277.50311     -353.45874      0              5101.2063      46.101096      20.047001      20.857         19275.804      6000.051       4303.0356      5000.5323     -571.11016      392.54613      537.45831    
  22585500   260.46299     -349.88808     -273.5639      -349.93861      0              4096.0506      45.944717      20.047001      20.857         19210.419      6293.6522      3584.6719      2409.8277     -229.49445     -1587.0087     -1961.2213    
  22586000   257.72345     -352.27731     -276.7559      -352.29279      0              6530.7186      45.718155      20.047001      20.857         19115.689      7128.1343      5879.8873      6584.1341     -170.96936      1259.9684     -2475.0698    
  22586500   250.63793     -352.6488      -279.20368     -352.665        0              5831.2042      45.873107      20.047001      20.857         19180.477      7397.5217      6612.6573      3483.4336     -1216.4628     -884.04182     -60.163961    
  22587000   257.08807     -352.94704     -277.61182     -352.9631       0              6704.6418      45.66409       20.047001      20.857         19093.083      6644.4416      5896.1698      7573.3141     -225.9212       1523.483       408.17186    
  22587500   259.85232     -353.31405     -277.16881     -353.33856      0              4718.8131      45.63102       20.047001      20.857         19079.256      5390.0183      4087.96        4678.4611     -2475.7621      505.21071      779.14076    
  22588000   256.87507     -351.68014     -276.40733     -351.70099      0              4859.4196      45.798576      20.047001      20.857         19149.314      7720.2951      3976.5408      2881.4229     -580.78849      1236.4488     -882.54191    
  22588500   250.67764     -353.03867     -279.58191     -353.05602      0              5341.9296      45.85988       20.047001      20.857         19174.947      6918.9722      5227.7525      3879.0643      438.06365      913.03879      1178.4857    
  22589000   247.9152      -353.73386     -281.08659     -353.75427      0              5120.5335      45.652245      20.047001      20.857         19088.13       4998.8685      7615.8714      2746.8606     -1698.7753      593.46073      28.124528    
  22589500   246.34349     -354.89417     -282.70746     -354.9489       0              5763.9411      45.437001      20.047001      20.857         18998.133      6379.8489      4823.3473      6088.627       123.05196      392.55883      1339.4864    
  22590000   252.9113      -353.6059      -279.4946      -353.64377      0              4744.5311      45.496304      20.047001      20.857         19022.928      7077.9928      3216.1128      3939.4877      1587.2004      173.13985      601.58978    
  22590500   253.2994      -354.18662     -279.9616      -354.20208      0              5085.1324      45.659665      20.047001      20.857         19091.233      5660.7512      4294.7949      5299.8512      58.828849      1985.685      -967.21665    
  22591000   252.08143     -352.52119     -278.65308     -352.54807      0              4786.4574      45.77574       20.047001      20.857         19139.766      5894.1431      4670.004       3795.225      -82.738868      1011.2584     -142.86436    
  22591500   250.88792     -351.48332     -277.96495     -351.53868      0              4084.4742      45.698622      20.047001      20.857         19107.522      5568.4617      2638.8071      4046.1538      451.38854      382.88523      971.84901    
  22592000   254.8772      -353.01873     -278.33137     -353.05637      0              4627.7136      45.368362      20.047001      20.857         18969.433      4489.3407      5948.2576      3445.5425     -1239.5343      313.00086     -1456.0481    
  22592500   252.71295     -352.38144     -278.32827     -352.42214      0              4577.6879      45.481092      20.047001      20.857         19016.568      5021.8517      4792.1618      3919.0503      500.89144      1133.0887     -1011.5798    
  22593000   246.58181     -353.23413     -280.97758     -353.27085      0              2464.5086      45.816568      20.047001      20.857         19156.837      2439.9969      3729.4036      1224.1254     -998.95597     -982.43405      573.72234    
  22593500   247.99996     -352.18473     -279.51262     -352.20219      0              7627.8825      45.575974      20.047001      20.857         19056.24       8626.6274      5424.8736      8832.1466     -457.04254     -1764.9449     -708.25241    
  22594000   259.20652     -355.328       -279.37201     -355.344        0              5847.3296      45.492609      20.047001      20.857         19021.383      5422.0837      6907.7151      5212.1901     -1808.1784     -451.92693     -432.46325    
  22594500   251.8864      -353.03663     -279.22566     -353.05293      0              4571.1303      45.617954      20.047001      20.857         19073.793      5075.1465      4674.643       3963.6013      234.35206      90.178108     -2071.915     
  22595000   248.89183     -353.13455     -280.2011      -353.15176      0              8372.5483      45.454443      20.047001      20.857         19005.425      9055.3529      8264.6925      7797.5995     -821.56942     -1013.9205      973.81408    
  22595500   253.05219     -352.74394     -278.59137     -352.76131      0              5246.5384      45.529838      20.047001      20.857         19036.95       6495.3634      6357.7157      2886.5361     -470.45164      2030.7031     -545.47587    
  22596000   246.30284     -352.26809     -280.0933      -352.28599      0              4701.368       45.538348      20.047001      20.857         19040.508      3240.7348      4697.1137      6166.2554     -1159.864       2018.665       1143.4639    
  22596500   247.758       -354.57383     -281.97262     -354.59218      0              3416.2195      45.489492      20.047001      20.857         19020.08       5517.0086      2378.2797      2353.3704      530.68467      47.287836     -499.2786     
  22597000   253.34859     -353.54304     -279.30361     -353.55671      0              3674.748       45.480488      20.047001      20.857         19016.315      4166.3904      4030.4272      2827.4265     -596.19954     -129.54632     -53.390789    
  22597500   252.75659     -353.56534     -279.49939     -353.58286      0              6183.5767      45.619281      20.047001      20.857         19074.347      6696.1516      5934.4718      5920.1067     -53.005587     -1316.9475     -1122.3263    
  22598000   250.21653     -356.10076     -282.77912     -356.12743      0              3740.7379      45.623074      20.047001      20.857         19075.933      5227.9865      2858.4782      3135.749       1378.4964      254.28598      1205.1348    
  22598500   252.82737     -353.35        -279.2633      -353.37137      0              6520.1209      45.330748      20.047001      20.857         18953.706      6458.6063      8015.9142      5085.8423     -1252.6549      948.27469      319.6243     
  22599000   254.52672     -351.77117     -277.1865      -351.7898       0              5916.5959      45.438318      20.047001      20.857         18998.683      6397.7741      6366.003       4986.0107     -290.72306     -898.71481     -376.86112    
  22599500   254.43008     -353.47332     -278.91697     -353.50797      0              4048.5575      45.747751      20.047001      20.857         19128.063      3196.1304      3903.3407      5046.2015     -846.7395       226.74834      515.10988    
  22600000   264.98781     -352.01673     -274.36662     -352.03292      0              6659.5339      45.684963      20.047001      20.857         19101.81       7788.977       7112.0928      5077.5317     -686.93921      536.48931      952.52798    
  22600500   255.24906     -351.34548     -276.54915     -351.4055       0              4059.7357      45.621489      20.047001      20.857         19075.271      5956.0489      3078.1699      3144.9884      455.49058     -1681.5202      665.34649    
  22601000   258.79034     -349.63076     -273.79671     -349.67579      0              2541.6736      45.600426      20.047001      20.857         19066.464      2494.4719      1639.8531      3490.6958     -606.39736      1068.7755      498.45968    
  22601500   257.2893      -353.75978     -278.36558     -353.79536      0              5569.1698      45.538163      20.047001      20.857         19040.43       4901.578       6352.9864      5452.9449      807.67089      507.17013     -1381.9352    
  22602000   256.70196     -351.61499     -276.39291     -351.68166      0              3071.7772      45.496063      20.047001      20.857         19022.828      3983.1613      1874.9015      3357.269       444.5809      -104.53091     -650.16883    
  22602500   258.09788     -352.31684     -276.68571     -352.33419      0              6840.6795      45.349851      20.047001      20.857         18961.693      10209.796      4619.7455      5692.4975      805.20881     -229.78655     -1211.3649    
  22603000   256.03612     -354.36969     -279.34273     -354.39613      0              4001.2677      45.781495      20.047001      20.857         19142.172      4519.8094      2276.4427      5207.5511     -494.52717     -245.00065     -81.841602    
  22603500   253.4357      -351.14173     -276.87677     -351.1605       0              5294.1427      45.517626      20.047001      20.857         19031.843      4764.3477      4201.7855      6916.295       482.61457     -397.78321      348.0639     
  22604000   251.96273     -352.36607     -278.53274     -352.37814      0              7681.45        45.079342      20.047001      20.857         18848.588      8676.4699      7690.934       6676.946      -1659.3577     -594.41742     -81.275998    
  22604500   257.28515     -351.77517     -276.3822      -351.7916       0              4810.4553      45.46015       20.047001      20.857         19007.812      6143.5895      2026.7964      6260.9798      1541.3997     -92.526154      718.37387    
  22605000   262.03873     -349.36262     -272.57669     -349.40625      0              2322.1267      45.879054      20.047001      20.857         19182.964      4713.0563      1645.5421      607.7818       427.91275     -217.9269       426.16472    
  22605500   258.21479     -351.24634     -275.58095     -351.28393      0              3907.0445      45.574898      20.047001      20.857         19055.79       5293.1475      4849.2626      1578.7234     -326.7899       354.74453     -1680.2376    
  22606000   263.70961     -351.67718     -274.40163     -351.69955      0              4544.3404      45.50095       20.047001      20.857         19024.871      4812.2479      3736.7481      5084.0252     -148.61469      1818.9871      1093.232     
  22606500   254.10363     -352.73732     -278.27663     -352.7559       0              6308.4307      45.670657      20.047001      20.857         19095.829      6363.8723      6379.3771      6182.0426      1452.6972     -1065.689      -2071.9713    
  22607000   251.00677     -352.08664     -278.53344     -352.11636      0              5143.0547      45.631256      20.047001      20.857         19079.355      5380.4982      5113.9971      4934.6688      653.81132      1512.2749     -756.27216    
  22607500   256.19631     -351.40598     -276.33207     -351.42095      0              6494.6192      45.253049      20.047001      20.857         18921.219      7775.3214      8241.4121      3467.1241      1119.1573     -205.11162     -490.46502    
  22608000   255.91415     -350.87222     -275.88099     -350.88458      0              7563.0075      45.354213      20.047001      20.857         18963.517      7181.6588      7748.9137      7758.4501     -91.592879      149.18204     -863.51337    
  22608500   252.17449     -354.50171     -280.60632     -354.51839      0              3313.3591      45.724433      20.047001      20.857         19118.314      4966.9123      4079.5376      893.62741      1287.8367      336.76926      1583.722     
  22609000   249.61722     -353.7752      -280.62918     -353.79058      0              6493.3577      45.219392      20.047001      20.857         18907.146      5734.3058      5026.4979      8719.2694     -131.343        718.40343      568.44474    
  22609500   247.33156     -354.75158     -282.27533     -354.76906      0              4987.017       45.083379      20.047001      20.857         18850.276      4105.3827      5020.3135      5835.3548      72.768669     -713.68503     -527.05181    
  22610000   249.62829     -354.80485     -281.65558     -354.83382      0              7549.6197      45.297338      20.047001      20.857         18939.736      8680.5157      8206.5603      5761.7831     -971.8149       921.22357     -790.92233    
  22610500   261.18438     -355.43368     -278.8981      -355.44712      0              6169.9256      45.506744      20.047001      20.857         19027.293      7590.1904      4680.7304      6238.856      -863.92833      133.96979     -454.56411    
  22611000   251.7838      -353.85808     -280.07718     -353.87347      0              5027.0361      45.47943       20.047001      20.857         19015.873      4235.414       6303.4293      4542.2651      1231.2925     -1506.7798      1555.7033    
  22611500   250.11542     -352.83087     -279.53886     -352.84683      0              6462.3949      45.309847      20.047001      20.857         18944.967      6763.9708      6245.8991      6377.3148      366.04048     -644.80237     -1432.8838    
  22612000   253.24017     -354.20995     -280.00228     -354.22558      0              5386.2256      45.342948      20.047001      20.857         18958.807      7611.6927      2901.1226      5645.8614      291.13908      52.843483      1291.9046    
  22612500   252.54213     -353.87346     -279.87035     -353.91465      0              5770.241       45.551451      20.047001      20.857         19045.986      7680.3936      3458.836       6171.4935      296.97503      1882.446       15.157861    
  22613000   263.19037     -353.9365      -276.81311     -353.95179      0              9342.3877      45.329648      20.047001      20.857         18953.246      10560.4        8168.2629      9298.5006      2966.3864      127.95199     -1261.1263    
  22613500   249.16229     -350.65912     -277.6464      -350.67607      0              6685.273       45.276366      20.047001      20.857         18930.968      6528.7043      5576.9503      7950.1644     -288.93441     -782.58862     -1167.4398    
  22614000   256.75417     -353.74093     -278.50355     -353.80422      0              4667.2329      45.578618      20.047001      20.857         19057.345      6083.0093      3814.5355      4104.154       665.8234       77.703036     -689.89203    
  22614500   262.3031      -353.17296     -276.30956     -353.18898      0              5304.0803      45.641069      20.047001      20.857         19083.458      4785.8429      6320.0998      4806.2983      1363.6608      1090.6245     -637.25401    
  22615000   254.13968     -353.67598     -279.20473     -353.74652      0              1967.6644      45.533317      20.047001      20.857         19038.404      1159.1566      3868.8963      874.94029      103.79798     -798.26842     -1259.957     
  22615500   258.36423     -356.25537     -280.54619     -356.27178      0              4257.4014      45.426663      20.047001      20.857         18993.81       6367.8882      2928.5875      3475.7284     -208.16142     -2.7158097      1027.6873    
  22616000   249.7306      -354.57843     -281.39918     -354.59723      0              4169.5603      45.548963      20.047001      20.857         19044.946      2638.9572      4762.143       5107.5808      1613.5995     -816.23548      907.53887    
  22616500   260.02659     -355.39519     -279.19888     -355.41222      0              7119.5148      45.565178      20.047001      20.857         19051.726      6957.9971      7303.6204      7096.9269      490.5407      -590.6645      -877.08303    
  22617000   262.22833     -355.18742     -278.34593     -355.20466      0              7056.1853      45.511212      20.047001      20.857         19029.162      8766.9922      6296.1463      6105.4173      1722.9956     -700.24398      722.72038    
  22617500   251.80813     -351.49228     -277.70425     -351.50796      0              7202.8661      45.540948      20.047001      20.857         19041.595      6160.5881      8511.405       6936.605      -619.87469     -762.83292     -2680.8656    
  22618000   257.46426     -352.90392     -277.45846     -352.92012      0              6449.083       45.408373      20.047001      20.857         18986.163      6860.0622      7068.5023      5418.6845     -211.41412      1819.6757      1412.0641    
  22618500   254.38325     -351.40229     -276.85967     -351.41618      0              5533.4476      45.315469      20.047001      20.857         18947.318      7404.0349      4431.2198      4765.088      -564.55959      1925.805      -500.24255    
  22619000   253.79643     -354.00201     -279.63135     -354.01415      0              7349.727       45.525465      20.047001      20.857         19035.121      8811.9651      7875.0595      5362.1563     -166.34897     -414.94863     -933.94484    
  22619500   259.97206     -354.39214     -278.21181     -354.40589      0              6906.8356      45.534368      20.047001      20.857         19038.843      5960.551       9039.7397      5720.2163      1645.9343     -1947.324      -1252.6046    
  22620000   251.13864     -353.34648     -279.75463     -353.36109      0              4839.5671      45.562039      20.047001      20.857         19050.413      4258.1207      3442.8811      6817.6994     -771.90523      617.20416     -8.4330243    
  22620500   250.63711     -354.22555     -280.78067     -354.24104      0              1383.179       45.557806      20.047001      20.857         19048.644      2316.3953      1686.6788      146.46272     -211.72997      296.87394      990.52207    
  22621000   258.47655     -353.55503     -277.81294     -353.59381      0              5356.7388      45.279524      20.047001      20.857         18932.288      7139.5057      4579.4344      4351.2762     -62.8759        2226.1043     -30.631292    
  22621500   255.26327     -351.27908     -276.47859     -351.29735      0              7559.3167      45.320642      20.047001      20.857         18949.48       7005.0916      7874.9389      7797.9196      238.22648     -320.4412      -627.36735    
  22622000   255.72057     -352.19387     -277.25937     -352.22799      0              4173.8805      45.61278       20.047001      20.857         19071.629      4754.5937      4433.2389      3333.8089      1034.4463      774.12377     -825.05965    
  22622500   256.49812     -351.24807     -276.08572     -351.26637      0              7664.9087      45.50222       20.047001      20.857         19025.402      10062.579      6232.8332      6699.314       546.08291      125.26325     -400.84077    
  22623000   251.59396     -352.31243     -278.58716     -352.32487      0              6007.3815      45.263477      20.047001      20.857         18925.579      6659.1996      8732.1954      2630.7495      67.790339      737.67528      180.8488     
  22623500   257.88301     -351.97343     -276.40526     -352.00523      0              4254.239       45.360755      20.047001      20.857         18966.253      6201.4544      2712.0308      3849.2317      1134.5228      1048.5483      542.95851    
  22624000   253.37118     -349.55018     -275.30413     -349.57289      0              5376.841       45.627482      20.047001      20.857         19077.776      5820.6948      5435.1528      4874.6755      155.07255      1191.264       745.53371    
  22624500   268.93552     -350.31389     -271.50697     -350.33014      0              5783.2234      45.545246      20.047001      20.857         19043.392      5798.2098      4331.1648      7220.2957      977.1484       1641.0851     -2021.4244    
  22625000   256.16318     -350.64713     -275.58293     -350.66836      0              2047.6766      45.463564      20.047001      20.857         19009.239      3317.0857      2025.676       800.26814      60.324363      1581.7108      758.48114    
  22625500   255.32703     -351.9415      -277.12232     -351.99486      0              4045.5762      45.481209      20.047001      20.857         19016.617      4343.0271      4571.9306      3221.7708      802.36079      424.6177       883.73861    
  22626000   258.46767     -350.9137      -275.17421     -350.96891      0              6559.1893      45.419801      20.047001      20.857         18990.941      6698.8028      5073.7739      7904.9913      342.62226     -253.07948     -592.88536    
  22626500   260.46926     -353.46109     -277.13507     -353.48398      0              4139.8051      45.48914       20.047001      20.857         19019.933      4684.8479      2904.0646      4830.5028      414.63351     -136.95255      928.1394     
  22627000   258.55134     -354.37886     -278.61486     -354.40052      0              5752.7681      45.62875       20.047001      20.857         19078.306      5467.4559      6341.0507      5449.7977      308.66938      3213.6459      1406.5306    
  22627500   256.02029     -350.77779     -275.75546     -350.79436      0              7092.8178      45.486637      20.047001      20.857         19018.886      7397.9816      6604.3821      7276.0895      876.22333      1518.0522     -2532.4416    
  22628000   253.65163     -353.82787     -279.49963     -353.84374      0              6684.3776      45.459791      20.047001      20.857         19007.662      6291.4942      9691.4625      4070.176       1081.3448     -781.69149     -2307.789     
  22628500   254.5968      -353.80634     -279.20114     -353.82202      0              5608.9792      45.435623      20.047001      20.857         18997.556      4805.8841      3165.842       8855.2115      1051.8319      844.04039      64.794601    
  22629000   260.88184     -353.23605     -276.78913     -353.25498      0              5518.0014      45.345499      20.047001      20.857         18959.874      7957.6978      3924.3217      4671.9845      417.01233      557.36833     -841.7625     
  22629500   252.75278     -355.76999     -281.70515     -355.78899      0              6369.5263      45.223602      20.047001      20.857         18908.906      8734.969       4414.0701      5959.5398      555.02968      609.48421     -285.15862    
  22630000   253.91473     -352.92603     -278.5207      -352.94345      0              6039.2088      45.500577      20.047001      20.857         19024.715      6896.2462      4600.8339      6620.5464      149.20799      2190.5175      1412.0171    
  22630500   255.28606     -355.09866     -280.29148     -355.1701       0              5205.2581      45.396538      20.047001      20.857         18981.214      7135.0003      4800.5792      3680.1947      456.30154      1822.8039     -941.14109    
  22631000   259.18262     -352.09144     -276.14244     -352.11111      0              6802.8639      45.492738      20.047001      20.857         19021.437      6723.387       7625.6205      6059.5843      773.86088      1427.8523      373.60784    
  22631500   260.59731     -354.38909     -278.02554     -354.41875      0              4672.3973      45.754795      20.047001      20.857         19131.008      5298.2796      6211.1345      2507.7776      237.69418     -389.82888     -1783.5466    
  22632000   253.24031     -355.33818     -281.13047     -355.35631      0              5053.7193      45.569331      20.047001      20.857         19053.462      6015.0198      5858.0459      3288.0922     -230.0002      -536.08487     -481.91987    
  22632500   259.3679      -355.00114     -278.99786     -355.01568      0              6374.292       45.186326      20.047001      20.857         18893.32       7302.576       4618.3696      7201.9305     -894.39616      200.86156     -64.681156    
  22633000   261.55932     -356.43128     -279.78583     -356.45225      0              4743.7974      45.215203      20.047001      20.857         18905.394      8931.7678      1999.4531      3300.1714      311.78834     -297.02833      359.78964    
  22633500   261.82764     -354.96099     -278.23691     -354.97817      0              5163.6466      45.456326      20.047001      20.857         19006.213      5222.9084      2870.024       7398.0074     -529.47353     -51.322937     -636.94616    
  22634000   256.8929      -355.41114     -280.13311     -355.42753      0              5255.4616      45.841849      20.047001      20.857         19167.407      7607.0671      4877.6278      3281.6898      1614.9466     -113.83809     -1028.137     
  22634500   258.05633     -354.58515     -278.96619     -354.60398      0              4449.7329      45.70258       20.047001      20.857         19109.177      4631.0767      2903.3959      5814.726      -814.22981      1735.1976     -414.13113    
  22635000   261.15943     -356.13055     -279.60229     -356.15241      0              7414.9504      45.312758      20.047001      20.857         18946.184      7452.8635      8813.5743      5978.4135     -646.93429      412.05979      1128.2065    
  22635500   249.75822     -352.54067     -279.35334     -352.58574      0              5588.3112      45.370146      20.047001      20.857         18970.179      7570.2199      4706.5057      4488.2079      1730.8319      115.2632      -2338.4463    
  22636000   243.49966     -350.01397     -278.66059     -350.03871      0              4800.6517      45.418846      20.047001      20.857         18990.542      6550.6864      4111.3254      3739.9435      653.78608      1208.7015      2098.0069    
  22636500   254.70381     -350.59002     -275.95346     -350.60617      0              5078.7222      45.516531      20.047001      20.857         19031.386      7473.8191      4149.3011      3613.0463      1775.8454      273.85528     -1431.5145    
  22637000   259.7604      -352.31051     -276.19221     -352.32253      0              5482.6294      45.398501      20.047001      20.857         18982.035      4812.5779      6820.5331      4814.7773     -241.76078      130.75237      1112.1352    
  22637500   255.22414     -353.01803     -278.229       -353.0353       0              4661.4323      45.544799      20.047001      20.857         19043.205      4518.6779      4932.1692      4533.4498      1437.2196     -1401.0883     -2893.0118    
  22638000   266.49719     -352.21656     -274.12415     -352.23456      0              6352.3355      45.669169      20.047001      20.857         19095.207      5981.4696      5059.5965      8015.9404     -1018.6534     -732.465       -982.28735    
  22638500   257.32505     -353.32123     -277.91657     -353.33389      0              4228.3599      45.574155      20.047001      20.857         19055.479      7420.0937      4088.0421      1176.9438     -1592.2863     -964.8765      -271.59423    
  22639000   260.07068     -352.87689     -276.66766     -352.89411      0              5251.3608      45.616276      20.047001      20.857         19073.091      6612.9363      4274.2356      4866.9104      256.55479     -1525.6387      375.98723    
  22639500   251.80517     -353.73468     -279.94752     -353.75284      0              5654.5754      45.52669       20.047001      20.857         19035.633      6129.6719      5920.9395      4913.1147      385.19894     -2352.5888      213.9054     
  22640000   246.75479     -354.14261     -281.83538     -354.16052      0              4048.6487      45.462984      20.047001      20.857         19008.996      4939.3999      3965.2303      3241.3158      141.97065      331.87687     -449.11662    
  22640500   250.89621     -354.74778     -281.22697     -354.76641      0              5804.4199      45.292079      20.047001      20.857         18937.538      7707.7565      3684.8254      6020.6777      386.85773      860.70503     -122.22584    
  22641000   258.1074      -352.53565     -276.90173     -352.55141      0              4329.052       45.435408      20.047001      20.857         18997.466      5441.528       3666.508       3879.12        654.67659     -665.16645      2101.1219    
  22641500   258.32297     -351.52578     -275.82869     -351.54326      0              5136.1274      45.500642      20.047001      20.857         19024.742      8331.0252      2476.5911      4600.7658      778.28518     -411.64501     -1920.2137    
  22642000   258.27376     -356.17739     -280.49472     -356.19358      0              4895.1598      45.596444      20.047001      20.857         19064.799      4735.7773      5485.5338      4464.1685     -141.01216      1922.5487      1019.4003    
  22642500   254.151       -354.58831     -280.11374     -354.60163      0              5585.4879      45.300112      20.047001      20.857         18940.896      5703.6475      5771.9373      5280.8789      1353.4854     -986.08842      485.01947    
  22643000   251.89311     -354.08733     -280.2744      -354.10345      0              6941.3655      45.388938      20.047001      20.857         18978.036      8948.0416      6155.4848      5720.5701     -1166.6412      28.046025      1245.501     
  22643500   255.19296     -353.3877      -278.6078      -353.41032      0              4061.7428      45.670199      20.047001      20.857         19095.637      3426.1118      4680.5362      4078.5805      265.42784     -225.069        16.14907     
  22644000   249.53173     -354.29456     -281.17359     -354.31194      0              3939.8162      45.742963      20.047001      20.857         19126.062      3628.847       3656.2785      4534.3231     -188.1725       1034.2051     -2483.0743    
  22644500   254.40791     -353.33467     -278.78482     -353.34661      0              5690.7933      45.397185      20.047001      20.857         18981.485      7980.7418      3951.6877      5139.9503     -801.90701      860.3553      -935.42831    
  22645000   253.31684     -353.8971      -279.66697     -353.91196      0              7940.2999      45.449123      20.047001      20.857         19003.201      9082.4983      8072.9139      6665.4875      929.86448     -2583.2684     -822.89631    
  22645500   252.78995     -353.79722     -279.72149     -353.81575      0              6316.1496      45.659774      20.047001      20.857         19091.278      7407.3022      5910.9098      5630.2368     -556.60666      452.40491      335.38982    
  22646000   247.55936     -352.51974     -279.97674     -352.54947      0              3944.6674      45.596311      20.047001      20.857         19064.743      5303.9337      1162.1714      5367.8972      1901.8213     -1882.3461     -2551.1853    
  22646500   250.95221     -351.66242     -278.1252      -351.69275      0              5596.0984      45.663296      20.047001      20.857         19092.751      4980.4045      7767.9004      4039.9903      332.70666     -130.33285     -1233.6329    
  22647000   267.93784     -352.92869     -274.41413     -352.94314      0              5443.9883      45.606004      20.047001      20.857         19068.796      6041.2429      5279.6081      5011.1137      584.07436     -92.615836     -1377.1457    
  22647500   258.73873     -353.85732     -278.0384      -353.86928      0              4542.9157      45.496063      20.047001      20.857         19022.827      4745.8227      5642.8827      3240.0418     -148.45326     -57.471941     -352.38117    
  22648000   254.42033     -352.76033     -278.20684     -352.77576      0              7516.5795      45.301291      20.047001      20.857         18941.39       8388.0281      7500.247       6661.4634      976.97865     -206.50533     -2088.9772    
  22648500   254.36715     -350.41435     -275.87644     -350.42693      0              4900.9031      45.344359      20.047001      20.857         18959.397      4633.3974      5493.5871      4575.7249     -835.93004      949.80968     -301.62998    
  22649000   259.34298     -353.52116     -277.52517     -353.57594      0              3068.5267      45.594436      20.047001      20.857         19063.959      1605.8416      3690.3988      3909.3397     -1045.4607     -894.81028      688.51746    
  22649500   252.69989     -352.48884     -278.4395      -352.51294      0              5365.0511      45.429537      20.047001      20.857         18995.012      5818.3334      7343.4487      2933.3713     -1372.6698     -13.037338     -703.33186    
  22650000   256.08414     -352.7015      -277.66046     -352.71482      0              5305.0454      45.21486       20.047001      20.857         18905.251      5356.2462      4293.7967      6265.0934      502.70618     -2027.5384      504.90031    
  22650500   254.56874     -353.47004     -278.87306     -353.4893       0              5139.7281      45.627026      20.047001      20.857         19077.586      4004.5054      8539.6429      2875.0359     -1296.576      -632.11202      391.75132    
  22651000   255.52804     -354.04924     -279.17115     -354.06565      0              4953.4494      45.612204      20.047001      20.857         19071.388      3375.3056      5934.8664      5550.1763      69.517938      157.55804     -379.04582    
  22651500   245.17326     -356.41471     -284.57091     -356.43942      0              4196.9081      45.627104      20.047001      20.857         19077.618      5677.7051      6605.2092      307.81013      129.81833      124.25159     -1664.5441    
  22652000   246.91481     -356.60692     -284.2528      -356.62576      0              6091.3753      45.556068      20.047001      20.857         19047.917      6461.0451      4974.4408      6838.64        1055.2486      689.80999      744.15998    
  22652500   251.80922     -354.87276     -281.08441     -354.9469       0              3157.7829      45.468991      20.047001      20.857         19011.508      1890.004       3492.0677      4091.277      -1624.9744      379.21365      657.06633    
  22653000   261.97359     -352.69649     -275.92965     -352.70944      0              6209.1317      45.480037      20.047001      20.857         19016.127      7696.2186      4160.5338      6770.6426      770.20666      1291.9875     -1568.7872    
  22653500   254.31305     -355.48527     -280.96322     -355.49923      0              5236.981       45.684888      20.047001      20.857         19101.779      7769.2571      5040.7806      2900.9051     -1081.6979     -320.68612     -823.57288    
  22654000   239.53679     -351.96725     -281.77512     -351.98102      0              4459.6571      45.731095      20.047001      20.857         19121.099      8544.5482      746.69553      4087.7274     -1778.4142      1027.1852     -864.96986    
  22654500   254.31458     -354.1732      -279.6507      -354.19225      0              6882.8957      45.631032      20.047001      20.857         19079.261      7675.0621      6475.4557      6498.1692     -284.76486     -581.59846      792.2405     
  22655000   253.15236     -353.69033     -279.5084      -353.70335      0              9249.5609      45.281967      20.047001      20.857         18933.31       8991.9015      8708.6854      10048.096      105.31813      630.98973     -592.26098    
  22655500   253.21543     -355.03413     -280.83372     -355.04999      0              4508.4994      45.560843      20.047001      20.857         19049.913      5399.425       2207.232       5918.8412     -963.65479      2098.2442     -455.76291    
  22656000   253.49744     -354.44596     -280.16291     -354.47354      0              7510.4903      45.516779      20.047001      20.857         19031.489      7385.13        6943.4358      8202.905       625.89987     -0.96205344    -694.94804    
  22656500   250.29396     -353.92117     -280.57684     -353.93355      0              8707.4576      45.267464      20.047001      20.857         18927.245      10839.125      8558.5283      6724.7193     -781.04081      1787.6343     -723.75374    
  22657000   255.74116     -355.81947     -280.87894     -355.84084      0              4827.5945      45.55616       20.047001      20.857         19047.955      4744.3709      5256.8063      4481.6062     -870.42261     -191.93066      1047.6448    
  22657500   261.30784     -352.58226     -276.01051     -352.59489      0              4004.9566      45.749322      20.047001      20.857         19128.72       4377.206       3608.5305      4029.1333      108.91363      686.9717       339.9696     
  22658000   257.66896     -354.70667     -279.20123     -354.7504       0              5108.7331      45.503876      20.047001      20.857         19026.094      5643.5608      5003.3168      4679.3216     -1097.8727     -259.86462     -1865.7059    
  22658500   256.77957     -353.96357     -278.71875     -353.97832      0              6006.7349      45.362168      20.047001      20.857         18966.843      6197.6891      6993.7959      4828.7196      2175.1029     -243.24911      289.11324    
  22659000   258.22456     -351.82494     -276.15669     -351.83735      0              5441.6569      45.407039      20.047001      20.857         18985.605      6720.4915      5146.5997      4457.8794     -969.23349      730.87738     -834.848      
  22659500   253.58262     -354.37801     -280.07        -354.38992      0              7062.5234      45.505756      20.047001      20.857         19026.88       6433.7684      7143.3356      7610.4662      180.70698     -1618.4443      663.54327    
  22660000   253.46323     -354.19845     -279.92542     -354.21793      0              4126.458       45.396067      20.047001      20.857         18981.017      3924.972       3460.6131      4993.789      -2496.4824      157.43926      1332.9204    
  22660500   260.81316     -352.78715     -276.36035     -352.79908      0              6159.0203      45.327895      20.047001      20.857         18952.513      5702.1274      7227.0721      5547.8615     -258.64116      638.47913     -894.21842    
  22661000   260.59956     -354.86718     -278.50297     -354.882        0              6003.1315      45.308307      20.047001      20.857         18944.323      7263.5333      6036.4901      4709.3711     -376.89834     -1039.9447     -1201.9922    
  22661500   250.45484     -354.91993     -281.52846     -354.92979      0              4719.4925      45.350463      20.047001      20.857         18961.949      8153.126       4367.7733      1637.5781     -926.45807     -970.34801      39.028225    
  22662000   260.94889     -356.97141     -280.50484     -357.00286      0              6121.0058      45.461908      20.047001      20.857         19008.546      5462.4768      6173.0213      6727.5192     -523.04361      1031.7084      439.46029    
  22662500   253.07887     -353.72803     -279.56763     -353.74042      0              7535.9911      45.219985      20.047001      20.857         18907.394      7630.7596      6288.7045      8688.5092     -840.55183      229.9049       533.80064    
  22663000   256.88828     -352.61334     -277.33666     -352.62571      0              5703.2233      45.22793       20.047001      20.857         18910.716      5908.1179      4421.2239      6780.3281     -311.62852     -345.19761      656.46561    
  22663500   261.42489     -355.16014     -278.55409     -355.17771      0              6039.0702      45.400546      20.047001      20.857         18982.89       5580.3732      4340.2224      8196.6149     -75.351787      296.00608     -1552.7535    
  22664000   248.1354      -354.905       -282.1932      -354.92366      0              5736.9289      45.158013      20.047001      20.857         18881.482      4441.244       6888.5598      5880.9829      653.00923      430.32336     -453.98912    
  22664500   245.89044     -355.41326     -283.35931     -355.44795      0              4800.4133      45.005204      20.047001      20.857         18817.589      5123.1178      4087.7964      5190.3258      595.09246     -33.694607      602.82949    
  22665000   245.30058     -355.40751     -283.52641     -355.41979      0              5268.6831      45.200927      20.047001      20.857         18899.425      6966.8401      4882.3066      3956.9024     -769.06254     -765.59637      1353.4257    
  22665500   250.39821     -353.71846     -280.34358     -353.77157      0              840.99635      45.667906      20.047001      20.857         19094.679     -369.90439      1884.2788      1008.6146      628.45068     -1501.366      -1629.1321    
  22666000   251.77651     -354.01656     -280.23779     -354.03148      0              4819.5346      45.222667      20.047001      20.857         18908.515      4883.4449      5142.2586      4432.9005      35.094761      523.4693       540.09072    
  22666500   257.96452     -356.6801      -281.08805     -356.69738      0              8567.1422      45.049619      20.047001      20.857         18836.16       7222.6961      11874.243      6604.4874     -1629.9625      34.760753     -353.60042    
  22667000   258.50566     -354.87512     -279.12449     -354.88699      0              6173.9009      45.103755      20.047001      20.857         18858.795      6416.5752      6791.1488      5313.9787      28.37269       432.75893     -65.760028    
  22667500   253.7668      -351.88183     -277.51985     -351.89599      0              4562.0096      45.380446      20.047001      20.857         18974.486      5235.1672      4048.0039      4402.8579      663.35345     -1447.104       1111.7047    
  22668000   252.09872     -352.66437     -278.79119     -352.68582      0              5131.4818      45.442171      20.047001      20.857         19000.294      4037.2708      6152.9253      5204.2495     -1911.2522     -666.47325      248.58047    
  22668500   250.84749     -353.54991     -280.04339     -353.56199      0              4440.4055      45.060065      20.047001      20.857         18840.528      5160.0439      4412.2684      3748.9044     -1007.5435     -1475.8366     -719.92167    
  22669000   258.7673      -354.60702     -278.77973     -354.62502      0              6163.5785      45.093139      20.047001      20.857         18854.357      7701.5232      5907.5697      4881.6427     -986.76755     -1671.93       -1744.2608    
  22669500   255.65098     -354.33334     -279.41924     -354.3456       0              4689.8252      45.374819      20.047001      20.857         18972.133      4265.9919      5622.3792      4181.1045     -1158.6543      1877.0752     -773.26895    
  22670000   254.78767     -354.84418     -280.18304     -354.85649      0              5174.5695      45.389291      20.047001      20.857         18978.184      5853.2385      6246.0545      3424.4154     -697.84712      1505.1478     -1426.3329    
  22670500   247.37654     -350.79211     -278.30268     -350.80592      0              6071.0139      45.179187      20.047001      20.857         18890.335      7862.2126      5593.1046      4757.7246      1186.0739      2480.8842      479.41518    
  22671000   255.81456     -354.39777     -279.43572     -354.41627      0              7257.7284      45.291813      20.047001      20.857         18937.426      8618.5917      5239.2037      7915.3899      1465.2266      1310.1577      460.79207    
  22671500   250.60928     -353.0598      -279.62308     -353.10489      0              4122.3688      45.304932      20.047001      20.857         18942.912      4887.8993      2699.184       4780.0231     -1223.2673     -2434.5835     -57.23599     
  22672000   255.63083     -354.15049     -279.24228     -354.16445      0              7215.429       45.26115       20.047001      20.857         18924.606      7796.425       7028.0624      6821.7995     -144.19615     -1341.5366      1076.0732    
  22672500   256.70885     -355.14049     -279.91639     -355.15233      0              5825.862       45.389019      20.047001      20.857         18978.07       7198.3747      4057.0408      6222.1704     -999.07635     -534.69329      790.42814    
  22673000   253.63963     -354.13244     -279.80773     -354.14554      0              4074.9209      45.453942      20.047001      20.857         19005.216      4172.6611      5020.7271      3031.3744      614.09904      525.33157     -1867.8285    
  22673500   252.66385     -355.03721     -280.99843     -355.05097      0              6952.9254      45.182995      20.047001      20.857         18891.927      10144.781      2791.6501      7922.3451     -1245.3427     -1421.8842      1477.0156    
  22674000   258.56345     -354.23864     -278.47108     -354.25473      0              5198.5631      45.366554      20.047001      20.857         18968.677      6738.5019      4567.4551      4289.7322      621.70953      1295.888       632.38031    
  22674500   260.32114     -353.33293     -277.05031     -353.34577      0              6884.1172      45.551507      20.047001      20.857         19046.01       6812.8109      5572.9342      8266.6065      268.83278      428.4347      -1277.115     
  22675000   252.67711     -351.09794     -277.05527     -351.11331      0              6350.1582      45.395254      20.047001      20.857         18980.677      6956.9453      3851.0135      8242.5158      453.25453      2162.2613      1531.4465    
  22675500   257.05393     -353.69672     -278.3715      -353.7156       0              6726.1752      45.409367      20.047001      20.857         18986.578      7495.629       6443.654       6239.2425     -23.653388      443.29612      321.19823    
  22676000   255.55478     -354.49418     -279.60826     -354.52321      0              4694.3651      45.674276      20.047001      20.857         19097.342      3977.3142      6347.3984      3758.3829     -141.5483       1689.3549     -154.21249    
  22676500   256.25411     -353.73091     -278.64007     -353.75164      0              4490.479       45.459044      20.047001      20.857         19007.349      4442.8886      4619.6687      4408.8798      113.82937      1209.2336     -268.0329     
  22677000   251.05828     -351.45253     -277.88423     -351.48554      0              7152.057       45.201814      20.047001      20.857         18899.796      8459.2594      5963.167       7033.7444      590.18935      661.81373     -1582.5603    
  22677500   249.81322     -354.06711     -280.86366     -354.08284      0              5005.6038      45.585486      20.047001      20.857         19060.217      3540.0844      5136.4912      6340.2358     -737.51554     -23.585551     -221.84854    
  22678000   252.85443     -355.0632      -280.96857     -355.08243      0              4242.809       45.621897      20.047001      20.857         19075.441      4840.2016      5154.6999      2733.5255      856.16973     -695.07411      368.75686    
  22678500   256.34212     -355.54872     -280.43209     -355.56616      0              5308.4585      45.476907      20.047001      20.857         19014.818      7261.6361      4929.538       3734.2014      174.0245       552.77838      501.41966    
  22679000   257.94999     -354.51399     -278.9262      -354.52582      0              7082.2413      45.332909      20.047001      20.857         18954.61       6340.6684      7453.3959      7452.6596      677.85303     -1330.1129     -521.67852    
  22679500   249.59945     -352.49441     -279.3536      -352.50996      0              7452.6152      45.309338      20.047001      20.857         18944.754      8820.186       7125.6986      6411.961       793.36245     -968.92279     -342.45147    
  22680000   249.5531      -351.10736     -277.98013     -351.14433      0              4656.1917      45.50687       20.047001      20.857         19027.346      5847.2416      3956.0356      4165.2979     -468.40606      2255.4431     -939.90312    
  22680500   264.82769     -352.40817     -274.80498     -352.42391      0              4746.861       45.510797      20.047001      20.857         19028.988      5644.1697      4966.8253      3629.5881      1371.7276      1390.8249     -976.68299    
  22681000   259.70975     -354.89104     -278.78758     -354.94422      0              5442.4693      45.221607      20.047001      20.857         18908.072      7485.4092      4024.5482      4817.4505     -367.93578     -1573.1711     -1.4785926    
  22681500   260.61462     -353.6586      -277.28999     -353.68817      0              5075.937       45.259121      20.047001      20.857         18923.757      5036.3584      5621.8741      4569.5784      148.24152     -1811.3958      763.48111    
  22682000   251.70444     -352.27104     -278.5134      -352.29037      0              4535.0686      45.448716      20.047001      20.857         19003.031      4750.6323      3321.2541      5533.3194     -44.232929     -1120.5775      311.31757    
  22682500   257.50833     -351.74428     -276.28591     -351.76864      0              7683.6809      45.448749      20.047001      20.857         19003.045      8568.0459      6797.748       7685.2488     -149.84857     -871.26467      578.01405    
  22683000   261.65688     -353.47186     -276.79782     -353.48722      0              8446.9234      45.062413      20.047001      20.857         18841.509      10401.455      7952.3557      6986.96       -173.5166      -287.88709      2434.9445    
  22683500   258.25626     -351.63139     -275.95385     -351.64398      0              4850.0227      45.222384      20.047001      20.857         18908.397      5251.5759      4660.9939      4637.4983      2049.3937     -1685.5702     -960.50138    
  22684000   256.93943     -353.22701     -277.93534     -353.23883      0              4967.4726      45.198819      20.047001      20.857         18898.544      4022.5483      3641.8636      7238.0061      90.984037      960.78929      211.74022    
  22684500   252.05357     -351.36295     -277.503       -351.3795       0              7556.2212      45.10302       20.047001      20.857         18858.488      6792.99        8393.1088      7482.5648     -99.690961     -827.13892      728.94927    
  22685000   251.39134     -352.06045     -278.39456     -352.07673      0              5566.0298      45.364472      20.047001      20.857         18967.807      5414.2725      5541.0484      5742.7685     -429.6273       1703.9572      1231.5047    
  22685500   258.59983     -355.12652     -279.3483      -355.14         0              5290.8079      45.360968      20.047001      20.857         18966.341      5267.9824      5530.4484      5073.9928     -670.46798      267.28019     -1406.322     
  22686000   251.11064     -350.8233      -277.23965     -350.83984      0              4148.5853      45.244255      20.047001      20.857         18917.541      5841.6275      4057.7279      2546.4005      556.0142      -967.01816     -1113.0491    
  22686500   254.63676     -353.68944     -279.07254     -353.75679      0              3692.4827      45.482222      20.047001      20.857         19017.04       6043.3173      3998.5347      1035.5962     -1180.2689      695.70202     -1444.9271    
  22687000   250.49864     -352.88555     -279.48124     -352.90149      0              5530.01        45.746895      20.047001      20.857         19127.705      4238.0326      5256.0612      7095.9361     -678.98047     -113.14508      65.437438    
  22687500   255.29263     -354.67617     -279.86707     -354.68885      0              5770.1933      45.54716       20.047001      20.857         19044.192      7140.0149      5679.9319      4490.6332     -372.7663       317.72342      505.39242    
  22688000   258.11064     -355.13366     -279.49879     -355.15788      0              4525.6821      45.365882      20.047001      20.857         18968.396      4706.8994      3989.8931      4880.254      -143.22624     -29.891197      910.32677    
  22688500   255.31625     -353.82433     -279.00831     -353.84117      0              7723.9588      45.383676      20.047001      20.857         18975.836      8717.9542      6395.2236      8058.6985     -854.07978      1213.3377     -1334.3906    
  22689000   257.874       -353.89481     -278.32928     -353.90772      0              7511.4618      45.471382      20.047001      20.857         19012.508      7319.2691      8517.1507      6697.9655      901.73807     -759.90467     -1335.3335    
  22689500   258.26209     -353.00992     -277.33067     -353.02571      0              3479.5254      45.625694      20.047001      20.857         19077.029      641.74069      6007.3539      3789.4815     -883.00508     -352.5421       73.886081    
  22690000   260.6963      -352.78676     -276.3942      -352.80063      0              5561.124       45.508023      20.047001      20.857         19027.828      6109.8638      4135.7129      6437.7953     -780.14735     -631.66788      2250.6169    
  22690500   255.79666     -352.60376     -277.64696     -352.61981      0              3747.0218      45.472991      20.047001      20.857         19013.181      3678.8861      3379.0937      4183.0855     -14.656732     -855.61795     -416.75855    
  22691000   252.42666     -355.11424     -281.14496     -355.18273      0              4101.9324      45.584379      20.047001      20.857         19059.754      6371.2499      3111.2127      2823.3346     -110.42254     -66.628078      514.09667    
  22691500   249.72077     -351.0755      -277.89913     -351.08878      0              3509.9598      45.53884       20.047001      20.857         19040.713      4084.9372      3865.9776      2578.9646     -1372.6212     -1437.032       670.82369    
  22692000   248.201       -352.04923     -279.31821     -352.06105      0              6354.4209      45.50761       20.047001      20.857         19027.656      8691.5327      4559.5199      5812.2102     -506.94502      346.36121     -452.53493    
  22692500   249.58983     -355.21918     -282.08119     -355.23831      0              5091.7883      45.72887       20.047001      20.857         19120.169      6670.1272      3415.3849      5189.8528     -1197.0647     -1645.1008      925.38464    
  22693000   252.2794      -354.01625     -280.09013     -354.02929      0              5431.6085      45.614678      20.047001      20.857         19072.423      6504.9337      4396.6255      5393.2665      124.31782     -555.23252      690.53487    
  22693500   255.41545     -353.84796     -279.00287     -353.86343      0              7139.807       45.360963      20.047001      20.857         18966.339      10090.381      6312.3178      5016.7217      657.50608      1385.322      -744.96495    
  22694000   258.34827     -353.21124     -277.50674     -353.23016      0              5885.7846      45.530918      20.047001      20.857         19037.401      3953.8285      7015.0946      6688.4307     -972.04597     -578.17693     -709.12406    
  22694500   256.88692     -353.65463     -278.37835     -353.66863      0              5754.0182      45.707671      20.047001      20.857         19111.305      6518.1035      5846.9084      4897.0425      274.77479      357.81757      599.36836    
  22695000   248.66792     -352.18279     -279.31494     -352.19644      0              6777.877       45.613277      20.047001      20.857         19071.837      6438.6354      8681.6493      5213.3462     -628.50058     -1183.5299     -139.02578    
  22695500   254.01592     -353.28752     -278.85253     -353.29938      0              5198.6089      45.34137       20.047001      20.857         18958.147      7054.8473      5128.0339      3412.9455     -1071.4003     -1473.1816      260.30574    
  22696000   252.10258     -353.67788     -279.80356     -353.6942       0              6582.9659      45.481013      20.047001      20.857         19016.535      6157.4366      6050.1124      7541.3486      699.51101      1156.1694      498.13786    
  22696500   254.63401     -352.86405     -278.24794     -352.91496      0              3645.5404      45.640541      20.047001      20.857         19083.236      5054.6204      5022.3471      859.65373     -340.74807      1304.3782      517.19315    
  22697000   250.72766     -352.35282     -278.8814      -352.36872      0              4996.6928      45.609363      20.047001      20.857         19070.201      6933.3486      5167.8039      2888.926      -674.82803      1516.3059      1606.147     
  22697500   257.7494      -351.88716     -276.35815     -351.899        0              5832.3021      45.499354      20.047001      20.857         19024.204      8092.896       4690.4294      4713.5811      1347.0806      144.36846     -860.40697    
  22698000   249.28809     -352.30422     -279.25465     -352.31832      0              6456.4951      45.526456      20.047001      20.857         19035.535      6766.8748      6827.6512      5774.9593      227.38108      756.53427     -1410.3273    
  22698500   257.74544     -354.44791     -278.92006     -354.46009      0              5256.0897      45.683298      20.047001      20.857         19101.114      5197.0341      5830.3365      4740.8984     -22.89806       1358.571      -631.54821    
  22699000   252.81504     -351.25759     -277.17451     -351.26975      0              5275.4634      45.670889      20.047001      20.857         19095.926      6590.5466      5933.8445      3301.9992      75.986875     -183.03491      372.89603    
  22699500   255.38934     -352.51925     -277.68181     -352.54854      0              4700.7629      45.537947      20.047001      20.857         19040.34       4218.5332      3028.1931      6855.5625     -363.82213      1585.5065     -1155.391     
  22700000   261.03799     -351.99986     -275.50718     -352.02784      0              6022.6738      45.644579      20.047001      20.857         19084.925      8754.6078      4672.5807      4640.8331     -2155.3502     -1162.7974      667.0659     
  22700500   255.56122     -353.0914      -278.20359     -353.1115       0              4664.7342      45.780778      20.047001      20.857         19141.873      6210.4989      5635.0322      2148.6715      1142.6561      1238.226      -1097.6151    
  22701000   265.11459     -354.43236     -276.74511     -354.44994      0              5983.7044      45.716291      20.047001      20.857         19114.909      6413.5153      5306.9387      6230.6591     -931.88047     -152.32597      889.87034    
  22701500   250.81795     -353.05537     -279.5575      -353.07353      0              5675.993       45.354544      20.047001      20.857         18963.655      6719.3786      6330.3111      3978.2892     -84.611963     -141.72488     -1059.6208    
  22702000   248.66948     -351.1414      -278.2731      -351.15848      0              5890.6635      45.311644      20.047001      20.857         18945.718      8543.9099      5680.5951      3447.4854     -806.59406      351.08934      543.46707    
  22702500   253.2627      -353.59803     -279.38376     -353.6285       0              3149.844       45.743161      20.047001      20.857         19126.144      3832.5862      1199.7499      4417.1958      1065.0225     -733.83238     -1003.5882    
  22703000   250.6767      -352.83701     -279.38053     -352.85123      0              5232.8235      45.736716      20.047001      20.857         19123.449      5403.3422      3490.7893      6804.3391     -800.26015      622.08567      2003.9037    
  22703500   259.66739     -354.72637     -278.63532     -354.74271      0              7081.1794      45.500853      20.047001      20.857         19024.83       9399.6061      5870.2165      5973.7157     -6.644444       16.115804      1451.8025    
  22704000   251.68798     -352.20296     -278.45014     -352.23356      0              5079.4699      45.663823      20.047001      20.857         19092.971      7562.4927      4018.5818      3657.3353     -176.78566     -673.69568     -1754.4721    
  22704500   251.90224     -351.7524      -277.93679     -351.76873      0              6352.2411      45.809482      20.047001      20.857         19153.874      5473.1578      6136.5852      7446.9803      350.04222     -1322.9457     -420.4793     
  22705000   254.08474     -353.13135     -278.6762      -353.14463      0              7170.6113      45.424559      20.047001      20.857         18992.93       8514.4144      7461.3252      5536.0943     -1372.4898      985.12079      2277.4548    
  22705500   252.30569     -349.88484     -275.95101     -349.9026       0              6267.8547      45.348869      20.047001      20.857         18961.283      5986.6409      5229.7412      7587.182       867.61545      1205.8715      1334.6709    
  22706000   247.4511      -353.41206     -280.90078     -353.42596      0              3999.3065      45.704343      20.047001      20.857         19109.914      5697.4701      2072.7065      4227.743      -1759.5106      1108.2887     -1633.8308    
  22706500   251.1678      -355.46935     -281.86896     -355.48481      0              4918.1439      45.987297      20.047001      20.857         19228.222      3711.3157      5946.9924      5096.1235      586.78448      1126.2942      122.55256    
  22707000   256.49668     -354.32336     -279.16144     -354.33515      0              5182.1585      45.545676      20.047001      20.857         19043.572      6041.5439      4178.4255      5326.5062      553.62588     -187.58795      1126.8232    
  22707500   256.48666     -351.41061     -276.25162     -351.42914      0              4696.3725      45.208785      20.047001      20.857         18902.711      6762.803       3710.0689      3616.2456      369.35153      631.77781      783.7032     
  22708000   260.6222      -352.29191     -275.92107     -352.30992      0              5662.051       45.407632      20.047001      20.857         18985.853      6459.5099      3841.2174      6685.4258     -918.3581      -584.71004      807.07269    
  22708500   254.9892      -353.72582     -279.00563     -353.74143      0              5112.3582      45.755924      20.047001      20.857         19131.481      4930.7402      5831.7304      4574.604      -82.80598       594.25578      595.02142    
  22709000   256.98529     -354.3162      -279.01109     -354.33781      0              5356.0168      45.395231      20.047001      20.857         18980.668      4652.4696      6754.6477      4660.9331     -152.13212     -873.96227      7.3992354    
  22709500   255.33448     -350.57024     -275.74887     -350.59109      0              7603.066       45.170388      20.047001      20.857         18886.656      7330.7713      8673.2099      6805.2168      1761.0609      269.43892     -2626.1203    
  22710000   249.90943     -353.70721     -280.47556     -353.72249      0              5642.6648      45.276391      20.047001      20.857         18930.978      7113.0934      3894.6215      5920.2796     -777.77295     -276.03221      1689.7942    
  22710500   252.57136     -353.55588     -279.5442      -353.57345      0              6200.4194      45.624025      20.047001      20.857         19076.331      8124.4995      5663.4523      4813.3064      965.01476     -930.81836      1747.0621    
  22711000   256.12727     -352.95602     -277.90234     -352.9732       0              6280.1421      45.641297      20.047001      20.857         19083.553      10060.703      4281.024       4498.6992     -557.59971      461.64545     -774.24274    
  22711500   251.98485     -351.48013     -277.64032     -351.4973       0              4718.8049      45.584933      20.047001      20.857         19059.986      3950.0441      3543.4161      6662.9545      1119.2818      1205.9487     -451.5445     
  22712000   258.02287     -353.04181     -277.43266     -353.05912      0              6533.5389      45.434816      20.047001      20.857         18997.219      5295.1349      7479.3424      6826.1395      175.53605      62.211622      285.22891    
  22712500   260.87978     -351.52933     -275.08301     -351.54975      0              4649.8879      45.691731      20.047001      20.857         19104.64       3749.219       5043.6262      5156.8185      377.62607      712.76983      2772.2605    
  22713000   255.39502     -352.51674     -277.67764     -352.53368      0              5243.2039      45.938446      20.047001      20.857         19207.797      6574.6614      4734.742       4420.2085     -457.91322      534.1917      -694.82273    
  22713500   250.40859     -352.43588     -279.05797     -352.45363      0              7179.2387      45.83788       20.047001      20.857         19165.748      8399.7552      6608.9909      6528.9698     -653.11087     -1533.1644     -89.760726    
  22714000   246.20938     -354.46419     -282.31678     -354.49194      0              5052.4735      45.434591      20.047001      20.857         18997.125      5837.064       3773.0847      5547.2719      1298.8549      1184.7757     -1165.9952    
  22714500   257.35209     -353.67392     -278.26133     -353.70239      0              5624.316       45.2262        20.047001      20.857         18909.992      7434.0725      6342.8639      3096.0116     -693.80002     -1121.7466      18.105213    
  22715000   258.68321     -352.73056     -276.92791     -352.77698      0              3083.6716      45.434897      20.047001      20.857         18997.253      3503.1694      2359.0122      3388.8331      56.438683      503.00943      771.73049    
  22715500   259.17076     -351.56999     -275.62447     -351.58588      0              4789.0004      45.7665        20.047001      20.857         19135.903      4021.3215      4290.5647      6055.1149     -388.1548      -1757.6683      189.31101    
  22716000   257.76321     -353.92787     -278.39481     -353.94478      0              5730.819       45.620306      20.047001      20.857         19074.776      3220.1758      6966.7371      7005.544      -1170.7295      32.941886     -329.58531    
  22716500   255.96713     -352.86301     -277.85626     -352.87465      0              5547.8618      45.305812      20.047001      20.857         18943.28       7148.6479      5676.9897      3817.9478      2596.3149      1513.2709      2085.8408    
  22717000   259.19726     -353.70989     -277.75661     -353.72338      0              6182.9996      45.322756      20.047001      20.857         18950.364      6995.6114      5973.3796      5580.008      -759.59597      67.778826      372.41985    
  22717500   261.79211     -353.62353     -276.90986     -353.64319      0              6477.2186      45.40082       20.047001      20.857         18983.005      7503.3753      5060.4069      6867.8735      696.45819      1469.8253     -701.85687    
  22718000   255.97881     -353.3958      -278.38563     -353.42285      0              5933.0201      45.701981      20.047001      20.857         19108.926      9620.2851      3265.3219      4913.4532     -1532.6223      343.50879      500.81516    
  22718500   256.29751     -351.8818      -276.77824     -351.90899      0              4001.6723      45.653825      20.047001      20.857         19088.791      2868.0955      4921.4335      4215.4878     -607.80775      607.59894     -116.55521    
  22719000   258.1841      -352.60673     -276.95034     -352.62323      0              7826.5961      45.359488      20.047001      20.857         18965.723      8876.001       7732.1442      6871.6431      476.13795     -2769.8846      24.787259    
  22719500   260.65175     -353.18047     -276.80097     -353.19811      0              2769.3485      45.487693      20.047001      20.857         19019.328      2250.5704      2777.7195      3279.7557     -350.52312     -832.30558     -67.16335     
  22720000   255.18211     -351.88322     -277.10651     -351.89802      0              6591.6273      45.522546      20.047001      20.857         19033.9        10122.489      5045.6438      4606.7487      672.01662     -1431.0069      1898.2495    
  22720500   255.86755     -353.62196     -278.64439     -353.63371      0              7406.0416      45.688579      20.047001      20.857         19103.322      8035.5844      7446.1268      6736.4134      1526.3775     -1667.0934     -902.00717    
  22721000   257.13275     -354.90071     -279.55239     -354.91245      0              3868.8578      45.914276      20.047001      20.857         19197.691      3941.71        2697.0394      4967.824       1529.2645     -395.87803      854.87493    
[...]
  24443000   250.36602     -354.78656     -281.42112     -354.76482      0              6196.5486      45.411578      20.047001      20.857         18987.503      9153.9998      5602.9189      3832.7271      1676.3381     -337.70705      243.71672    
  24443500   248.94387     -353.35572     -280.40701     -353.34649      0              4823.5516      45.531754      20.047001      20.857         19037.751      4998.0663      3536.3289      5936.2596     -2371.6218     -1410.1528     -601.74928    
  24444000   250.94834     -353.74162     -280.20554     -353.72882      0              6472.1918      45.5475        20.047001      20.857         19044.334      8903.8971      4426.8027      6085.8755      992.88264      1380.6896      26.029537    
  24444500   249.68566     -352.20227     -279.03619     -352.18826      0              6881.2247      45.593071      20.047001      20.857         19063.388      5846.4499      6629.5572      8167.6671      693.45655     -233.56137      1334.1796    
  24445000   264.63403     -352.05069     -274.50425     -352.04571      0              6063.9666      45.519691      20.047001      20.857         19032.707      6390.4454      6325.7971      5475.6573      211.28674      713.7579       552.46272    
  24445500   259.24638     -351.32168     -275.354       -351.32552      0              5905.2002      45.404091      20.047001      20.857         18984.372      5912.1262      5235.3184      6568.156       365.44981     -545.491       -128.74947    
  24446000   254.4495      -350.8802      -276.31816     -350.87482      0              5087.6984      45.603166      20.047001      20.857         19067.609      6314.8919      4481.4547      4466.7486     -407.50755      1226.2483     -593.19044    
  24446500   253.24591     -354.87846     -280.66911     -354.88646      0              3643.0482      45.766332      20.047001      20.857         19135.833      2178.0907      4978.6617      3772.3924      256.91351     -1302.7477      766.37728    
  24447000   254.21765     -353.24688     -278.75278     -353.25369      0              6925.9999      45.593193      20.047001      20.857         19063.44       9565.8854      5887.6613      5324.4529      80.313423     -76.64054      -1446.4191    
  24447500   259.73726     -352.54119     -276.42966     -352.55352      0              6552.8499      45.525249      20.047001      20.857         19035.031      8231.9558      4806.189       6620.405      -1072.4458     -233.65539     -1096.1483    
  24448000   252.174       -352.76554     -278.8703      -352.76122      0              5867.5544      45.528866      20.047001      20.857         19036.543      5564.6038      7405.3282      4632.7313     -52.055949      134.07082     -468.46587    
  24448500   246.59678     -352.46302     -280.20208     -352.45923      0              5767.4353      45.379516      20.047001      20.857         18974.097      6831.4429      1950.4614      8520.4016      1574.5562      814.48737      519.08662    
  24449000   248.33558     -353.082       -280.31155     -353.07087      0              7114.0035      45.215631      20.047001      20.857         18905.573      8579.8124      6302.628       6459.57       -511.2232       202.45136     -218.43578    
  24449500   249.97501     -352.26291     -279.01204     -352.27508      0              4019.5559      45.475941      20.047001      20.857         19014.414      3808.0683      4225.046       4025.5532      978.39867      135.34441      359.95779    
  24450000   257.15756     -351.12814     -275.77256     -351.13593      0              6523.1908      45.742142      20.047001      20.857         19125.718      7290.1782      5713.8591      6565.535      -9.0549634     -139.92416     -121.34066    
  24450500   259.18559     -351.36592     -275.41606     -351.3782       0              6945.6489      45.744261      20.047001      20.857         19126.604      6460.2005      7228.3651      7148.3812     -1213.7516     -397.47767      183.11825    
  24451000   255.50784     -356.73279     -281.86063     -356.7441       0              6778.4274      45.525228      20.047001      20.857         19035.022      7027.8031      7295.6553      6011.8236     -477.30281     -440.73487      829.63627    
  24451500   258.57066     -356.76463     -280.99496     -356.77681      0              8348.9652      45.631108      20.047001      20.857         19079.293      9892.5432      8134.2742      7020.0782      500.30271     -1510.6594     -1020.9885    
  24452000   254.33582     -355.49403     -280.96531     -355.50601      0              4803.609       45.732056      20.047001      20.857         19121.501      6173.6721      3598.6896      4638.4653     -530.64095     -950.6706       889.27762    
  24452500   254.81914     -355.23917     -280.56882     -355.23666      0              5392.6279      45.9008        20.047001      20.857         19192.056      7792.966       4363.9871      4020.9306      62.643256     -1015.3338     -846.51171    
  24453000   244.34027     -354.43638     -282.83667     -354.43781      0              3841.2146      45.971535      20.047001      20.857         19221.632      3854.2984      3950.6219      3718.7234      413.86461     -1334.5956     -731.68457    
  24453500   256.58119     -352.8237      -277.63701     -352.81578      0              5957.2239      45.568427      20.047001      20.857         19053.084      8132.0343      4190.5802      5549.0573     -666.19078     -45.682517      595.13014    
  24454000   245.54485     -353.40178     -281.4491      -353.40694      0              5879.3833      45.726304      20.047001      20.857         19119.096      9094.4915      4783.4277      3760.2306      435.14195      620.68231     -279.71658    
  24454500   251.04381     -354.05287     -280.48881     -354.05763      0              4997.3797      46.046685      20.047001      20.857         19253.054      3621.8892      5387.7164      5982.5336      516.98137     -252.77692     -1032.913     
  24455000   264.25361     -351.77223     -274.33727     -351.77865      0              5297.7596      45.74092       20.047001      20.857         19125.207      4797.2703      6026.3889      5069.6196     -932.48399     -1948.4974      1456.6835    
  24455500   265.89527     -354.91435     -276.99833     -354.90746      0              5551.2734      45.547328      20.047001      20.857         19044.263      6951.9411      5568.121       4133.758       2797.401       815.2672      -1533.321     
  24456000   254.73808     -354.35549     -279.70889     -354.36527      0              3939.96        45.896713      20.047001      20.857         19190.347      5682.0305      3094.4653      3043.3842     -945.45806     -1511.0507      436.74989    
  24456500   253.79142     -354.44862     -280.07942     -354.43344      0              3886.6538      45.852081      20.047001      20.857         19171.686      5859.5761      2877.9556      2922.4296      931.6519       171.80667      1080.0248    
  24457000   251.93207     -353.41972     -279.59538     -353.40994      0              7380.3314      45.418425      20.047001      20.857         18990.365      8813.1918      5448.0782      7879.7243     -222.24617      500.439       -590.92147    
  24457500   251.25961     -354.09175     -280.46446     -354.09651      0              6424.5674      45.578283      20.047001      20.857         19057.205      8230.2808      4668.4891      6374.9323      2581.805      -267.74652     -100.76793    
  24458000   257.49339     -352.12021     -276.66621     -352.10828      0              6353.6342      45.894288      20.047001      20.857         19189.334      8775.9891      3156.5711      7128.3423     -254.86267     -528.87091     -779.62284    
  24458500   255.98163     -354.54211     -279.53111     -354.52892      0              5610.1595      45.979407      20.047001      20.857         19224.924      6287.5507      5225.4647      5317.4632      1205.9157     -590.49976     -713.65584    
  24459000   253.9578      -354.39025     -279.9723      -354.39483      0              6673.8546      45.880378      20.047001      20.857         19183.517      7554.8098      7426.0735      5040.6805     -705.81581     -1001.1149     -810.11381    
  24459500   259.03182     -353.69752     -277.79271     -353.68778      0              3733.8206      45.529077      20.047001      20.857         19036.631      5229.5003      3793.2996      2178.6618      328.01312      1227.7134      1589.8324    
  24460000   252.47614     -355.0643      -281.08052     -355.06424      0              7011.7261      45.536192      20.047001      20.857         19039.606      7672.4807      7101.8083      6260.8894     -372.9201      -2715.9235     -1213.8234    
  24460500   252.50491     -354.45836     -280.46615     -354.46248      0              6771.7269      45.648872      20.047001      20.857         19086.72       8013.6481      6538.2285      5763.304      -1355.7845      543.98924      740.93487    
  24461000   248.69284     -355.09734     -282.2222      -355.10043      0              7391.8684      45.579107      20.047001      20.857         19057.55       8058.1306      7699.5472      6417.9275      52.14624      -1576.4694      166.06024    
  24461500   254.33081     -353.4863      -278.95905     -353.471        0              3619.7622      45.638798      20.047001      20.857         19082.508      3405.508       5317.4118      2136.367       1782.1543      687.66224      181.08597    
  24462000   254.39672     -352.26869     -277.72212     -352.24639      0              7295.7137      45.635722      20.047001      20.857         19081.222      10081.692      7017.5029      4787.9458     -944.1392       915.44491      430.389      
  24462500   258.96446     -351.88639     -276.00132     -351.88341      0              5804.1819      45.698721      20.047001      20.857         19107.563      5810.8997      7352.2624      4249.3837     -1394.8398      471.00307     -229.4398     
  24463000   263.09133     -354.45208     -277.3577      -354.4306       0              4014.2008      45.57938       20.047001      20.857         19057.664      4154.7938      5431.6729      2456.1356      587.37184     -1090.6058     -147.88205    
  24463500   265.58948     -352.62544     -274.79903     -352.62667      0              6757.9359      45.486644      20.047001      20.857         19018.889      6952.284       5197.9653      8123.5583     -1755.0254      1048.4858     -924.79469    
  24464000   256.89452     -354.15518     -278.87667     -354.14048      0              5931.9622      45.701986      20.047001      20.857         19108.928      4960.1089      8215.7207      4620.057      -1011.3574     -758.01503      2035.6159    
  24464500   259.78231     -353.79241     -277.66769     -353.76831      0              6198.1886      45.682079      20.047001      20.857         19100.605      9356.2293      5211.2955      4027.0411      484.72677      169.50477     -1453.0067    
  24465000   253.89914     -353.11409     -278.71333     -353.10028      0              3822.6095      46.006525      20.047001      20.857         19236.262      4485.5774      3784.0845      3198.1666     -1333.809      -2360.6075     -501.6678     
  24465500   260.51704     -352.79562     -276.4556      -352.77616      0              5033.8767      45.787171      20.047001      20.857         19144.546      5752.9733      5066.6713      4281.9854      2060.6451      201.80176      438.34997    
  24466000   255.90662     -353.7738      -278.78478     -353.74714      0              7343.7359      45.37825       20.047001      20.857         18973.568      7824.5083      6729.9507      7476.7487     -197.58283      90.188637     -777.43483    
  24466500   255.33631     -352.6766      -277.8547      -352.67658      0              5608.0273      45.669822      20.047001      20.857         19095.479      5149.0856      7158.5983      4516.3981     -1118.6575      667.6935      -484.77087    
  24467000   258.5672      -352.69575     -276.92709     -352.68378      0              6768.1253      45.897018      20.047001      20.857         19190.475      7069.0693      6113.6679      7121.6386      849.77448      1717.6874     -303.93942    
  24467500   250.33017     -352.85509     -279.50015     -352.83524      0              4443.5165      45.95976       20.047001      20.857         19216.709      3513.148       4709.4441      5107.9573      1532.4456      52.771912      457.97398    
  24468000   258.11517     -353.97284     -278.33664     -353.95863      0              6333.0937      45.618971      20.047001      20.857         19074.218      6607.4932      6096.7081      6295.0798      192.33981      195.64992      439.86049    
  24468500   255.81672     -354.15828     -279.19561     -354.15293      0              5666.0886      45.508366      20.047001      20.857         19027.972      6240.1563      4599.2781      6158.8314     -712.08928      440.45645      1757.7084    
  24469000   256.34673     -353.1862      -278.06822     -353.18862      0              7341.5398      45.892622      20.047001      20.857         19188.637      5427.2665      8541.762       8055.5909      493.0057       475.87835      1348.744     
  24469500   259.32431     -353.9665      -277.97598     -353.95227      0              5787.5258      45.684502      20.047001      20.857         19101.618      6709.7571      5079.8212      5572.999      -1179.7712      716.35981     -552.6196     
  24470000   263.24953     -351.97859     -274.83785     -351.95051      0              5965.0315      45.485258      20.047001      20.857         19018.31       8383.0931      3344.5464      6167.4549      104.06003     -784.06708      485.5793     
  24470500   252.60411     -354.0656      -280.04432     -354.03943      0              5820.3531      46.048561      20.047001      20.857         19253.838      7406.2498      4879.5097      5175.2997      142.87655      1498.3858     -924.04729    
  24471000   247.55718     -354.23271     -281.69034     -354.22787      0              6994.2451      45.965369      20.047001      20.857         19219.054      6886.968       8179.8948      5915.8725      274.82954      847.3287      -1647.1565    
  24471500   253.84004     -354.54376     -280.16031     -354.52016      0              6347.8154      45.604976      20.047001      20.857         19068.366      8336.4967      5787.8864      4919.0632     -502.7534      -261.73692      289.82289    
  24472000   255.25167     -356.21943     -281.42234     -356.20261      0              4899.0974      45.366324      20.047001      20.857         18968.581      6056.2154      5599.1242      3041.9525      933.14685      539.41137      132.70778    
  24472500   252.91113     -354.30315     -280.19191     -354.31212      0              4994.2882      45.551763      20.047001      20.857         19046.117      4373.0857      6094.9814      4514.7974     -264.73655     -1815.3179     -326.77458    
  24473000   255.32772     -356.32386     -281.50448     -356.31406      0              5818.8891      45.75537       20.047001      20.857         19131.249      6600.6578      7343.1331      3512.8765      1571.762      -675.5858       248.39178    
  24473500   258.92744     -354.85153     -278.97731     -354.83763      0              5877.8278      45.73647       20.047001      20.857         19123.346      8134.5653      4111.381       5387.5372     -724.68657      398.05505     -285.20307    
  24474000   255.18015     -353.68023     -278.90409     -353.67489      0              4702.2542      45.68497       20.047001      20.857         19101.813      5252.0545      4878.9325      3975.7755      127.78646     -338.72335     -160.44163    
  24474500   259.32122     -354.40925     -278.41964     -354.40592      0              4310.166       45.790263      20.047001      20.857         19145.838      6947.7402      3196.0126      2786.7453      504.12609      797.13228     -434.98209    
  24475000   250.86223     -353.21972     -279.70887     -353.22543      0              5739.7106      45.992648      20.047001      20.857         19230.46       6474.6356      5648.742       5095.7542      1618.4891      890.52005     -112.38701    
  24475500   259.73003     -352.15321     -276.0438      -352.16547      0              2738.6117      45.991434      20.047001      20.857         19229.952      2281.0946      2910.2504      3024.4901      706.3272       324.05446     -1717.2512    
  24476000   259.60093     -351.49215     -275.42057     -351.48793      0              5256.0369      45.755448      20.047001      20.857         19131.282      9040.8139      1816.1504      4911.1465      1416.6749      957.67978      2318.1235    
  24476500   255.59712     -353.13736     -278.23903     -353.14235      0              8116.6734      45.799201      20.047001      20.857         19149.576      10296.242      7431.0708      6622.7069      50.81531      -3177.8798     -168.43788    
  24477000   248.81339     -352.48873     -279.57826     -352.49289      0              2941.1519      45.751924      20.047001      20.857         19129.808      3042.5044      2444.2958      3336.6556      1536.4821      2001.3148      196.16723    
  24477500   253.50028     -354.06002     -279.77614     -354.04048      0              3341.7036      45.713776      20.047001      20.857         19113.858      4305.5794      1796.5918      3922.9396     -200.94226      2880.2668      594.61426    
  24478000   254.50078     -352.32773     -277.75067     -352.3031       0              6129.2659      45.54006       20.047001      20.857         19041.223      6010.785       6688.3554      5688.6572      1192.8504      2000.16       -1688.5586    
  24478500   254.74931     -353.45186     -278.80196     -353.43746      0              4045.0223      45.655972      20.047001      20.857         19089.689      5149.4659      2767.6552      4217.9458      769.90498     -261.10944     -740.85868    
  24479000   250.58177     -354.01697     -280.5883      -354.01346      0              3631.9629      45.898954      20.047001      20.857         19191.285      3800.951       3051.6796      4043.2581      217.16668      438.22325     -1703.4674    
  24479500   257.93689     -354.0629      -278.47895     -354.07117      0              5772.6313      45.825077      20.047001      20.857         19160.395      5244.9265      6038.0162      6034.9512      693.06027      260.24975      564.97198    
  24480000   254.78129     -354.25266     -279.59339     -354.25985      0              5419.8133      45.626736      20.047001      20.857         19077.464      6348.7742      4925.9994      4984.6663      143.51528     -2172.5798      560.63882    
  24480500   254.14301     -355.38992     -280.91769     -355.39244      0              3797.4918      45.537752      20.047001      20.857         19040.259      6354.5586      3631.4136      1406.5031     -475.30924      226.24378     -1814.823     
  24481000   254.65018     -354.80448     -280.18364     -354.80396      0              4389.9549      45.915672      20.047001      20.857         19198.274      5888.9052      3881.8873      3399.0722      887.77077     -2679.6187     -451.92069    
  24481500   250.64088     -353.6434      -280.19741     -353.61197      0              5087.7735      45.8234        20.047001      20.857         19159.694      3059.5913      5844.8405      6358.8886     -649.16395      1222.7606     -2597.1576    
ERROR on proc 0: Cannot open restart file restart2.lmp.0: Permission denied (../write_restart.cpp:233)
Last command: run             40000000 upto
