LAMMPS (23 Jun 2022)
echo both

include		in.partitions
variable        pid world 0
include		in.temp
variable	temperature equal 255.0
variable        tempDamp equal 0.100 # this is 0.1 ps
include		in.pressure
variable        pressure equal 6079.5
variable        pressureDamp equal 1.0 #this is 1ps
include		in.seed
variable        seed world 745823

units           metal
atom_style	full
read_restart	restart.lmp.${pid}
read_restart	restart.lmp.0
Reading restart file ...
  restart file = 23 Jun 2022, LAMMPS = 23 Jun 2022
  restoring atom style full from restart
  orthogonal box = (1.1886683 0 0) to (46.262031 20.047001 20.857)
  4 by 1 by 1 MPI processor grid
Summary of lammps deepmd module ...
  >>> Info of deepmd-kit:
  installed to:       /u/sigbjobo/software/DEEPMD_FROM_SOURCE/deepmd-kit/install
  source:             v2.1.3
  source branch:       master
  source commit:      5a32c49
  source commit at:   2022-07-01 09:52:58 +0800
  surpport model ver.:1.1 
  build float prec:   double
  build with tf inc:  /u/sigbjobo/software/DEEPMD_FROM_SOURCE/tensorflow/install/include;/u/sigbjobo/software/DEEPMD_FROM_SOURCE/tensorflow/install/include
  build with tf lib:  /u/sigbjobo/software/DEEPMD_FROM_SOURCE/tensorflow/install/lib/libtensorflow_cc.so;/u/sigbjobo/software/DEEPMD_FROM_SOURCE/tensorflow/install/lib/libtensorflow_framework.so
  set tf intra_op_parallelism_threads: 0
  set tf inter_op_parallelism_threads: 0
  >>> Info of lammps module:
  use deepmd-kit at:  /u/sigbjobo/software/DEEPMD_FROM_SOURCE/deepmd-kit/install
  source:             v2.1.3
  source branch:      master
  source commit:      5a32c49
  source commit at:   2022-07-01 09:52:58 +0800
  build float prec:   double
  build with tf inc:  /u/sigbjobo/software/DEEPMD_FROM_SOURCE/tensorflow/install/include;/u/sigbjobo/software/DEEPMD_FROM_SOURCE/tensorflow/install/include
  build with tf lib:  /u/sigbjobo/software/DEEPMD_FROM_SOURCE/tensorflow/install/lib/libtensorflow_cc.so;/u/sigbjobo/software/DEEPMD_FROM_SOURCE/tensorflow/install/lib/libtensorflow_framework.so
  restoring pair style deepmd from restart
  2268 atoms
Finding 1-2 1-3 1-4 neighbors ...
  special bond factors lj:    0        0        0       
  special bond factors coul:  0        0        0       
     0 = max # of 1-2 neighbors
     0 = max # of 1-3 neighbors
     0 = max # of 1-4 neighbors
     1 = max # of special neighbors
  special bonds CPU = 0.001 seconds
  read_restart CPU = 0.013 seconds
include 	in.setup
variable	out_freq equal 500
variable	out_freq2 equal 1000
variable	out_freq3 equal 5000

timestep        0.0005

neigh_modify    delay 7 every 1

include         in.deepmd
# This is deepMD model

# create groups ###
#group ox type 2
#group hy type 1

mass 2 15.999
mass 1 1.008

pair_style      deepmd ../graph.pb
pair_coeff      * *

bond_style      none
angle_style     none
dihedral_style  none
improper_style  none
neigh_modify exclude none


neighbor        2.0 bin
neigh_modify    every 10 delay 0 check no

thermo          ${out_freq}
thermo          500
thermo_style 	custom step temp pe etotal epair emol press lx ly lz vol pxx pyy pzz pxy pxz pyz
#thermo_modify	flush yes
restart 	${out_freq} restart.lmp.${pid} restart2.lmp.${pid}
restart 	500 restart.lmp.${pid} restart2.lmp.${pid}
restart 	500 restart.lmp.0 restart2.lmp.${pid}
restart 	500 restart.lmp.0 restart2.lmp.0

include		in.dump
dump            myDump all atom ${out_freq3} dump.water.${pid}
dump            myDump all atom 5000 dump.water.${pid}
dump            myDump all atom 5000 dump.water.0
dump            myDump2 all dcd ${out_freq2} dump.dcd.${pid}
dump            myDump2 all dcd 1000 dump.dcd.${pid}
dump            myDump2 all dcd 1000 dump.dcd.0
dump_modify     myDump append yes
dump_modify     myDump2 append yes


timer           timeout 23:50:00 every 1000
New timer settings: style=normal  mode=nosync  timeout=23:50:00

fix             1 all plumed plumedfile plumed.dat outfile plumed.out
fix             3 all nph x ${pressure} ${pressure} ${pressureDamp}
fix             3 all nph x 6079.5 ${pressure} ${pressureDamp}
fix             3 all nph x 6079.5 6079.5 ${pressureDamp}
fix             3 all nph x 6079.5 6079.5 1
Resetting global fix info from restart file:
  fix style: nph, fix ID: 3
fix             4 all temp/csvr ${temperature} ${temperature} ${tempDamp} ${seed}
fix             4 all temp/csvr 255 ${temperature} ${tempDamp} ${seed}
fix             4 all temp/csvr 255 255 ${tempDamp} ${seed}
fix             4 all temp/csvr 255 255 0.1 ${seed}
fix             4 all temp/csvr 255 255 0.1 745823
Resetting global fix info from restart file:
  fix style: temp/csvr, fix ID: 4

run             40000000 upto

CITE-CITE-CITE-CITE-CITE-CITE-CITE-CITE-CITE-CITE-CITE-CITE-CITE

Your simulation uses code contributions which should be cited:

- USER-DEEPMD package:

@article{Wang_ComputPhysCommun_2018_v228_p178,
  author = {Wang, Han and Zhang, Linfeng and Han, Jiequn and E, Weinan},
  doi = {10.1016/j.cpc.2018.03.016},
  url = {https://doi.org/10.1016/j.cpc.2018.03.016},
  year = 2018,
  month = {jul},
  publisher = {Elsevier {BV}},
  volume = 228,
  journal = {Comput. Phys. Commun.},
  title = {{DeePMD-kit: A deep learning package for many-body potential energy representation and molecular dynamics}},
  pages = {178--184}
}

CITE-CITE-CITE-CITE-CITE-CITE-CITE-CITE-CITE-CITE-CITE-CITE-CITE

Generated 0 of 1 mixed pair_coeff terms from geometric mixing rule
All restart file global fix info was re-assigned
Neighbor list info ...
  update every 10 steps, delay 0 steps, check no
  max neighbors/atom: 2000, page size: 100000
  master list distance cutoff = 8
  ghost atom cutoff = 8
  binsize = 4, bins = 12 6 6
  1 neighbor lists, perpetual/occasional/extra = 1 0 0
  (1) pair deepmd, perpetual
      attributes: full, newton on
      pair build: full/bin
      stencil: full/bin/3d
      bin: standard
Per MPI rank memory allocation (min/avg/max) = 6.19 | 6.191 | 6.192 Mbytes
   Step          Temp          PotEng         TotEng         E_pair         E_mol          Press            Lx             Ly             Lz           Volume          Pxx            Pyy            Pzz            Pxy            Pxz            Pyz      
  28829000   254.59432     -354.54227     -279.9378      -354.54227      0              7833.8883      45.073362      20.047001      20.857         18846.088      8476.9522      6644.5106      8380.2022      1282.0136     -138.2792      -254.24371    
  28829500   257.00776     -355.7628      -280.45111     -355.77604      0              4781.1215      45.516713      20.047001      20.857         19031.462      5635.2185      4774.3368      3933.8092      930.57308     -1270.493      -498.3885     
  28830000   253.27873     -355.57253     -281.35357     -355.57119      0              3597.603       45.535275      20.047001      20.857         19039.223      3217.344       4559.297       3016.1679      807.65287     -479.60835     -1774.8237    
  28830500   256.12463     -354.37263     -279.31973     -354.38707      0              4603.2292      45.395323      20.047001      20.857         18980.706      4500.1181      5082.2504      4227.319       416.06734      2178.4669     -505.75517    
  28831000   258.85098     -354.63237     -278.78056     -354.65255      0              6254.0142      45.362398      20.047001      20.857         18966.94       7785.4791      4894.2337      6082.3299      354.27791     -640.06361      602.27691    
  28831500   258.47037     -354.1054      -278.36512     -354.10162      0              6778.1389      45.436177      20.047001      20.857         18997.788      7171.2631      7338.7241      5824.4296     -783.34061     -382.75143      577.96324    
  28832000   256.09787     -355.64551     -280.60045     -355.65284      0              6644.6831      45.633141      20.047001      20.857         19080.142      6193.5161      5953.0925      7787.4408     -707.27505     -1471.1444      97.586035    
  28832500   258.64272     -355.13159     -279.3408      -355.13739      0              4389.3081      45.597739      20.047001      20.857         19065.34       6161.0556      4784.67        2222.1989      1157.5583     -738.69314      355.74967    
  28833000   255.25044     -353.91175     -279.11501     -353.92015      0              7069.6494      45.422052      20.047001      20.857         18991.882      8542.8502      4478.3529      8187.745      -1696.361       256.4194      -607.59143    
  28833500   250.23001     -353.28826     -279.96267     -353.30306      0              2646.7979      45.498198      20.047001      20.857         19023.72       3714.7853      1930.7814      2294.8269      1607.438       2220.8775     -679.54584    
  28834000   262.30479     -353.84894     -276.98504     -353.85923      0              6340.1044      45.542531      20.047001      20.857         19042.257      7938.9427      6120.4008      4960.9696     -611.64715     -424.24448      1062.2624    
  28834500   266.02184     -355.56018     -277.60707     -355.58994      0              6156.8246      45.723609      20.047001      20.857         19117.969      9028.2697      5736.6549      3705.5492      581.54609     -627.13005     -1519.5111    
  28835000   251.81797     -353.3945      -279.60359     -353.40288      0              5847.1349      45.521178      20.047001      20.857         19033.329      7127.2163      5440.7552      4973.4333     -1270.5401      732.01735      124.26372    
  28835500   253.90453     -355.19183     -280.78949     -355.18803      0              3827.9357      45.255626      20.047001      20.857         18922.296      2125.9121      6074.7548      3283.1404     -472.89699      503.20985     -674.63809    
  28836000   255.51866     -353.10902     -278.23368     -353.1136       0              6553.0477      45.457157      20.047001      20.857         19006.56       8367.1147      6546.8427      4745.1856      963.19843      568.26578     -2121.3022    
  28836500   259.60665     -354.07481     -278.00156     -354.0864       0              4483.5039      45.794468      20.047001      20.857         19147.597      5846.759       3164.4494      4439.3034     -369.17654      1651.0987     -1202.2692    
  28837000   257.38452     -352.22678     -276.80469     -352.24149      0              6286.4735      45.540418      20.047001      20.857         19041.373      7046.7071      5612.9964      6199.7172     -1074.349      -688.46786     -681.8256     
  28837500   252.80394     -353.44298     -279.36315     -353.455        0              5940.1918      45.278224      20.047001      20.857         18931.745      7003.323       5786.602       5030.6506      1459.35        1976.9115     -1615.239     
  28838000   251.78906     -354.51396     -280.73152     -354.5338       0              4413.8826      45.429238      20.047001      20.857         18994.887      5879.2351      3842.6361      3519.7765     -1114.9714      1738.8111      1696.018     
  28838500   248.68697     -353.83236     -280.95894     -353.84649      0              6127.0033      45.658489      20.047001      20.857         19090.741      6115.9337      6695.9566      5569.1194     -664.29458     -725.77292     -1583.6076    
  28839000   252.23154     -353.77211     -279.86001     -353.78576      0              4359.2855      45.413813      20.047001      20.857         18988.437      5784.7711      4138.8662      3154.2191     -626.97704      1338.8729     -1053.82      
  28839500   248.76993     -354.83535     -281.93761     -354.82831      0              5762.4589      45.230237      20.047001      20.857         18911.68       6905.8594      6055.3034      4326.2138      1145.5548      208.80958      546.5435     
  28840000   247.47113     -354.28612     -281.76897     -354.28815      0              6975.4119      45.232803      20.047001      20.857         18912.753      6127.3357      8675.602       6123.298       424.50319     -747.61336     -281.29163    
  28840500   254.85844     -354.49111     -279.80924     -354.49938      0              3370.0243      45.387496      20.047001      20.857         18977.433      3025.6423      3168.6708      3915.7597      256.85251      592.22253     -665.39918    
  28841000   253.35166     -353.9574      -279.71707     -353.96552      0              5938.8205      45.366929      20.047001      20.857         18968.834      4440.9208      7431.4193      5944.1214      13.050548     -350.08618     -6.9766685    
  28841500   252.36022     -355.62325     -281.67344     -355.62913      0              4970.562       45.274424      20.047001      20.857         18930.156      6097.5034      4971.2461      3842.9366      542.88081      1691.8018     -357.70632    
  28842000   253.90545     -354.34822     -279.94561     -354.36273      0              3513.1217      45.278156      20.047001      20.857         18931.716      3133.3098      3042.8301      4363.2252     -834.49538      1130.618       2328.5524    
  28842500   254.59734     -355.76194     -281.15658     -355.76539      0              5480.3428      45.088727      20.047001      20.857         18852.512      5092.5411      7423.691       3924.7963     -531.75182      975.86102      1335.7676    
  28843000   253.86415     -357.49524     -283.10473     -357.49541      0              4805.072       45.279245      20.047001      20.857         18932.172      2826.5163      6675.16        4913.5398     -986.47242     -1097.2457     -1936.7064    
  28843500   262.97145     -357.58151     -280.52226     -357.58587      0              4467.2799      45.554391      20.047001      20.857         19047.216      4168.9623      6264.5431      2968.3342     -377.78312      1180.1227      203.41742    
  28844000   256.86228     -352.97303     -277.70397     -352.98391      0              4676.4679      45.490792      20.047001      20.857         19020.624      4632.7986      5712.1366      3684.4687      221.14568     -271.01556     -1241.4849    
  28844500   258.5327      -352.92134     -277.16279     -352.93588      0              5715.5037      45.444297      20.047001      20.857         19001.183      7422.3081      4716.0549      5008.148       541.84881      10.913289      1419.8519    
  28845000   259.11488     -351.9831      -276.05396     -351.99633      0              5529.7649      45.520527      20.047001      20.857         19033.056      7319.1649      5532.8901      3737.2398      61.901294      1145.6491     -27.525018    
  28845500   264.24432     -356.73289     -279.30065     -356.7386       0              6361.6943      45.319234      20.047001      20.857         18948.892      5367.4227      6670.9944      7046.6658      588.0453       954.81069      881.67269    
  28846000   257.09418     -357.89668     -282.55966     -357.91231      0              3290.7499      45.468666      20.047001      20.857         19011.372      4279.9279      3229.8511      2362.4706      199.14559      81.751279     -1607.0687    
  28846500   248.30584     -354.98917     -282.22743     -354.97541      0              4972.174       45.281181      20.047001      20.857         18932.981      5145.2169      5793.8236      3977.4814      0.28065702     845.59292      321.06789    
  28847000   256.2947      -356.08369     -280.98095     -356.06619      0              4874.4523      44.999352      20.047001      20.857         18815.143      4747.2579      4144.7476      5731.3514      1075.5764     -488.86698      1539.6906    
  28847500   256.63418     -355.29722     -280.09501     -355.29218      0              5658.9367      45.197892      20.047001      20.857         18898.156      6616.2013      8058.7912      2301.8175      1167.2509      488.06369      47.142108    
  28848000   255.58055     -354.3364      -279.44293     -354.31521      0              5400.6108      45.374929      20.047001      20.857         18972.179      7117.0913      3578.2417      5506.4994     -736.9612       973.5867       1899.9955    
  28848500   253.56056     -353.73944     -279.4379      -353.73831      0              4239.3492      45.450198      20.047001      20.857         19003.651      3982.7385      5616.1184      3119.1909      1670.8821     -1392.3004     -2421.442     
  28849000   253.39565     -357.94708     -283.69386     -357.94628      0              4525.7692      45.273369      20.047001      20.857         18929.715      5495.7231      4061.1478      4020.4367     -1825.4585      276.46432      1675.6568    
  28849500   256.84343     -356.15473     -280.8912      -356.14751      0              4869.9812      45.190546      20.047001      20.857         18895.085      7002.4825      4814.7921      2792.6689      996.0705       276.49773     -1376.8133    
  28850000   256.26105     -358.16417     -283.07129     -358.1764       0              5633.6763      45.587949      20.047001      20.857         19061.247      4596.6864      7758.599       4545.7434     -1082.2515      602.34255      898.09562    
  28850500   256.57426     -355.85601     -280.67134     -355.86993      0              4519.1753      45.523764      20.047001      20.857         19034.41       6870.6497      3984.2482      2702.628       1968.1411     -1061.6583     -942.96225    
  28851000   254.64285     -355.50193     -280.88324     -355.50328      0              5465.7439      44.97245       20.047001      20.857         18803.894      5764.9589      7375.8943      3256.3784     -854.42668      926.83847      115.58219    
  28851500   254.94045     -357.46314     -282.75724     -357.46642      0              6019.8352      45.126523      20.047001      20.857         18868.315      6807.3069      7020.8449      4231.3539     -285.41315      503.3888      -387.97109    
  28852000   256.452       -353.80003     -278.6512      -353.81251      0              1741.404       45.666946      20.047001      20.857         19094.277      1676.8994      1406.354       2140.9585      298.43951      114.08689     -1083.4899    
  28852500   258.76978     -354.31138     -278.48336     -354.32459      0              4804.1584      45.574917      20.047001      20.857         19055.798      6228.3631      3258.6374      4925.4746      1610.9465      711.66384      79.711533    
  28853000   251.48607     -352.24979     -278.55613     -352.2635       0              6048.7999      45.274101      20.047001      20.857         18930.021      6468.8678      5403.4797      6274.0521     -192.23409      316.53371     -946.39113    
  28853500   256.28111     -355.20049     -280.10173     -355.21481      0              8721.2006      45.312763      20.047001      20.857         18946.186      9129.2174      9469.5582      7564.8261      1.3268714      397.96519      215.35988    
  28854000   250.84839     -355.32378     -281.81699     -355.33941      0              3639.6798      45.407644      20.047001      20.857         18985.858      3814.4226      4117.3592      2987.2576     -1821.3363      711.12139     -557.25027    
  28854500   254.08514     -354.23298     -279.77771     -354.26778      0              3570.0056      45.170418      20.047001      20.857         18886.669      3355.7498      2854.0303      4500.2368     -894.54497      771.36794     -793.91761    
  28855000   257.65745     -352.96449     -277.46241     -352.97846      0              4977.2471      45.402824      20.047001      20.857         18983.842      4517.3705      4597.8527      5816.5181      150.72181     -772.72552      478.78086    
  28855500   255.57612     -353.1961      -278.30393     -353.2084       0              4944.4084      45.583232      20.047001      20.857         19059.274      7072.3057      2379.7555      5381.164      -510.22128      407.762       -751.45194    
  28856000   261.39626     -354.25282     -277.65516     -354.25651      0              4604.9184      45.607458      20.047001      20.857         19069.404      5801.2925      3006.1185      5007.344       11.901305      862.3198       1421.9551    
  28856500   259.51695     -354.81584     -278.76888     -354.82985      0              5884.5287      45.643883      20.047001      20.857         19084.634      6807.0287      6169.6521      4676.9053     -714.56864      873.2796       545.44319    
  28857000   256.05917     -353.81623     -278.78251     -353.83124      0              5913.621       45.533854      20.047001      20.857         19038.629      7091.8624      4968.3433      5680.6572      1116.6652     -1709.4545      96.435788    
  28857500   251.55726     -353.83121     -280.1167      -353.82617      0              4543.9454      45.424331      20.047001      20.857         18992.835      4904.5611      6187.3154      2539.9597      102.05006      2520.4491      866.23319    
  28858000   248.65945     -353.2387      -280.37334     -353.25168      0              5709.6853      45.659871      20.047001      20.857         19091.319      7313.252       4844.3756      4971.4285     -765.75436      2221.5554      1735.1349    
  28858500   253.14769     -352.02786     -277.8473      -352.03455      0              6696.9905      45.831014      20.047001      20.857         19162.877      6269.9101      8747.4296      5073.6319     -143.86755      1557.144       1156.4384    
  28859000   259.65385     -353.58524     -277.49816     -353.59078      0              7783.4949      45.368564      20.047001      20.857         18969.518      8903.8872      6895.327       7551.2703      1632.2982      1374.8466     -254.21532    
  28859500   253.61195     -353.2866      -278.96999     -353.27781      0              4797.6902      45.237078      20.047001      20.857         18914.541      7479.6892      2538.0509      4375.3306      1618.1087      1309.4938     -2123.3611    
  28860000   246.22088     -355.88273     -283.73195     -355.8797       0              4137.8949      45.534946      20.047001      20.857         19039.085      5171.4028      4224.373       3017.9088     -1511.2847      2253.0733      1914.7781    
  28860500   251.02264     -354.62771     -281.06985     -354.62238      0              3219.7429      45.471881      20.047001      20.857         19012.716      5173.2972      53.911629      4432.02       -9.2000898      656.96308     -1701.2009    
  28861000   254.13351     -353.78588     -279.31643     -353.78212      0              5775.3286      45.272992      20.047001      20.857         18929.557      6489.3321      7754.2887      3082.365       494.17704      1570.9698      491.59827    
  28861500   254.9369      -351.70049     -276.99563     -351.71382      0              5547.9883      45.382619      20.047001      20.857         18975.394      5120.8904      5212.908       6310.1665     -748.38217      3113.1405     -1224.0198    
  28862000   253.13744     -353.19472     -279.01716     -353.20077      0              3698.2154      45.48031       20.047001      20.857         19016.241      5895.7234      1347.3441      3851.5787      394.45144      1123.835       1582.411     
  28862500   261.07236     -352.97922     -276.47647     -352.98042      0              5944.8642      45.445572      20.047001      20.857         19001.716      6634.4372      6090.5831      5109.5724     -1199.3648      1381.1744      367.32097    
  28863000   257.54036     -351.72241     -276.25465     -351.73456      0              4420.9115      45.411049      20.047001      20.857         18987.281      4131.1244      4425.055       4706.5552     -401.40401      1121.1222      1865.89      
  28863500   250.13689     -353.64287     -280.34457     -353.66173      0              7008.8337      45.193939      20.047001      20.857         18896.503      8650.923       7659.4205      4716.1577     -667.08442     -686.59374     -1265.3198    
  28864000   253.45602     -353.11758     -278.84666     -353.13225      0              5726.4724      45.185204      20.047001      20.857         18892.851      5954.0576      3622.1095      7603.2499     -759.63232      1623.1822      1590.824     
  28864500   253.19278     -353.75966     -279.56589     -353.77337      0              4455.1384      45.405915      20.047001      20.857         18985.135      2349.0697      5887.1079      5129.2375     -138.35649      939.45797     -130.56589    
  28865000   251.88081     -351.79194     -277.98262     -351.80148      0              4947.3776      45.501957      20.047001      20.857         19025.292      3183.9259      5380.6845      6277.5223     -68.232831      494.74224     -1217.8677    
  28865500   256.15303     -352.81583     -277.7546      -352.81302      0              5810.9888      45.386         20.047001      20.857         18976.808      6509.2499      4922.7821      6000.9344     -5.421411       205.34898     -1182.0446    
  28866000   258.30176     -353.09353     -277.40265     -353.10748      0              4399.0706      45.725422      20.047001      20.857         19118.727      4317.8228      3983.52        4895.8689     -228.47574      1353.4352     -1051.9734    
  28866500   254.11521     -353.67639     -279.21231     -353.69035      0              5312.5057      45.589138      20.047001      20.857         19061.744      7250.2258      3681.3577      5005.9336      225.94786      760.47489     -1721.9726    
  28867000   255.30223     -354.25583     -279.44391     -354.26906      0              5126.7435      45.444573      20.047001      20.857         19001.298      8302.0691      2692.4397      4385.7219     -144.25115      834.58998      85.021432    
  28867500   255.55259     -356.95759     -282.07231     -356.96174      0              3638.5427      45.400159      20.047001      20.857         18982.728      2888.3736      4580.3136      3446.9409      867.25153      770.62051      1431.7944    
  28868000   258.8035      -354.9407      -279.1028      -354.94883      0              5154.3129      45.32806       20.047001      20.857         18952.582      3952.7955      5132.1361      6378.0072     -240.51137     -1966.7012      487.9796     
  28868500   250.69628     -355.88135     -282.41913     -355.89945      0              4954.5114      45.585786      20.047001      20.857         19060.343      5367.7544      3488.3701      6007.4096      409.87425      478.023        793.51353    
  28869000   250.29671     -355.11783     -281.7727      -355.13337      0              6866.0524      45.507384      20.047001      20.857         19027.561      7046.2237      5489.1696      8062.7639     -393.12387     -889.47636     -156.41184    
  28869500   253.19066     -355.22689     -281.03374     -355.2141       0              6403.08        45.156845      20.047001      20.857         18880.993      8602.5582      5993.8999      4612.782      -453.50332      57.031172      694.66288    
  28870000   257.86888     -354.82049     -279.25647     -354.83207      0              4662.7383      45.395888      20.047001      20.857         18980.942      5432.6232      3728.5754      4827.0163      524.7109       1306.1821     -501.45398    
  28870500   256.22274     -355.43357     -280.35191     -355.44765      0              2575.3555      45.783839      20.047001      20.857         19143.153      3456.4287      2919.957       1349.6807     -787.1857      -464.76329     -95.711104    
  28871000   261.21123     -355.55609     -279.01265     -355.55817      0              5520.167       45.495967      20.047001      20.857         19022.787      6008.613       5972.1441      4579.7438      994.25262      1415.7684      680.77286    
  28871500   252.82517     -354.27888     -280.19283     -354.2933       0              6002.2535      45.33869       20.047001      20.857         18957.027      5255.1395      7653.9044      5097.7166      1067.6016     -509.79496      67.155015    
  28872000   252.2002      -356.32875     -282.42584     -356.3431       0              7243.8871      45.461039      20.047001      20.857         19008.183      5710.1143      7805.4806      8216.0663     -98.322185     -429.49304      858.1036     
  28872500   255.40053     -354.86525     -280.02453     -354.8715       0              3933.2467      45.593108      20.047001      20.857         19063.404      6211.3729      3362.914       2225.453      -30.027169     -2.0967404      1583.3539    
  28873000   258.77183     -353.61132     -277.7827      -353.62156      0              5999.1885      45.530398      20.047001      20.857         19037.184      4937.1511      5522.6464      7537.7681     -824.99961      494.87831     -1446.7953    
  28873500   250.71213     -352.54031     -279.07344     -352.54872      0              6225.2141      45.382598      20.047001      20.857         18975.385      6943.2852      6438.7518      5293.6054     -949.08008      1081.3933     -575.76853    
  28874000   244.40889     -354.55829     -282.93848     -354.55488      0              5223.3565      45.528294      20.047001      20.857         19036.304      5169.617       5766.5847      4733.8677      265.5749      -661.77443     -620.86962    
  28874500   250.61204     -354.99126     -281.55373     -354.99639      0              6858.3027      45.495201      20.047001      20.857         19022.467      6731.9943      6117.0608      7725.853       687.1883       686.18913      282.83014    
  28875000   249.74733     -355.33117     -282.14702     -355.33785      0              4333.1265      45.40508       20.047001      20.857         18984.786      6480.8576      3881.0601      2637.4619     -256.437        916.49408      398.9533     
  28875500   252.1432      -354.69737     -280.81115     -354.70456      0              4939.7537      45.591165      20.047001      20.857         19062.592      6393.6652      2335.6704      6089.9256     -251.42078      1441.9972      1160.4106    
  28876000   250.64025     -353.82835     -280.38255     -353.83827      0              5325.5874      45.664469      20.047001      20.857         19093.241      5128.4075      7021.5108      3826.844      -519.05952      989.47431     -164.23387    
  28876500   258.01587     -353.74109     -278.13399     -353.74775      0              4934.1488      45.358794      20.047001      20.857         18965.432      6155.0717      3981.6252      4665.7495     -1162.5032     -282.43154      1910.0743    
  28877000   258.86078     -353.62451     -277.76983     -353.62978      0              4115.8422      45.358613      20.047001      20.857         18965.357      5883.5053      3459.5943      3004.4271     -1892.4404      919.33829     -396.26625    
  28877500   258.34419     -353.915       -278.21169     -353.9283       0              6958.0557      45.491458      20.047001      20.857         19020.902      9122.3848      6318.1358      5433.6464     -302.99057      960.16052      1323.0925    
  28878000   256.33579     -353.13934     -278.02455     -353.14917      0              5287.6802      45.529587      20.047001      20.857         19036.845      8056.5506      4505.7561      3300.734      -196.51968      1287.8114      1011.7104    
  28878500   254.26735     -351.53236     -277.0237      -351.5429       0              5796.8489      45.349495      20.047001      20.857         18961.544      8364.4214      5760.6616      3265.4639     -596.21796      1166.5815     -537.96483    
ERROR on proc 0: Cannot open restart file restart2.lmp.0: Permission denied (../write_restart.cpp:233)
Last command: run             40000000 upto
