 # TITLE     MDANALYSIS FRAME 0: Created by PDBWriter
 
        1937  atoms
           1  atom types
 
      0.000000000000      46.404000000000  xlo xhi
      0.000000000000      21.459435532516  ylo yhi
      0.000000000000      16.392705554411  zlo zhi
     -9.153224930361     -18.307626872072       7.606456838531  xy xz yz
 
Masses
 
            1   238.02891000            # U
 
Atoms # charge
 
         1    1   0.000000       -9.696224930361      18.092435532516       4.661000000000
         2    1   0.000000       -9.350224930361      18.572435532516       5.451000000000
         3    1   0.000000      -10.618224930361      18.375435532516       4.463000000000
         4    1   0.000000        0.245000000000       3.712000000000       1.836000000000
         5    1   0.000000       -0.413000000000       3.150000000000       2.313000000000
         6    1   0.000000       -0.167000000000       4.198000000000       1.133000000000
         7    1   0.000000        5.543000000000       1.667000000000       0.144000000000
         8    1   0.000000        5.439000000000       0.752000000000       0.293000000000
         9    1   0.000000        5.681000000000       1.954000000000       1.072000000000
        10    1   0.000000      -10.119224930361      21.117435532516       4.530000000000
        11    1   0.000000      -10.968224930361      20.565435532516       4.337000000000
        12    1   0.000000       -9.366224930361      20.736435532516       4.067000000000
        13    1   0.000000       -2.802000000000       4.460000000000       1.448000000000
        14    1   0.000000       -2.380000000000       4.974000000000       2.172000000000
        15    1   0.000000       -2.334000000000       4.719000000000       0.646000000000
        16    1   0.000000       -5.912224930361      21.804435532516       2.770000000000
        17    1   0.000000        2.938000000000       1.012000000000       2.130000000000
        18    1   0.000000       -5.281224930361      21.288435532516       2.221000000000
        19    1   0.000000        2.403000000000       6.033000000000       1.127000000000
        20    1   0.000000        3.249000000000       5.694000000000       1.512000000000
        21    1   0.000000        2.332000000000       5.493000000000       0.362000000000
        22    1   0.000000       -7.715224930361      20.057435532516       3.559000000000
        23    1   0.000000       -7.007224930361      20.798435532516       3.322000000000
        24    1   0.000000       -7.372224930361      19.667435532516       4.353000000000
        25    1   0.000000      -12.650224930361      21.695435532516       4.962000000000
        26    1   0.000000       -8.879224930361      21.893435532516       4.782000000000
        27    1   0.000000      -12.469224930361      22.555435532516       4.514000000000
        28    1   0.000000        2.919000000000       2.784000000000       1.303000000000
        29    1   0.000000        3.472000000000       3.548000000000       1.460000000000
        30    1   0.000000        1.980000000000       3.045000000000       1.568000000000
        31    1   0.000000       -4.438224930361      19.183435532516       4.068000000000
        32    1   0.000000       -5.174224930361      18.950435532516       4.635000000000
        33    1   0.000000       -4.908224930361      18.771435532516       3.294000000000
        34    1   0.000000       -1.362000000000       2.452000000000       3.576000000000
        35    1   0.000000       -1.209000000000       1.601000000000       3.193000000000
        36    1   0.000000       -2.317000000000       2.746000000000       3.551000000000
        37    1   0.000000       -2.165224930361      17.772435532516       4.700000000000
        38    1   0.000000       -2.003224930361      18.424435532516       5.407000000000
        39    1   0.000000       -3.074224930361      18.039435532516       4.466000000000
        40    1   0.000000        8.119000000000       3.749000000000       1.750000000000
        41    1   0.000000        7.579000000000       3.024000000000       2.016000000000
        42    1   0.000000        7.654000000000       4.232000000000       1.049000000000
        43    1   0.000000       13.409000000000       1.588000000000       0.515000000000
        44    1   0.000000       13.135000000000       0.658000000000       0.658000000000
        45    1   0.000000       13.439000000000       1.757000000000       1.456000000000
        46    1   0.000000       -2.625224930361      21.200435532516       3.942000000000
        47    1   0.000000       -3.192224930361      20.445435532516       4.009000000000
        48    1   0.000000       -1.734224930361      20.867435532516       4.038000000000
        49    1   0.000000        4.669000000000       4.769000000000       1.475000000000
        50    1   0.000000        5.178000000000       5.137000000000       2.238000000000
        51    1   0.000000        5.356000000000       4.972000000000       0.789000000000
        52    1   0.000000        2.223775069639      21.368435532516       2.581000000000
        53    1   0.000000        1.858775069639      22.164435532516       2.145000000000
        54    1   0.000000        2.788775069639      20.952435532516       1.901000000000
        55    1   0.000000       10.411000000000       6.108000000000       0.980000000000
        56    1   0.000000       11.119000000000       5.543000000000       1.277000000000
        57    1   0.000000        9.894000000000       5.524000000000       0.346000000000
        58    1   0.000000       -0.033224930361      20.283435532516       3.682000000000
        59    1   0.000000        0.757775069639      20.440435532516       3.241000000000
        60    1   0.000000        0.284775069639      19.860435532516       4.519000000000
        61    1   0.000000       -5.164224930361      22.443435532516       5.364000000000
        62    1   0.000000       -5.297224930361      22.218435532516       4.422000000000
        63    1   0.000000       -5.256224930361      23.377435532516       5.232000000000
        64    1   0.000000       10.685000000000       2.533000000000       1.478000000000
        65    1   0.000000       11.449000000000       3.138000000000       1.581000000000
        66    1   0.000000        9.878000000000       2.978000000000       1.749000000000
        67    1   0.000000        3.449775069639      19.063435532516       3.886000000000
        68    1   0.000000        2.917775069639      18.839435532516       4.634000000000
        69    1   0.000000        2.836000000000      18.760000000000       3.193000000000
        70    1   0.000000        6.161000000000       2.179000000000       2.748000000000
        71    1   0.000000       -2.849224930361      22.702435532516       3.092000000000
        72    1   0.000000        5.489000000000       2.575000000000       3.373000000000
        73    1   0.000000        5.789000000000      17.681000000000       4.466000000000
        74    1   0.000000        6.016775069639      18.405435532516       5.056000000000
        75    1   0.000000        4.964775069639      18.027435532516       4.107000000000
        76    1   0.000000       15.857000000000       3.850000000000       1.893000000000
        77    1   0.000000       15.181000000000       3.388000000000       2.413000000000
        78    1   0.000000       15.388000000000       4.394000000000       1.233000000000
        79    1   0.000000        2.781775069639       9.727435532516      16.358000000000
        80    1   0.000000       21.092000000000       1.169000000000       0.172000000000
        81    1   0.000000        5.327775069639      21.152435532516       4.345000000000
        82    1   0.000000        4.563775069639      20.608435532516       4.129000000000
        83    1   0.000000        6.160775069639      20.658435532516       4.190000000000
        84    1   0.000000       12.709000000000       4.313000000000       1.491000000000
        85    1   0.000000       12.984000000000       4.717000000000       2.297000000000
        86    1   0.000000       13.235000000000       4.850000000000       0.886000000000
        87    1   0.000000        9.805775069639      21.687435532516       2.501000000000
        88    1   0.000000       18.591000000000       1.037000000000       2.090000000000
        89    1   0.000000       10.373775069639      21.270435532516       1.836000000000
        90    1   0.000000       17.665000000000       6.007000000000       0.875000000000
        91    1   0.000000       18.612000000000       5.702000000000       1.159000000000
        92    1   0.000000       17.264000000000       5.290000000000       0.382000000000
        93    1   0.000000        7.720775069639      20.023435532516       3.713000000000
        94    1   0.000000        8.428775069639      20.457435532516       3.195000000000
        95    1   0.000000        8.232775069639      19.467435532516       4.355000000000
        96    1   0.000000        2.366775069639      22.208435532516       5.265000000000
        97    1   0.000000        2.393775069639      22.023435532516       4.329000000000
        98    1   0.000000        2.308775069639      23.193435532516       5.330000000000
        99    1   0.000000       18.246000000000       2.641000000000       1.293000000000
       100    1   0.000000       19.110000000000       3.091000000000       1.310000000000
       101    1   0.000000       17.533000000000       3.214000000000       1.624000000000
       102    1   0.000000       11.201775069639      19.072435532516       3.956000000000
       103    1   0.000000       10.482775069639      18.988435532516       4.624000000000
       104    1   0.000000       10.711775069639      19.163435532516       3.129000000000
       105    1   0.000000       13.830000000000       2.118000000000       3.146000000000
       106    1   0.000000        4.978775069639      22.771435532516       3.581000000000
       107    1   0.000000       13.198000000000       2.558000000000       3.724000000000
       108    1   0.000000       -3.495000000000       3.866000000000       4.504000000000
       109    1   0.000000       -3.576000000000       4.011000000000       5.447000000000
       110    1   0.000000       -4.429000000000       3.944000000000       4.151000000000
       111    1   0.000000       -2.640000000000      10.930000000000       1.787000000000
       112    1   0.000000       -3.440000000000      10.520000000000       2.100000000000
       113    1   0.000000       -2.872000000000      11.681000000000       1.178000000000
       114    1   0.000000        2.720000000000       8.860000000000       0.199000000000
       115    1   0.000000        2.781000000000       7.887000000000       0.144000000000
       116    1   0.000000        2.581000000000       8.962000000000       1.144000000000
       117    1   0.000000       -4.133000000000       7.289000000000       4.150000000000
       118    1   0.000000       -4.841000000000       6.638000000000       4.220000000000
       119    1   0.000000       -3.303000000000       6.840000000000       3.918000000000
       120    1   0.000000       -6.022000000000      12.612000000000       0.860000000000
       121    1   0.000000       -5.758000000000      12.430000000000       1.706000000000
       122    1   0.000000       -5.406000000000      12.131000000000       0.371000000000
       123    1   0.000000        0.393000000000       7.299000000000       2.426000000000
       124    1   0.000000        0.068000000000       8.095000000000       2.029000000000
       125    1   0.000000        1.057000000000       6.880000000000       1.834000000000
       126    1   0.000000       -1.128000000000      13.342000000000       0.793000000000
       127    1   0.000000       -0.214000000000      13.061000000000       1.094000000000
       128    1   0.000000      -19.507224930361      20.380435532516      16.373000000000
       129    1   0.000000       -1.605000000000       5.973000000000       3.574000000000
       130    1   0.000000       -0.850000000000       6.335000000000       3.155000000000
       131    1   0.000000       -1.381000000000       5.494000000000       4.361000000000
       132    1   0.000000       -6.862000000000       7.963000000000       5.067000000000
       133    1   0.000000       -7.003000000000       7.654000000000       4.177000000000
       134    1   0.000000       -6.887000000000       8.908000000000       5.058000000000
       135    1   0.000000       -0.414000000000       9.671000000000       1.165000000000
       136    1   0.000000        0.090000000000      10.452000000000       1.002000000000
       137    1   0.000000       -1.304000000000       9.947000000000       1.350000000000
       138    1   0.000000        1.706000000000       4.956000000000       3.932000000000
       139    1   0.000000        1.187000000000       4.929000000000       4.729000000000
       140    1   0.000000        1.161000000000       4.586000000000       3.243000000000
       141    1   0.000000       -4.664000000000       9.703000000000       3.045000000000
       142    1   0.000000       -4.612000000000       8.798000000000       3.409000000000
       143    1   0.000000       -5.506000000000      10.156000000000       3.389000000000
       144    1   0.000000        4.134000000000       3.528000000000       4.578000000000
       145    1   0.000000        4.281000000000       4.104000000000       5.336000000000
       146    1   0.000000        3.333000000000       3.944000000000       4.264000000000
       147    1   0.000000        5.103000000000      11.029000000000       1.926000000000
       148    1   0.000000        4.334000000000      10.463000000000       2.286000000000
       149    1   0.000000        4.646000000000      11.667000000000       1.336000000000
       150    1   0.000000       10.610000000000       8.986000000000       0.299000000000
       151    1   0.000000       10.613000000000       8.020000000000       0.590000000000
       152    1   0.000000       10.665000000000       9.281000000000       1.206000000000
       153    1   0.000000        3.595000000000       7.146000000000       4.132000000000
       154    1   0.000000        2.868000000000       6.489000000000       4.255000000000
       155    1   0.000000        4.387000000000       6.674000000000       3.910000000000
       156    1   0.000000        1.460000000000      12.192000000000       1.295000000000
       157    1   0.000000        1.815000000000      12.298000000000       2.185000000000
       158    1   0.000000        2.289000000000      11.969000000000       0.842000000000
       159    1   0.000000        8.322000000000       7.191000000000       2.629000000000
       160    1   0.000000        8.244000000000       7.976000000000       2.099000000000
       161    1   0.000000        9.059000000000       6.629000000000       2.347000000000
       162    1   0.000000        6.921000000000      13.337000000000       1.121000000000
       163    1   0.000000        7.786000000000      13.017000000000       1.306000000000
       164    1   0.000000        6.722000000000      12.816000000000       0.294000000000
       165    1   0.000000        6.078000000000       5.757000000000       3.691000000000
       166    1   0.000000        6.780000000000       6.295000000000       3.357000000000
       167    1   0.000000        6.423000000000       5.127000000000       4.397000000000
       168    1   0.000000        0.524000000000       8.176000000000       5.198000000000
       169    1   0.000000        0.471000000000       7.992000000000       4.251000000000
       170    1   0.000000        0.785000000000       9.109000000000       5.126000000000
       171    1   0.000000        7.825000000000       9.701000000000       1.406000000000
       172    1   0.000000        8.292000000000      10.509000000000       1.580000000000
       173    1   0.000000        6.891000000000       9.911000000000       1.484000000000
       174    1   0.000000        9.403000000000       4.662000000000       4.141000000000
       175    1   0.000000        8.620000000000       4.613000000000       4.690000000000
       176    1   0.000000        9.086000000000       4.440000000000       3.270000000000
       177    1   0.000000        2.831000000000       9.654000000000       3.071000000000
       178    1   0.000000        3.010000000000       8.836000000000       3.486000000000
       179    1   0.000000        2.171000000000      10.100000000000       3.529000000000
       180    1   0.000000       11.740000000000       3.436000000000       4.722000000000
       181    1   0.000000       11.889000000000       4.121000000000       5.461000000000
       182    1   0.000000       10.838000000000       3.632000000000       4.363000000000
       183    1   0.000000       12.944000000000      11.258000000000       1.979000000000
       184    1   0.000000       12.180000000000      10.675000000000       2.199000000000
       185    1   0.000000       12.637000000000      11.932000000000       1.300000000000
       186    1   0.000000       17.604000000000       8.745000000000       0.538000000000
       187    1   0.000000       17.847000000000       7.828000000000       0.404000000000
       188    1   0.000000       18.271000000000       9.111000000000       1.112000000000
       189    1   0.000000       11.059000000000       6.783000000000       3.941000000000
       190    1   0.000000       10.371000000000       6.119000000000       4.162000000000
       191    1   0.000000       11.923000000000       6.301000000000       3.862000000000
       192    1   0.000000        9.397000000000      11.869000000000       1.532000000000
       193    1   0.000000        9.882000000000      12.144000000000       2.326000000000
       194    1   0.000000       10.092000000000      11.926000000000       0.841000000000
       195    1   0.000000       15.723000000000       7.264000000000       2.490000000000
       196    1   0.000000       15.729000000000       8.183000000000       2.220000000000
       197    1   0.000000       16.465000000000       6.899000000000       1.992000000000
       198    1   0.000000       14.814000000000      13.589000000000       0.668000000000
       199    1   0.000000       15.718000000000      13.206000000000       0.879000000000
       200    1   0.000000       14.388000000000      12.909000000000       0.149000000000
       201    1   0.000000       13.755000000000       5.765000000000       3.775000000000
       202    1   0.000000       14.456000000000       6.323000000000       3.389000000000
       203    1   0.000000       14.224000000000       5.185000000000       4.401000000000
       204    1   0.000000        8.582000000000       7.928000000000       5.273000000000
       205    1   0.000000        8.411000000000       7.712000000000       4.300000000000
       206    1   0.000000        8.627000000000       8.872000000000       5.137000000000
       207    1   0.000000       15.355000000000      10.003000000000       1.833000000000
       208    1   0.000000       15.962000000000      10.594000000000       1.393000000000
       209    1   0.000000       14.489000000000      10.492000000000       1.788000000000
       210    1   0.000000       17.452000000000       4.967000000000       3.976000000000
       211    1   0.000000       16.845000000000       4.785000000000       4.682000000000
       212    1   0.000000       16.899000000000       4.914000000000       3.191000000000
       213    1   0.000000       10.879000000000       9.478000000000       2.988000000000
       214    1   0.000000       11.065000000000       8.592000000000       3.414000000000
       215    1   0.000000       10.211000000000       9.912000000000       3.599000000000
       216    1   0.000000       -7.147000000000      10.747000000000       5.555000000000
       217    1   0.000000       -6.279000000000      11.224000000000       5.483000000000
       218    1   0.000000       -7.354000000000      10.710000000000       4.616000000000
       219    1   0.000000       -5.610000000000      18.294000000000       1.638000000000
       220    1   0.000000       -6.396000000000      17.857000000000       2.004000000000
       221    1   0.000000       -5.895000000000      18.897000000000       0.927000000000
       222    1   0.000000       -0.434000000000      16.104000000000       0.186000000000
       223    1   0.000000       -0.509000000000      15.128000000000       0.148000000000
       224    1   0.000000       -0.625000000000      16.337000000000       1.110000000000
       225    1   0.000000       -6.968000000000      14.288000000000       3.786000000000
       226    1   0.000000       -7.730000000000      13.888000000000       4.133000000000
       227    1   0.000000       -6.274000000000      13.775000000000       4.009000000000
       228    1   0.000000       -9.043000000000      19.097000000000       1.300000000000
       229    1   0.000000       -8.535000000000      19.453000000000       2.059000000000
       230    1   0.000000       -8.474000000000      19.341000000000       0.535000000000
       231    1   0.000000       -2.743000000000      14.593000000000       2.549000000000
       232    1   0.000000       -2.857000000000      15.481000000000       2.069000000000
       233    1   0.000000       -2.148000000000      14.127000000000       1.921000000000
       234    1   0.000000       -3.922000000000      20.497000000000       0.974000000000
       235    1   0.000000       -3.025000000000      20.277000000000       1.281000000000
       236    1   0.000000       -4.040000000000      19.927000000000       0.216000000000
       237    1   0.000000       -4.826000000000      12.954000000000       3.539000000000
       238    1   0.000000       -4.214000000000      13.609000000000       3.185000000000
       239    1   0.000000       -4.429000000000      12.504000000000       4.326000000000
       240    1   0.000000       -9.909000000000      15.250000000000       5.023000000000
       241    1   0.000000       -9.998000000000      15.070000000000       4.059000000000
       242    1   0.000000       -9.838000000000      16.205000000000       5.079000000000
       243    1   0.000000       -2.986000000000      17.176000000000       1.386000000000
       244    1   0.000000       -2.412000000000      17.967000000000       1.294000000000
       245    1   0.000000       -3.878000000000      17.554000000000       1.361000000000
       246    1   0.000000       -1.272000000000      12.093000000000       3.886000000000
       247    1   0.000000       -1.984000000000      12.040000000000       4.572000000000
       248    1   0.000000       -1.650000000000      11.588000000000       3.182000000000
       249    1   0.000000       -7.797000000000      16.769000000000       3.026000000000
       250    1   0.000000       -7.375000000000      16.027000000000       3.488000000000
       251    1   0.000000       -8.182000000000      17.415000000000       3.629000000000
       252    1   0.000000        1.019000000000      10.910000000000       4.690000000000
       253    1   0.000000        1.172000000000      11.504000000000       5.412000000000
       254    1   0.000000        0.170000000000      11.253000000000       4.358000000000
       255    1   0.000000        1.854000000000      18.071000000000       1.968000000000
       256    1   0.000000        1.027000000000      17.571000000000       2.256000000000
       257    1   0.000000        1.654000000000      18.620000000000       1.192000000000
       258    1   0.000000        7.046000000000      15.930000000000       0.107000000000
       259    1   0.000000        6.949000000000      15.012000000000       0.396000000000
       260    1   0.000000        7.268000000000      16.375000000000       0.959000000000
       261    1   0.000000        0.546000000000      14.332000000000       4.074000000000
       262    1   0.000000       -0.088000000000      13.638000000000       3.866000000000
       263    1   0.000000        1.452000000000      13.969000000000       3.945000000000
       264    1   0.000000       -1.437000000000      19.446000000000       1.312000000000
       265    1   0.000000       -0.806000000000      19.501000000000       2.051000000000
       266    1   0.000000       -0.829000000000      19.549000000000       0.573000000000
       267    1   0.000000        5.047000000000      14.803000000000       2.656000000000
       268    1   0.000000        4.802000000000      15.607000000000       2.155000000000
       269    1   0.000000        5.752000000000      14.314000000000       2.222000000000
       270    1   0.000000        3.575000000000      20.305000000000       0.717000000000
       271    1   0.000000        4.469000000000      20.040000000000       1.009000000000
       272    1   0.000000      -14.926224930361      27.439435532516      16.296000000000
       273    1   0.000000        2.961000000000      13.187000000000       3.480000000000
       274    1   0.000000        3.701000000000      13.740000000000       3.123000000000
       275    1   0.000000        3.351000000000      12.627000000000       4.204000000000
       276    1   0.000000       -2.240000000000      15.087000000000       5.280000000000
       277    1   0.000000       -2.372000000000      14.926000000000       4.346000000000
       278    1   0.000000       -2.256000000000      16.070000000000       5.216000000000
       279    1   0.000000        4.308000000000      17.003000000000       1.363000000000
       280    1   0.000000        4.920000000000      17.752000000000       1.453000000000
       281    1   0.000000        3.437000000000      17.338000000000       1.688000000000
       282    1   0.000000        6.656000000000      12.158000000000       4.059000000000
       283    1   0.000000        6.102000000000      12.208000000000       4.839000000000
       284    1   0.000000        5.982000000000      11.845000000000       3.408000000000
       285    1   0.000000       -0.277000000000      16.659000000000       2.971000000000
       286    1   0.000000       -0.073000000000      15.727000000000       3.274000000000
       287    1   0.000000       -0.934000000000      17.059000000000       3.590000000000
       288    1   0.000000        8.938000000000      10.625000000000       4.712000000000
       289    1   0.000000        9.069000000000      11.386000000000       5.351000000000
       290    1   0.000000        8.128000000000      10.896000000000       4.309000000000
       291    1   0.000000        9.696000000000      18.495000000000       1.575000000000
       292    1   0.000000        9.032000000000      17.883000000000       1.918000000000
       293    1   0.000000        9.414000000000      18.813000000000       0.710000000000
       294    1   0.000000       15.154000000000      16.336000000000       0.072000000000
       295    1   0.000000       15.014000000000      15.391000000000       0.154000000000
       296    1   0.000000       15.145000000000      16.571000000000       0.980000000000
       297    1   0.000000        8.160000000000      14.332000000000       4.054000000000
       298    1   0.000000        7.554000000000      13.611000000000       3.875000000000
       299    1   0.000000        9.026000000000      13.969000000000       3.901000000000
       300    1   0.000000        6.059000000000      19.055000000000       1.460000000000
       301    1   0.000000        6.643000000000      19.067000000000       2.256000000000
       302    1   0.000000        6.710000000000      19.274000000000       0.757000000000
       303    1   0.000000       12.838000000000      14.563000000000       2.467000000000
       304    1   0.000000       12.618000000000      15.455000000000       2.136000000000
       305    1   0.000000       13.535000000000      14.267000000000       1.837000000000
       306    1   0.000000       11.834000000000      20.504000000000       0.840000000000
       307    1   0.000000       12.761000000000      20.162000000000       1.010000000000
       308    1   0.000000       11.458000000000      19.962000000000       0.098000000000
       309    1   0.000000       10.671000000000      13.155000000000       3.596000000000
       310    1   0.000000       11.201000000000      13.702000000000       3.006000000000
       311    1   0.000000       11.278000000000      12.689000000000       4.192000000000
       312    1   0.000000        5.475000000000      15.163000000000       5.404000000000
       313    1   0.000000        5.325000000000      15.171000000000       4.432000000000
       314    1   0.000000        5.621000000000      16.128000000000       5.428000000000
       315    1   0.000000       12.092000000000      17.099000000000       1.374000000000
       316    1   0.000000       12.680000000000      17.811000000000       1.278000000000
       317    1   0.000000       11.240000000000      17.504000000000       1.434000000000
       318    1   0.000000       -6.674000000000      10.827000000000       2.869000000000
       319    1   0.000000       -8.572000000000      12.180000000000       4.866000000000
       320    1   0.000000       -5.169000000000      12.091000000000       3.326000000000
       321    1   0.000000        7.717000000000      16.689000000000       2.659000000000
       322    1   0.000000        7.999000000000      15.859000000000       3.117000000000
       323    1   0.000000        7.033000000000      17.047000000000       3.244000000000
       324    1   0.000000      -12.632224930361      13.391435532516      10.075000000000
       325    1   0.000000      -12.380224930361      13.893435532516      10.865000000000