LAMMPS data file via write_data, version 23 Jun 2022, timestep = 5800000

1296 atoms
2 atom types

0 31.128223 xlo xhi
0 21.465265 ylo yhi
-0.43429940528932853 16.751691405287062 zlo zhi
-9.182181 -9.661348122477442 -14.639608876937498 xy xz yz

Masses

1 1.008
2 15.999

Atoms # full

345 0 2 0 -2.713850959860721 -0.7991955503344741 10.626440829757096 0 -3 -3
343 0 1 0 -3.0229903604385533 0.06415629548632928 10.311482143692622 0 -3 -3
344 0 2 0 -2.867547670704845 -0.01189368015683101 9.338095162452664 0 -3 -3
438 0 2 0 1.461873905499247 0.33709745334510544 12.731898492106938 -2 -2 -2
436 0 1 0 1.0957080835095274 -0.22989934020215763 12.064453909271544 -2 -2 -2
437 0 2 0 0.35880698515896015 0.2899504585721342 11.6868555739313 -2 -2 -2
1029 0 2 0 5.3512053956183765 -3.6803710502156735 4.261028454497297 0 -2 0
605 0 2 0 6.418192378729909 -5.41996186645567 13.03149453641082 0 1 0
619 0 1 0 21.09961102547451 5.637992884687597 5.580752199509795 2 1 1
620 0 2 0 21.776942846521198 5.7553360802372895 4.8809071451024195 2 1 1
621 0 2 0 20.69642820422798 4.742945925286872 5.378260552583198 2 1 1
38 0 2 0 -4.0428155710094895 -0.039021440894481785 13.30516126016798 -1 -1 -2
37 0 1 0 -3.248968507555789 -0.5356761177562017 13.4679367167667 -1 -1 -2
39 0 2 0 -3.055422616783815 -1.0652855040439206 12.677837266512345 -1 -1 -2
1281 0 2 0 -3.792004575771002 8.791943646121295 5.959036481620629 3 1 3
1000 0 1 0 12.514071185934576 -3.350236237211642 4.072699625286271 -1 1 -1
1068 0 2 0 -3.8692177103563488 -5.885895964281453 16.23991132824694 -2 -2 -1
602 0 2 0 3.7179665758545473 5.171095073804907 5.286380828465343 -1 -4 -3
601 0 1 0 3.0098231197942953 5.637541943392776 4.796283899514029 -2 -4 -3
1021 0 1 0 11.43475034181858 4.262011753255831 5.001788111856541 -2 -2 -1
992 0 2 0 11.509990615121612 18.176513410609957 1.091350016583851 1 2 2
783 0 2 0 -5.592365823774785 17.40899136994378 2.566923406110288 -4 -3 -3
991 0 1 0 12.184656355875017 17.44445952267629 0.9616900620711168 1 2 2
226 0 1 0 -2.6620708468437853 -5.754602346627916 12.43042609443285 2 0 -1
781 0 1 0 -6.518035425097076 17.049050656323377 2.400078771913639 -4 -3 -3
272 0 2 0 6.028977464882745 10.435000800273109 6.181336731997285 1 2 2
271 0 1 0 6.661143355193002 9.871942615045619 6.68447064767544 1 2 2
567 0 2 0 19.907658658150762 5.0885099642162945 2.8464044673510926 1 1 1
913 0 1 0 13.699225158071034 10.022513506333837 5.75777141233131 3 3 2
915 0 2 0 14.5880213576553 9.848777187928222 5.426864711938567 3 3 2
533 0 2 0 15.352544875854536 -3.3816918334204313 13.241461397598291 1 -2 0
534 0 2 0 16.785484340399 -2.8519461930056753 13.280039257400624 1 -2 0
442 0 1 0 11.098617033085839 7.4796035129800185 9.60932581818275 -3 -3 -3
911 0 2 0 13.38749082157872 1.9392143943003717 3.4738787072941895 -1 -2 -1
910 0 1 0 13.441665532013996 1.390405342170737 4.247752182794474 -1 -2 -1
912 0 2 0 14.284013125719977 1.688301000016951 4.64112848145868 -1 -2 -1
444 0 2 0 11.79672499236849 8.001643906190207 9.201451875584324 -3 -3 -3
417 0 2 0 15.831014487263191 10.79036800659573 8.933604238932446 -3 -1 2
906 0 2 0 -10.264094001707061 5.340692621135023 11.980441001163515 1 2 2
238 0 1 0 -2.7895925463438447 11.784021067216543 9.349090001739183 2 2 0
240 0 2 0 -2.5946371942244344 12.475482203691728 10.007829834423283 2 2 0
239 0 2 0 -3.1367331160973198 11.009691786626776 9.797599856988349 2 2 0
1212 0 2 0 11.593465482824971 4.5040013824459795 11.590911410475744 -1 2 0
1210 0 1 0 11.393717643295073 3.9509212241879546 12.329678856595084 -1 2 0
1211 0 2 0 12.185025469286536 3.3852952310433757 12.446845279616415 -1 2 0
614 0 2 0 -4.374516795600366 4.645291856704748 3.6527810012912463 -1 -2 0
682 0 1 0 10.756269199185384 -10.728036441109642 14.264887480467545 1 3 0
684 0 2 0 10.533669328249378 -10.795641180169385 13.34604091946936 1 3 0
193 0 1 0 16.202075244676386 9.670433497102753 4.828037018988891 -1 -3 0
194 0 2 0 16.96107808946008 10.286936183616557 4.613446427152636 -1 -3 0
159 0 2 0 17.650081021808813 15.541545303210896 2.577175718401912 -1 1 0
653 0 2 0 22.04833798801292 -2.5549945332522173 3.864472803069048 1 -1 -1
919 0 1 0 25.744161348730568 7.64843770440736 1.1193782493752924 0 2 1
921 0 2 0 -4.464658402155965 7.681079414426782 1.3078974064293352 1 2 1
195 0 2 0 16.157976482597462 9.033364383418178 4.095021054072635 -1 -3 0
1131 0 2 0 22.348154352955955 -3.5267187079485653 8.942470855413214 -1 -1 0
292 0 1 0 20.4745837507686 0.08341077193887525 3.1090578940107263 -1 2 1
632 0 2 0 15.378975817681159 6.858042858438715 4.33790226526464 -1 2 -2
596 0 2 0 -7.059380495893347 -12.721270003773153 15.997821566243248 -2 -2 -2
566 0 2 0 21.34586539798011 4.865727556815812 2.3006200308908986 1 1 1
565 0 1 0 20.450436224639862 4.515940223564162 2.331806926182724 1 1 1
595 0 1 0 -6.1090719814589125 -12.87288401762208 16.14413007159507 -2 -2 -2
1014 0 2 0 6.97140807169915 9.772267344827288 8.688597340790825 -2 -3 -3
1012 0 1 0 7.460869021612289 9.938905526235107 9.51619092226046 -2 -3 -3
597 0 2 0 3.7701762456988606 2.321991912876713 -0.3043597127381248 -2 -2 -1
1116 0 2 0 8.710686194459011 3.463158576214786 4.614072583181916 1 0 1
880 0 1 0 4.7248928093077875 -1.482881515870634 9.540002290563551 -2 -2 0
1114 0 1 0 8.594681774865236 2.666622123619754 5.135248125461506 1 0 1
777 0 2 0 20.74521582915296 -3.416546156913106 10.785246333141503 -1 -1 0
1115 0 2 0 9.399209291251788 2.1387307152117367 5.2798714926543715 1 0 1
775 0 1 0 21.80665906643101 -3.4942984585598706 10.65890699788375 -1 -1 0
776 0 2 0 -9.01904986264467 -2.6880815902411745 11.109780211919903 0 -1 0
1240 0 1 0 19.27785408203164 13.519344706609148 4.228940217884667 -2 -3 1
273 0 2 0 7.404797769691103 10.522037981020674 6.88879261743586 1 2 2
360 0 2 0 15.800942447216697 -0.5744526263259004 5.4946896596681745 0 3 3
358 0 1 0 15.45771998833539 -0.1848864834745232 6.362866889585169 0 3 3
882 0 2 0 3.7375892368614005 -1.3688663612093208 9.45986141653052 -2 -2 0
1022 0 2 0 10.647479251027008 4.772042497151747 5.257686558599789 -3 -2 -1
1268 0 2 0 12.10498112662949 7.795332698236294 6.808587796466928 0 0 -3
359 0 2 0 14.579212261579318 -0.6136796940654081 6.595476444055945 0 3 3
114 0 2 0 1.1274038387248986 4.4875008782374195 14.35541555505466 0 -1 -1
275 0 2 0 -9.992731920974071 11.829120821957062 6.219697163796321 3 0 -3
656 0 2 0 11.900481420469246 12.972900567515914 4.747942238845721 0 2 0
112 0 1 0 1.440181051157598 3.9904085350190854 15.136644192083386 0 -1 -1
274 0 1 0 -10.759165440179363 12.326360628847997 6.428959489096612 3 0 -3
163 0 1 0 -12.52209021391538 11.785920531875755 10.752401395849859 0 -4 1
164 0 2 0 -12.516041307234008 11.23013592768397 9.980008504113368 0 -4 1
1141 0 1 0 -2.11781937663992 3.6995043342022016 1.7319999833686284 -1 -1 0
540 0 2 0 10.652674133083206 -3.2843298863878183 7.6031665814127045 -1 -1 -1
538 0 1 0 10.1551455864373 -2.450697998960858 7.531784394545891 -1 -1 -1
539 0 2 0 10.205005963983378 -2.188644647374073 6.553465817976007 -1 -1 -1
113 0 2 0 2.2346375329138297 4.463782648707873 15.524359900837684 0 -1 -1
427 0 1 0 -0.1876017832969481 -2.556884173236151 12.73486707338016 -1 -2 0
165 0 2 0 -4.214530278765558 -9.766892794049186 11.175770233489361 0 -3 1
1242 0 2 0 19.376638534966173 13.241310376210336 5.138979067404037 -2 -3 1
1241 0 2 0 18.351085510636015 13.822038675423075 4.055303333292132 -2 -3 1
993 0 2 0 11.94003407474541 16.787781056546315 0.22543865501775462 1 2 2
1226 0 2 0 21.29779149145041 2.635788351818989 4.894254015077618 2 3 4
1225 0 1 0 22.246221301915334 2.4001241880839848 4.701054323503797 2 3 4
1227 0 2 0 22.760880537017364 2.6741873808222216 5.539069899286153 2 3 4
723 0 2 0 -4.6980918512758905 -1.330029878289178 6.981033729600257 1 0 1
722 0 2 0 -3.459132518562873 -2.1795610335779836 7.318741771728467 1 0 1
1027 0 1 0 4.6790891207453225 -3.0907756820034105 3.8397856128944117 0 -2 0
1028 0 2 0 4.080109048334531 -2.7451240271392665 4.518276308590157 0 -2 0
655 0 1 0 12.402032491466226 12.313091283165011 5.245649341608007 0 2 0
901 0 1 0 -1.2759314352507989 -4.5158005854921175 14.500365044872238 -1 0 -3
892 0 1 0 -5.684388608556475 -10.197447527576218 12.258849270972162 -3 -6 0
521 0 2 0 3.90100578413952 9.808129806494927 7.945573984874569 -1 2 2
603 0 2 0 3.182038083132627 6.555952791186161 5.125020614499925 -2 -4 -3
520 0 1 0 4.172840098905614 8.858536138310125 7.987927872441388 -1 2 2
1013 0 2 0 6.833426452670677 10.449431965191215 10.064848341672818 -2 -3 -3
416 0 2 0 14.840336953195273 11.843172147104454 8.325710708176173 -3 -1 1
351 0 2 0 13.572488100937486 9.29526175601179 1.0905131158255008 -2 -2 -1
391 0 1 0 5.283073006277578 4.112530651344327 11.74188682578231 -1 2 1
12 0 2 0 0.4611124317127038 -3.6760830092010055 9.513742617802825 -2 -4 -1
415 0 1 0 15.743817624213303 11.679924246146165 8.584197092516245 -3 -1 1
680 0 2 0 6.131148213702018 -10.378079587133376 13.557826743185236 -2 -1 -1
997 0 1 0 2.5200322118383527 6.441130265506267 12.320709708213471 0 -2 2
681 0 2 0 6.671832369017961 -10.320989373864316 15.054872159735533 -2 -1 -1
54 0 2 0 7.82013387156299 0.47116180706462973 7.247739253037139 2 2 1
638 0 2 0 0.015681459709356194 9.21046979196254 4.6652034564507225 1 2 1
637 0 1 0 0.49921702733989504 8.391866950860283 4.618476535048548 1 2 1
639 0 2 0 0.581819677272414 8.198675199377252 3.660888651129838 1 2 1
11 0 2 0 1.2112668622620975 -3.7938575528066254 8.111096685929601 -2 -4 -1
574 0 1 0 4.764142360052374 0.33237650850747524 7.257273976393782 -2 -1 -1
575 0 2 0 5.565466893877157 0.3078427297016999 6.611963749355914 -2 -1 -1
234 0 2 0 -5.4791143457842395 -6.737241228115289 13.068436228943524 0 1 -1
80 0 2 0 16.12877908548097 4.9293594061706 7.802184363587193 -1 -1 -3
1148 0 2 0 17.4483622081366 7.769910763998513 0.3979377935215389 0 0 0
1145 0 2 0 -5.920728644560806 7.9188391358666355 12.25645797790379 1 3 2
484 0 1 0 -5.15613502862785 4.308390731049252 9.56239443883344 4 3 4
485 0 2 0 -5.875233366520292 4.6166875279096065 10.163207507467042 4 3 4
1144 0 1 0 -6.759313269693397 8.15095652331448 12.69912588021027 1 3 2
1146 0 2 0 -6.65977223826699 8.445318809481664 13.635266001620717 1 3 2
719 0 2 0 18.25311718617268 -12.943659965080728 15.237960988995791 -1 2 0
350 0 2 0 13.12972688376543 9.209582892216307 2.468497525758381 -2 -2 -1
48 0 2 0 7.448907092789029 -2.691617891707392 5.778516157305543 -1 0 0
46 0 1 0 7.565157130058692 -3.1966462410860386 4.950566487191315 -1 0 0
576 0 2 0 5.138758174515113 -0.10740125609589324 8.053788632230015 -2 -1 -1
349 0 1 0 13.92743125827409 9.43913385234932 1.9722546994022276 -2 -2 -1
907 0 1 0 -1.044431667098113 2.832408893786128 8.23180335261349 1 3 3
908 0 2 0 -0.47181459445954044 3.4583361420900998 8.681262097242708 1 3 3
718 0 1 0 17.391801853311318 -12.541677550354187 15.101180169769744 -1 2 0
764 0 2 0 14.944544719090018 -2.0391466722924374 11.071056041002285 0 1 1
355 0 1 0 -8.283618046151675 11.514628078786508 5.8235700280713 2 3 0
797 0 2 0 10.534052095998074 20.235225083411375 0.4317125763515214 -1 1 1
795 0 2 0 20.81616334466812 9.310244324433047 2.8463076888620673 1 0 2
720 0 2 0 17.45784726375922 -11.983326252412867 14.373113064560469 -1 2 0
796 0 1 0 10.479035697100931 19.70611375107668 1.2392897552684448 -1 1 1
894 0 2 0 -5.350628750638634 -10.880212263997208 12.835070986182972 -3 -6 0
522 0 2 0 5.0071997871259954 8.797600501288244 7.502263487566442 -1 2 2
798 0 2 0 9.551234647821452 19.451251886170237 1.190193698686088 -1 1 1
881 0 2 0 4.7042525678160265 -2.426685173217672 9.482710223027969 -2 -2 0
763 0 1 0 14.506609952453626 -1.8483896642768851 10.246501953849288 0 1 1
79 0 1 0 16.90854603311428 4.498503029793529 7.440122399907705 -1 -1 -3
81 0 2 0 17.238698590594744 3.975337312364207 8.186686495444787 -1 -1 -3
1113 0 2 0 2.891913049888985 11.69937546753891 8.615309810360609 -1 -1 -1
1205 0 2 0 24.055113862588605 9.81507810558701 -0.17080580037250148 2 6 4
1204 0 1 0 15.090722058351698 -5.264188582695587 16.447520059719814 2 6 3
1206 0 2 0 14.621694557475852 -5.590635520918445 15.65193526457296 2 6 3
1111 0 1 0 3.671397279052851 11.449182149078567 8.02451680319221 -1 -1 -1
388 0 1 0 -9.557085703777284 15.175363310138147 3.06383960793301 -1 -1 -1
29 0 2 0 15.805369105799267 -4.27482078875887 9.268770931395022 0 2 -2
768 0 2 0 8.659986961959564 11.818189768055896 4.027512619406341 -2 -3 0
1260 0 2 0 -2.4941609812146552 -0.29159753036871683 2.6942417692480767 -2 -1 -2
803 0 2 0 -10.108476320781318 5.093543313540133 15.44290146657532 2 4 -1
47 0 2 0 8.265200101649368 -3.872056668193985 5.074464061263901 -1 0 0
995 0 2 0 0.004604425768595544 1.6084928771983158 6.285286070020461 -3 -6 -2
28 0 1 0 15.364734544272984 -3.7530451613615363 8.594302320879533 0 2 -2
1267 0 1 0 11.303178442713918 7.928026258035299 6.314341100604759 0 0 -3
1269 0 2 0 11.0501932610476 8.836132181612534 6.502535722308504 -1 0 -3
276 0 2 0 -11.341911463737516 11.854764318601775 7.043318815683152 3 0 -3
891 0 2 0 -2.63999913205253 12.754083097495187 1.1009991047454804 2 1 2
889 0 1 0 -3.3574450848291577 12.09031588834287 1.2375581087340919 2 1 2
890 0 2 0 -2.9391578228655986 11.391154833728065 1.8132001260733643 2 1 2
806 0 2 0 18.30809484011897 19.525390296409398 1.4889461440362077 2 3 3
813 0 2 0 22.677697063343736 1.7869868095935089 3.0550921986492594 -2 -3 0
1258 0 1 0 -2.007182314028417 -0.4313242215653261 3.5629331269704254 -2 -1 -2
811 0 1 0 23.04068231979632 1.8056502646111912 2.156713601583999 -2 -3 0
30 0 2 0 16.082622088639862 -3.7493627596043733 7.9341565808280805 0 2 -2
794 0 2 0 19.97343340517556 8.595420187737044 1.744562030781446 1 0 2
206 0 2 0 18.428508961329698 2.7235797635323813 9.864653434327062 -1 2 1
459 0 2 0 19.335823466515073 9.211248941210194 5.024083661090648 -1 -1 1
1003 0 1 0 7.70397982825049 3.8124236478895193 -0.1969655788215639 -3 -3 -3
585 0 2 0 -4.371438173978298 14.08804631101963 4.744222353700716 -2 0 -1
536 0 2 0 -4.320796222669096 1.6653375121827771 8.690291591798761 3 0 2
535 0 1 0 -5.224031097451037 1.8521215599369452 8.46069276847266 3 0 2
793 0 1 0 20.24285274981994 9.439995090529768 2.041118217425356 1 0 2
537 0 2 0 -5.409503079879078 1.1812603702042903 7.755688704051494 3 1 2
583 0 1 0 -4.87443630749086 14.885531571649906 4.520565891670437 -2 0 -1
616 0 1 0 -2.6162774200841494 6.9278040809152435 5.978115734163281 -3 1 0
805 0 1 0 18.346116832678018 18.623258856085002 1.8675905237453194 2 3 3
1270 0 1 0 -4.507917718907148 -12.088671444947861 13.846682222194467 -2 -4 -3
1271 0 2 0 -3.6408470376510342 -11.775660724596326 14.008681659943953 -2 -4 -3
886 0 1 0 15.926941537572475 7.6576418694139905 2.873989526308135 2 2 5
818 0 2 0 16.044291533084216 3.0521428356018916 6.546061247468521 2 4 4
1272 0 2 0 -5.048473027846388 -12.126837118746797 14.71322977953696 -2 -4 -3
1178 0 2 0 4.275151906340284 5.797700983147989 15.208938779402331 -1 0 0
341 0 2 0 15.943033881766787 4.682170084909107 11.448409623748315 -2 -1 -2
167 0 2 0 11.94385776071563 5.961871778142621 9.911852479140027 1 -2 0
812 0 2 0 22.7131374109086 2.639159717928636 1.7330980368883524 -2 -3 0
887 0 2 0 16.59310293923047 7.457759765800009 2.200111086238517 2 2 5
807 0 2 0 17.42755750612912 18.267439672623663 1.9468703544803136 2 3 3
340 0 1 0 16.544613255253044 5.070845703398506 12.13295384928738 -2 -1 -2
342 0 2 0 16.026507287194807 4.88955022042251 12.959002478478821 -2 -1 -2
166 0 1 0 12.13608717290329 5.021162654962907 9.899842124018457 1 -2 0
765 0 2 0 14.85898508546698 -2.4314271893290327 9.60127977010707 0 1 1
1214 0 2 0 12.76070732764286 -1.8459859756204846 3.517510058701699 3 5 4
1213 0 1 0 12.845583616703696 -1.0240306186289412 2.9446228135550268 3 5 4
61 0 1 0 4.32732412215256 5.605522713166104 8.384960963416702 0 1 0
1067 0 2 0 6.680032399936039 8.215916404598087 0.17106316110111675 -2 -2 0
820 0 1 0 -4.148637546659967 7.782948833142372 11.782139412324305 2 4 1
1215 0 2 0 13.257589321680983 -0.2773981926464466 3.493335012166357 3 5 4
180 0 2 0 -0.17099683863461984 9.048810686312777 -0.3162716283388369 0 -2 0
178 0 1 0 0.7844785721651926 9.20836401098337 -0.041585008064760565 0 -2 0
1175 0 2 0 5.994988232321154 -1.0338398025653053 10.874247496289781 -4 0 -2
1066 0 1 0 6.291093397804727 9.02220873587723 -0.18448922026961628 -2 -2 0
590 0 2 0 13.309247518102605 -2.2981132686417762 13.462232628980212 -1 2 -2
589 0 1 0 13.836728918014977 -2.9330379725175177 13.972056868395601 -1 2 -2
109 0 1 0 1.9012141241926346 0.9801193620641047 2.6703581686255013 0 1 -1
110 0 2 0 1.8912270174885153 0.05898356702258312 2.289050763210464 0 0 -1
111 0 2 0 0.946451665577225 1.2653663420328094 2.6826173452151907 0 0 -1
821 0 2 0 -3.7284698919164594 6.928478388042269 11.610987380909517 2 4 1
1195 0 1 0 -2.832799402452407 18.963731033881785 0.35565969736919023 0 1 2
78 0 2 0 8.335793377726425 0.2823391626623035 2.4831481089005853 1 -1 1
591 0 2 0 13.164023836853893 -3.5120757524660746 14.391971762741573 -1 2 -2
957 0 2 0 4.519859129928745 0.11865488901330945 4.036813504747164 -2 -1 0
532 0 1 0 16.240178286074343 -3.387944210916335 12.733673131881531 1 -2 0
822 0 2 0 -3.5455196867808105 8.142262968765335 12.484882886134486 2 4 1
230 0 2 0 24.177277617393177 4.034745748684929 3.703475949283602 2 2 2
1088 0 2 0 9.548673425632991 16.60638604883323 2.4972059502819253 1 -1 1
477 0 2 0 10.492328070835946 1.550690489968583 3.0290976997527537 2 1 1
123 0 2 0 20.208029723619376 -2.125661811672059 5.35103254174353 2 1 2
475 0 1 0 10.782616730403037 2.460474897815961 2.8319611711333263 2 1 1
698 0 2 0 9.804975473016272 1.1866623204586215 7.925140811010495 -1 1 2
955 0 1 0 4.90949424292224 -0.2956031985145331 3.257624705365108 -2 -1 0
476 0 2 0 10.984419074871619 2.837600822727433 3.6993976582787917 2 1 1
544 0 1 0 -5.876845078360666 8.971601689289644 7.9981440361406015 1 -1 -1
866 0 2 0 5.649766276176036 -5.25850774373777 16.377779196705923 -3 -5 -3
158 0 2 0 18.701898210042344 16.195488853941686 1.6897804531250102 -1 1 0
1064 0 2 0 -5.913725930077544 8.18266441372022 2.8514641397860525 1 3 2
250 0 1 0 18.640017085171742 1.232124764083558 7.001508301661362 -2 -1 -2
546 0 2 0 -5.482895342281095 9.078184651283086 7.104705142954626 1 -1 -1
63 0 2 0 4.500872129359741 4.7701244824864055 8.790843843283279 0 1 0
303 0 2 0 9.14722193233753 7.682654189260095 4.19596010375202 0 0 0
301 0 1 0 10.019379747613609 7.387198373990369 3.897375947981061 0 0 0
969 0 2 0 -6.189310261190646 12.171451387365515 8.167341653890468 1 0 0
229 0 1 0 25.026559915488832 3.8897151410307225 4.188981609315664 2 2 2
658 0 1 0 7.843425718835834 -1.905985389681426 9.128557564948109 2 1 2
660 0 2 0 8.563978272002515 -2.27603594677341 8.63732541979446 2 1 2
370 0 1 0 12.747675230758302 0.7025669174756661 15.888765341521287 2 3 1
967 0 1 0 -6.983710077053829 11.604356775230626 8.25928070982822 1 0 0
968 0 2 0 -7.632761485105506 11.85393407198612 8.892677221120076 1 0 0
1238 0 2 0 24.981608098027067 5.885207797585913 1.047303787232385 1 0 3
1237 0 1 0 24.915089950643534 4.976863395542729 1.172097872567516 1 0 3
1105 0 1 0 15.160859027301731 4.0182937721029965 14.412872085235392 1 1 3
774 0 2 0 0.7266345951030573 -10.48526574768043 13.642571999823032 -1 -1 -1
976 0 1 0 2.230232919104748 14.942683512046418 5.730396311605641 1 -1 -1
44 0 2 0 19.10306758883179 7.200163522453207 4.171527760814119 2 2 6
659 0 2 0 7.877573657115265 -1.0246187610815376 8.751874225585203 2 1 2
956 0 2 0 4.770617275702106 -1.2529665887011845 3.384794975680463 -2 -1 0
754 0 1 0 14.957958478106843 6.604421746597165 -0.2213627951178359 -1 0 0
471 0 2 0 -8.296384282532824 5.859239281348282 8.245709997330335 0 0 -2
1106 0 2 0 -15.36190487147487 3.663980473142816 15.102402644772333 2 1 3
87 0 2 0 0.6896363901606746 15.79666065728105 4.98735272516369 2 2 1
85 0 1 0 -0.2940466316077197 15.958514534185039 4.945688082721465 2 2 1
171 0 2 0 1.1510982110952994 11.260396096681712 3.0030912455878016 -3 -4 -2
169 0 1 0 0.7239130480292966 12.08845429580075 3.2764034444642585 -3 -4 -2
86 0 2 0 -0.5762505644851985 15.2549917524539 4.3565972260614325 2 2 1
1197 0 2 0 -2.2407062245648968 19.274689680365537 -0.39500997235937524 0 1 2
1065 0 2 0 -7.091438643896341 8.624484212406482 3.8149150278877526 1 3 2
1239 0 2 0 25.60145879241041 4.6186741201670705 0.5910053245078479 1 0 3
1107 0 2 0 14.608192121529775 4.625969403352855 14.933522285648257 1 1 3
1196 0 2 0 -3.6037233816375838 19.556346251432604 0.4633691609813867 0 1 2
1100 0 2 0 16.50185379860236 0.05660464385825037 3.4934704906838814 2 2 1
177 0 2 0 -1.9076524012511626 7.644207417231588 14.146900570789812 1 5 2
523 0 1 0 12.423636205118385 -3.52598375628748 10.838907216930709 -1 -2 -1
1117 0 1 0 -0.031121981888967643 6.264975309585814 6.459635892647391 0 0 1
1118 0 2 0 0.5947005723402636 6.5619844073525435 7.128099444110985 0 0 1
1220 0 2 0 -0.9666933798821153 -7.064330061675834 9.432403187847212 1 0 0
1207 0 1 0 13.57332980437083 7.448756874026156 11.354576184013489 2 5 4
1073 0 2 0 4.118925845393497 0.07456288407838524 -0.07637286040381136 1 0 -1
1119 0 2 0 0.2393678848752092 6.778312469385107 5.670199692753728 0 0 1
1099 0 1 0 16.733359349341484 -0.7857385651800257 3.9639324483700573 2 2 1
665 0 2 0 2.0869920562571336 -8.021486036372021 11.558926695650154 3 3 0
1101 0 2 0 16.27546945071152 -1.5179615089415235 3.5270001447587265 2 2 1
1074 0 2 0 3.9805662702062667 -0.23538279653257055 1.3985979678319178 1 0 -1
1072 0 1 0 3.892217331390628 -0.6342531408847412 0.5640946712041458 1 0 -1
530 0 2 0 12.153147307650574 16.72401668799207 2.6689095836734955 0 0 -1
834 0 2 0 9.226305060250658 15.116236662627058 5.809005605844637 3 4 5
529 0 1 0 11.624928575309522 16.316671776570278 3.389035671003715 0 0 -1
443 0 2 0 11.069429996852973 7.7708888424270075 10.535507681291797 -3 -3 -3
231 0 2 0 -6.327697540124628 3.6844008760108116 5.123107092113826 3 2 2
469 0 1 0 -8.69874826236618 5.01334923020712 7.95939259490126 0 0 -2
1219 0 1 0 -1.6869986789362583 -7.044420317891213 10.111033024897022 1 0 0
512 0 2 0 2.975011955953363 1.9107792880417342 12.05286212167369 2 0 1
147 0 2 0 -11.331623635393044 -8.660764145613697 16.462638028567042 5 3 3
97 0 1 0 -12.585751119849832 6.26422728192801 14.082972617275924 0 -4 0
99 0 2 0 -12.780820533476417 7.203654847828373 14.093443403870545 0 -4 0
1221 0 2 0 -2.24091517198846 -7.8676237099746595 10.102530463157501 1 0 0
470 0 2 0 -9.198455909610455 5.370151896183219 7.22290806531424 0 0 -2
122 0 2 0 21.37857367160574 -2.637898803649718 6.211979859550609 2 1 2
168 0 2 0 11.405011387005136 4.697916735996673 9.347989948806864 1 -2 0
1208 0 2 0 14.30019553668501 6.848513033920497 11.090967913000236 2 4 4
332 0 2 0 1.7109335265560208 6.990272945032483 8.873531242427259 0 -1 -2
1209 0 2 0 13.249152980312555 7.180909640482797 12.234195990047729 2 5 4
1276 0 1 0 5.189244434670357 -5.347419468179104 7.038259657026895 2 0 1
89 0 2 0 -0.8944443972232362 5.401207816100647 1.2952541135209124 0 -4 -1
978 0 2 0 1.9277913269364042 14.051250916453501 6.013639671104133 1 -1 -1
854 0 2 0 0.23652998169222617 -3.9290926928434677 11.649746804148391 0 0 0
1121 0 2 0 17.861719106787376 -3.2095253397971684 6.8893868688630855 0 -1 2
1277 0 2 0 -4.214936695652341 15.819684472082566 6.131417777533863 2 -1 1
88 0 1 0 -0.7543819174380506 6.26758514055048 0.85024730380335 0 -4 -1
176 0 2 0 7.100460983773324 -12.199475010418968 14.100625208517874 1 6 2
405 0 2 0 11.206428491528927 -5.661685657724747 8.721246752515997 2 3 2
472 0 1 0 10.474908606519374 0.09867046657657141 14.231131684809693 1 3 2
1278 0 2 0 5.967699640378867 -5.864591390700911 7.346299786080132 2 0 1
32 0 2 0 11.190862921048353 -3.77662679492288 14.238935907960967 -1 -3 0
859 0 1 0 4.825661818205939 3.480935398728308 0.6858336003261152 1 3 2
861 0 2 0 4.895999224055033 4.351021232365468 0.2973486879469167 1 3 2
254 0 2 0 7.171523972915107 13.691351467365479 1.2264536083650817 0 -1 3
1010 0 2 0 5.810929790759909 5.672373062085503 3.659062762459534 0 0 1
412 0 1 0 12.712612221959045 7.133210338126686 13.952826528064469 0 1 2
1250 0 2 0 9.248093348935804 4.38455016124575 2.6129659521863062 0 0 1
465 0 2 0 -1.5602494431114176 1.2192660483855349 11.001947116736732 -1 -1 -1
464 0 2 0 -0.569215680470009 2.3679296263635656 10.63165568137855 -1 -1 -1
463 0 1 0 -0.9079509404443513 1.8202477843135139 11.36564230902808 -1 -1 -1
98 0 2 0 -12.299584112736984 6.143019739256104 13.182787683031504 0 -4 0
869 0 2 0 17.456275796577067 -7.5173902139853706 13.029845708170663 1 -1 0
289 0 1 0 -3.500409374352996 -3.0977115848690193 15.037858557627809 0 -1 -2
90 0 2 0 0.1483230456667466 6.556542568298481 1.1403063438548589 0 -4 -1
1122 0 2 0 16.79512796635841 -3.617680559941578 5.831244261014927 0 -1 2
1120 0 1 0 17.24476119684549 -3.967604698198221 6.6330369055789875 0 -1 2
868 0 1 0 17.929040609341804 -7.317405000255251 12.228147868252506 1 -1 0
853 0 1 0 0.3056791741879179 -4.684933249925352 11.062825355462492 0 0 0
870 0 2 0 18.54963837023338 -6.580520710618099 12.55887561342024 1 -1 0
1061 0 2 0 19.591981678251216 -8.913425368392147 12.651292525407433 -2 -3 -2
1138 0 1 0 5.704302019739472 11.34742793530758 10.94786374340643 0 -1 -2
296 0 2 0 11.101456247381668 -2.539694863879041 4.591796590177219 0 -2 -1
1216 0 1 0 16.472939848689137 15.450331299083485 -0.37952199329644587 0 3 2
184 0 1 0 13.12093129454969 2.5996304235227927 1.5859155855737157 1 2 0
186 0 2 0 13.17926572352681 3.5319644863954704 1.4259779430282071 1 2 0
375 0 2 0 -7.722382378574539 3.8895990452506304 7.011393782862189 -2 -3 -5
414 0 2 0 12.770993148791822 8.028456268636202 14.281754985523486 0 1 2
200 0 2 0 -7.294018092583665 3.7861385902009452 16.444041321676174 2 1 -2
297 0 2 0 9.684921753295937 -1.8222523396590153 4.428899078234707 0 -2 -1
201 0 2 0 2.001717817211672 19.251113434985452 0.4677069409989921 2 1 -1
121 0 1 0 20.756337516942175 -2.9242039592912668 5.560483638300978 2 1 2
914 0 2 0 13.502245179192197 10.902790450081984 5.422019540811348 3 3 2
291 0 2 0 -3.46409066106541 -2.2922589661017216 14.501354371991408 0 -1 -2
1218 0 2 0 17.123949905476795 15.605190810831367 0.3143839043679597 0 3 2
1185 0 2 0 2.5652163175957003 11.306207122517757 11.41160006365868 -3 -4 -2
199 0 1 0 2.4369101914480416 18.4513035453997 0.18551724966417604 2 1 -1
850 0 1 0 -8.194410156314605 -7.907866422725987 13.753512203629631 4 2 1
851 0 2 0 -7.642534274339303 -8.079434402491739 12.977869878555877 4 2 1
902 0 2 0 -0.9353908821768666 -5.061663119735252 15.22491019660182 -1 0 -3
300 0 2 0 18.436030180537074 2.0914904976412485 1.803852564473471 1 4 3
253 0 1 0 7.3490384921258105 14.234262299539443 2.0446953587156784 0 -1 3
1076 0 2 0 -7.375947218270948 -5.845141635075884 11.500994719166027 1 1 -2
406 0 1 0 -7.385630605348796 13.658594494186223 4.421728475616104 2 3 -1
872 0 2 0 -10.880103847898528 0.1752067667660775 12.271157973201483 1 0 0
407 0 2 0 -6.5756282219843545 14.213527835365731 4.474252348448662 2 3 -1
295 0 1 0 10.460916901194064 -1.8623175131376133 4.978132795106813 0 -2 -1
1274 0 2 0 -14.311776248214024 6.976477961574972 11.919926498156007 1 4 0
71 0 2 0 -7.253435536823691 -0.5198405446158025 8.53789651828023 -3 -5 -2
290 0 2 0 -2.5795498309616356 -3.458495138649406 14.88279471425188 0 -1 -2
386 0 2 0 -7.773070358416799 -6.2475799996659065 14.254072226806603 1 1 0
1009 0 1 0 5.663561550958873 6.595058441003507 3.5702908612873143 0 0 1
1222 0 1 0 6.751238421310583 3.58972178476104 7.28818614458549 0 -1 -3
221 0 2 0 12.704071464636048 10.88789053671258 10.106899076803446 1 0 -2
473 0 2 0 9.67296012429996 -0.2707657746059642 14.55252852946983 1 3 2
170 0 2 0 1.1971069847530893 12.829292359455705 2.836352633452618 -3 -4 -2
846 0 2 0 9.832006037767478 11.140487381873807 1.0970556894692507 -2 -1 0
279 0 2 0 13.919063130316738 -6.903932533412904 9.39249004801 -1 -1 -4
310 0 1 0 -1.2089868652111058 2.923103640849023 15.613684501263853 1 1 1
222 0 2 0 12.12498261518127 12.327060811901982 9.966810984999595 1 0 -2
96 0 2 0 7.615638874402336 -1.9915001994766257 12.243623911084384 2 3 2
635 0 2 0 -1.9457135231961433 0.9601440493941658 7.729149012161869 2 1 1
1182 0 2 0 -1.8669960927562004 17.85777756599676 3.3150766331656785 0 -1 1
1139 0 2 0 4.854582639391886 10.874507488979374 11.124644423673951 0 -1 -2
1048 0 1 0 7.320724856930451 -4.839842900028239 9.743519987892034 -1 -4 -1
1049 0 2 0 6.383519190299148 -4.592719854702093 9.767747274393189 -1 -4 -1
1050 0 2 0 7.732148089592344 -3.9856064272934617 9.776856371754985 -1 -4 -1
852 0 2 0 -9.119070755994738 -8.17792656700089 13.548601957858947 4 2 1
70 0 1 0 23.0283922449432 -0.6917331196812748 8.080929531447708 -4 -5 -2
845 0 2 0 9.322822869492105 9.6741852636523 0.7659797752431312 -2 -1 0
652 0 1 0 22.811595770732573 -2.098310844258636 3.4438343868179153 1 -1 -1
72 0 2 0 22.27458133298244 -0.35767210203706323 8.670364472675155 -4 -5 -2
278 0 2 0 5.464664081548833 14.186008635426607 8.080118717751487 -1 -2 -4
560 0 2 0 0.8100741052116387 -3.813782859089917 16.02571649188299 4 5 3
220 0 1 0 12.141461004174243 11.419566459616489 9.546430975124716 1 0 -2
789 0 2 0 -6.492350953818546 4.818974312009535 12.263125814474321 0 0 0
844 0 1 0 9.326304584268895 10.618225014084237 0.4728995788928294 -2 -1 0
757 0 1 0 22.762798478473822 6.039563629601673 3.4043825291388514 3 3 3
371 0 2 0 11.864787833139602 0.536229182418495 15.601659121543664 2 3 1
1140 0 2 0 5.5418160563514585 12.139478082143889 10.37717964152404 0 -1 -2
277 0 1 0 14.361502597406197 -7.6637648229694815 8.894199909927437 -1 -1 -4
788 0 2 0 -7.2007765582084975 5.671965315919309 11.261373877024488 0 0 0
95 0 2 0 8.176720687643094 -1.8696430639244657 13.686368812238346 2 3 2
498 0 2 0 4.056826929821571 -2.1660875656052365 13.670348263950046 -1 -1 -2
983 0 2 0 -2.2663830636618814 2.7294153663357346 12.729079410932687 -2 -2 -2
189 0 2 0 -5.539684863297956 -2.1031393156919638 9.128951945731371 3 3 0
759 0 2 0 22.6712497230657 6.6504064245167545 2.6877529019710797 3 3 3
966 0 2 0 13.680528560510087 14.415876609758662 7.126526089918445 -1 -3 -3
208 0 1 0 15.47703767299993 17.527527338538665 2.2580566521439693 -1 1 1