LAMMPS data file via write_data, version 23 Jun 2022, timestep = 88621000

2592 atoms
2 atom types

0 31.216999 xlo xhi
0 21.524542 ylo yhi
-0.7614424619284641 32.55716146061813 zlo zhi
-9.212092 0.773287452165464 -11.222470598694965 xy xz yz

Masses

1 1.008
2 15.999

Atoms # full

124 0 1 0 6.1301585829509975 11.376098540341687 11.523529992938549 2 3 0
1389 0 2 0 -8.098580259748312 16.584777772054526 9.328208688018078 1 0 0
1203 0 2 0 13.390451652907391 3.0848584299428197 1.2889317460208636 -1 -3 0
2578 0 1 0 -5.344363628024673 13.898705973008573 3.454318410881177 1 1 1
436 0 1 0 0.6319599194974175 -2.0164103662856276 15.815594841762547 2 -2 0
2409 0 2 0 -2.3215984040996376 15.598038712051125 8.940547056694403 1 -4 1
595 0 1 0 3.2779404649684563 19.4171409485946 -0.7538225578319129 0 -1 0
829 0 1 0 7.604519877517225 6.590902880182927 10.112786870651435 -2 -2 0
1685 0 2 0 3.7286349375690437 18.15369935188767 2.1469068900834096 -3 -2 0
1376 0 2 0 -3.2410212343527682 12.216824063182724 11.48752878160751 0 0 0
373 0 1 0 8.689049150595281 -3.23242512466435 9.989444316709632 -1 2 0
1720 0 1 0 -2.6675561713887546 9.559408467632897 9.6411720934425 -2 -2 0
353 0 2 0 7.684047609820876 15.071864674062429 8.175472658379972 1 1 0
2588 0 2 0 12.40559948729581 0.11400543710179271 -0.7204274106942244 0 1 0
560 0 2 0 4.413319863161467 12.212727661226742 1.6724328721436694 2 2 0
769 0 1 0 7.990333663927551 0.00655034613608807 8.781624282923088 0 0 0
1669 0 1 0 5.15878172388539 12.920139307749682 8.152478984247935 0 -1 0
807 0 2 0 7.71516486946676 3.014921646571787 10.484931546811513 0 3 0
760 0 1 0 2.736788599103388 18.70737517557982 5.698520486917898 1 0 0
626 0 2 0 -3.3503427742106826 12.629148924037498 -0.12605439684298603 -1 -3 0
448 0 1 0 9.947371664138375 9.77471127786128 0.6686220468104795 -2 0 0
1191 0 2 0 -3.006824130960165 18.498821921127085 5.129136907060553 0 -2 0
806 0 2 0 8.086094785234884 1.8881868273788749 11.39631237486108 0 3 0
72 0 2 0 5.267365433331964 7.549842455087257 14.691931809733875 -1 2 0
1148 0 2 0 5.911950567329748 3.717231973953807 9.030465499231255 -3 -2 0
151 0 1 0 1.4158457497868566 16.05590428783346 6.558603356492287 4 1 0
1147 0 1 0 6.15398623300025 3.8221875822767437 9.963235667562097 -3 -2 0
1109 0 2 0 10.194737302841341 2.770747797554776 10.465701871222686 -1 0 0
2480 0 2 0 4.579840636587785 4.499883520642245 14.426930575893829 -2 0 1
1290 0 2 0 1.13800822249552 -1.7378227003815685 5.03243588999091 1 0 0
966 0 2 0 0.20091429858759008 2.1565676632253465 12.47721929754584 2 2 0
1062 0 2 0 -2.9749170202743316 12.41048443630332 5.875196863877218 0 2 0
1528 0 1 0 4.8807055237520816 6.4848093735773045 4.018789836662993 0 1 0
67 0 1 0 3.992944719127606 6.321049524450751 11.224531720122853 2 4 0
1 0 1 0 -0.32760440341241576 15.448629096445284 8.972080784181792 2 1 0
2162 0 2 0 4.88065323344971 0.7169715979304632 -0.4537197017330379 2 6 0
688 0 1 0 -6.506539119919479 12.808741413790546 9.170027704793302 3 -4 0
1567 0 1 0 11.634974723823268 -2.9266553137217084 13.369907937307612 0 2 0
651 0 2 0 11.049291192458835 -0.6463891378807864 10.851552876050455 1 1 0
2517 0 2 0 5.175205197057683 9.331337491406785 0.6206011268999787 -3 -3 1
500 0 2 0 11.885449078938429 1.8577073700602513 15.05069361231571 1 3 0
374 0 2 0 -0.851968840503611 17.51141355017534 10.517952182056856 -1 1 0
802 0 1 0 5.118863144065021 15.990736809798568 5.215086149221529 0 -3 0
1289 0 2 0 -8.212851337422068 18.456421212324475 4.304202890359302 0 -1 0
505 0 1 0 2.0582815658012965 0.2283623102064718 14.993772546491153 -2 0 0
1532 0 2 0 4.3411667586156275 0.24314026374787012 8.902432423612726 2 3 0
2568 0 2 0 7.691613704871914 4.00737619186983 14.101632636104656 1 -1 1
1063 0 1 0 0.678472302864888 -1.956831585803928 10.248557580691458 0 2 0
31 0 1 0 4.94326833694854 0.22692535186401042 10.663856969112805 -3 -4 0
1042 0 1 0 -1.9992659510918211 19.462331002188208 3.689652382775625 0 -2 0
166 0 1 0 0.07181678618326662 1.9485580218685419 4.277769749587898 0 -2 0
762 0 2 0 3.672887830801387 18.553190975630937 5.610120298072937 1 0 0
69 0 2 0 3.057799976769526 6.350419263437341 11.074749841802149 2 4 0
17 0 2 0 -4.890446719689391 20.420389371099212 -0.2484636724987438 0 1 0
643 0 1 0 -4.005473150687787 14.371740381765953 14.958948278580586 4 2 0
975 0 2 0 6.327833629760971 10.327300244265526 5.476256556062871 3 2 0
215 0 2 0 -1.6753861219555723 14.48096597381566 4.729236534982259 4 1 0
1491 0 2 0 3.05205921388396 1.0507541515705399 4.969032513816474 2 -4 0
540 0 2 0 7.087222321486939 4.373686274556961 4.847891070958344 -1 -4 0
1396 0 1 0 6.151906172252572 8.493449867377556 7.990322141043983 2 0 0
986 0 2 0 -3.4806396162172226 7.70583424454447 15.114344439277849 -1 1 0
429 0 2 0 0.3224665541395159 -3.2512219094588355 13.02737436914317 1 2 0
1115 0 2 0 12.56914388592508 -1.6645470799740387 14.185644961666153 2 4 0
1670 0 2 0 4.314484472855136 13.33427529999925 8.084791074658503 0 -1 0
531 0 2 0 0.12102119200760952 6.067783226817537 14.42303952719062 1 3 0
1247 0 2 0 -4.678323436905721 15.184130250403896 11.976029144035879 4 0 0
718 0 1 0 2.2116319029017064 0.011770057181787585 11.83240206334397 0 -1 0
1171 0 1 0 -1.0335767077949662 4.987648330428485 1.0881028027405626 1 4 0
197 0 2 0 -4.467469590634383 11.412730024212795 8.055019975067568 0 -1 0
1060 0 1 0 -3.4541882223078098 12.010053210621233 5.134508323971365 0 2 0
1181 0 2 0 -3.0562291214576014 10.083852318055989 12.008395504265087 0 -2 0
1136 0 2 0 10.153806429915136 5.295207824973014 7.940719476593722 -1 -1 0
270 0 2 0 -1.4204620431376371 8.133029183098547 9.185936941079017 1 1 0
1324 0 1 0 -1.7682876807186418 9.62824864198507 5.133558932408453 1 1 0
397 0 1 0 3.6289524315289006 -3.357170760288427 12.619437635171384 1 2 0
1569 0 2 0 11.166201880633244 -2.5193738875324354 12.643138793222004 0 2 0
1264 0 1 0 5.4633567802508916 13.059832831697037 3.0180721326594044 3 1 0
135 0 2 0 4.758853175268546 19.88294030121796 2.1464465078019823 2 1 0
1180 0 1 0 -3.5989222738458366 10.761241954533478 12.324958684487349 0 -1 0
606 0 2 0 4.741029246541154 3.5472433620827304 7.309594507205508 0 -1 0
530 0 2 0 0.14591676580185586 7.15216538574785 13.29627917385855 2 3 0
126 0 2 0 5.487788196481168 12.023669995698771 11.692190801018835 2 3 0
770 0 2 0 7.91850414990388 0.6477670334705201 9.520728557394195 0 0 0
998 0 2 0 1.1995629048006433 11.032755774303848 10.05583680258112 0 -2 0
1116 0 2 0 13.637172726762191 -1.5394171709445574 15.24764339597111 2 4 0
1159 0 1 0 12.006254033143572 0.674764195279947 3.533899135901992 2 4 0
924 0 2 0 9.792713266479305 3.1551770301447934 13.794463305424326 -2 0 0
1696 0 1 0 9.271744148419014 9.848910378014025 12.489431417930941 1 4 0
414 0 2 0 -0.14897795284409637 12.27969342709993 8.444039346844407 1 1 0
316 0 1 0 11.053237528488282 3.5036410272202825 7.034467509202589 1 1 0
517 0 1 0 2.791651254607091 2.7066583224765766 10.738952007603778 -1 -1 0
1043 0 2 0 -2.6186674229372535 19.061866636326922 3.027838512390474 0 -2 0
1012 0 1 0 -1.3616706784266512 20.50856928523161 0.3044842521516484 2 2 0
662 0 2 0 2.559076956735833 3.2335138286233427 2.003200204135877 2 1 0
682 0 1 0 2.6418026712663862 10.90277637034747 6.8311379831431305 -1 -1 0
1064 0 2 0 -0.20699683615346465 -1.5056938678979477 10.215643505740587 0 2 0
836 0 2 0 4.311543091340816 -1.5661818377767136 10.019400560964863 4 0 0
546 0 2 0 -2.978154207642748 3.8217055511421423 13.9201524739322 -1 1 0
167 0 2 0 -0.08447875923840399 2.915537066813622 4.005628400561903 0 -2 0
1601 0 2 0 -6.775198540162206 12.511335824346315 12.484314466410037 1 0 0
140 0 2 0 1.3642285251101336 1.6769287836471487 2.96610631382096 0 0 0
2566 0 1 0 7.709605608793311 3.3910847893183975 13.321481368973156 1 -1 1
706 0 1 0 4.248627260305248 6.468771780424011 0.15294148528483376 2 5 0
649 0 1 0 10.43000197711859 -1.1291193382714404 11.421818470745311 1 1 0
108 0 2 0 0.8707055839064181 14.623943325446781 15.372097357093644 3 1 0
1119 0 2 0 -0.5160947009001021 4.943442035126406 4.14793856502455 1 -1 0
1411 0 1 0 12.947200360556609 -2.9849469176467585 9.18080947476826 0 -2 0
1697 0 2 0 8.328289617111507 9.713375781326867 12.234461889806822 1 4 0
653 0 2 0 -2.6472762712199005 12.07420074266386 3.4625317758222662 -2 -7 0
982 0 1 0 4.234338420423579 -1.7129176862518802 14.517547928310686 0 -2 0
920 0 2 0 -5.330275168429049 17.703303075561852 8.648605729455982 0 -6 0
1173 0 2 0 -0.255325541636905 5.219083143644578 0.5338131625521012 1 4 0
200 0 2 0 0.9409469139842482 -5.022435631449731 14.153223856684134 0 2 0
1100 0 2 0 8.080477312782932 11.228690983937593 4.590827008711535 0 1 0
50 0 2 0 -0.744931814393289 5.2454611311634025 12.464058656284429 0 -2 0
32 0 2 0 5.599497332815006 -0.42607192943961847 10.892753224718119 -3 -4 0
1128 0 2 0 2.4906795779609743 -0.37561241811599855 8.306337732274262 -1 0 0
1259 0 2 0 -4.4147973001976455 16.959899559398185 1.786751891089942 0 0 0
509 0 2 0 4.927612632702205 5.4166322187908955 8.12016713160164 1 0 0
313 0 1 0 -1.7365858657551387 6.67378726399896 4.1898728105036795 2 2 0
1397 0 2 0 7.079437489128228 8.658418100887019 7.674273370283201 2 0 0
852 0 2 0 -6.0934510800317785 15.768670329492764 10.01429428953003 -1 -1 0
428 0 2 0 1.880221072632126 -3.4480649763227813 12.82468551625241 1 2 0
575 0 2 0 8.892190169236832 5.0273834184705954 5.103877937888089 1 -1 0
1274 0 2 0 -0.6586476414496047 1.622720470422156 8.734001898216777 1 2 0
601 0 1 0 12.194531870008575 4.657114284754222 4.8891097144805356 -3 -4 0
1234 0 1 0 9.29429146534133 5.564850981532466 12.030692802165195 -2 -2 0
893 0 2 0 0.9701199629915465 11.046585311654736 15.252456494036373 -2 0 0
258 0 2 0 9.604266660722867 -0.3878097113882202 14.24570726979324 4 1 0
1235 0 2 0 9.381219057900354 6.162512598667553 12.778880088454567 -2 -2 0
710 0 2 0 7.865370159803857 14.791776056248613 5.697484457393132 -1 -1 0
1664 0 2 0 13.191393516811647 1.0053033393250352 5.13403846066262 -1 0 0
1220 0 2 0 2.4168585544920194 8.98015455883137 0.5627076853493069 -3 0 0
1084 0 1 0 -1.4948326458402792 1.8676320332227085 6.718202388874028 0 0 0
234 0 2 0 1.3016312270081662 -1.2713267325422706 8.68692428561009 -1 0 0
54 0 2 0 5.4448875579451315 17.692665406847365 4.660137053301613 0 -3 0
2366 0 2 0 6.187556658214414 6.157579441216306 0.5045282513354352 1 2 1
943 0 1 0 7.678971850002157 11.038347156191513 1.519664378540463 -1 3 0
1053 0 2 0 6.476322630945109 0.18526449288273827 5.388219480985392 1 -3 0
598 0 1 0 -0.3359980519325941 13.183594076119237 4.93670286697115 -1 -5 0
1024 0 1 0 1.2036462070331122 6.428274826922831 5.465794054181448 4 -1 0
449 0 2 0 9.18698582282435 10.335944269896526 0.8496376180928489 -2 0 0
164 0 2 0 7.334026695135839 -2.132605151429644 11.31556108024825 1 0 0
953 0 2 0 3.4891684637921103 -1.238317088820171 5.448151743582076 -1 1 0
1233 0 2 0 -0.93266539170555 12.650232737791292 15.215920412543293 -3 -1 0
856 0 1 0 10.556417871975537 10.085296115303235 3.269677175303767 0 1 0
1256 0 2 0 0.9817894827263866 0.6524411042155522 5.042019848578511 -2 -3 0
2479 0 1 0 5.0591128972665675 4.5539487464988095 15.30883868311065 -2 0 1
1520 0 2 0 -1.3229182718729993 12.761338210968042 11.255577329607673 1 3 0
1597 0 1 0 7.816929709965977 -2.9356376407858424 15.40418072448897 1 1 0
392 0 2 0 9.725975642018605 2.7755560763496705 4.262402007440598 1 3 0
1236 0 2 0 8.637244096694113 5.9392849448445535 11.436144439084542 -2 -2 0
1506 0 2 0 -0.7639590184946128 0.4842215819924762 15.606680006488958 1 1 0
1614 0 2 0 5.905090023376796 8.558879421995961 12.106787951364266 0 1 0
996 0 2 0 10.931650459108733 -3.5030220631657523 15.147362508283187 4 2 0
1612 0 1 0 6.803708214858068 8.695848282389752 11.689032126855016 0 1 0
2439 0 2 0 1.9168153421400904 19.00865245087397 0.40257326867293375 -2 1 0
677 0 2 0 15.20097173510234 -0.25115595252488854 0.49031958735280123 1 0 0
683 0 2 0 3.3216912829744683 10.593253706969595 7.454031264811418 -1 -1 0
721 0 1 0 0.7513981596906907 1.8344947046897322 -0.4231110880015414 1 2 0
413 0 2 0 -1.4794325202316854 12.554257020431072 7.997928421050101 1 1 0
391 0 1 0 9.889819206464296 3.6981852669844137 3.975331446901774 1 3 0
1458 0 2 0 0.3384506880402234 8.961056105003198 7.389068009477079 1 0 0
1126 0 1 0 1.5432919833026268 -0.4831762127276087 8.130954833709525 -1 0 0
216 0 2 0 -2.0794956714468014 15.990947939041545 4.554114187768157 4 1 0
385 0 1 0 9.935978047965364 7.861950786804666 4.64115898305804 -1 -3 0
766 0 1 0 1.5098196762064349 9.155017107418812 12.646891844622457 4 2 0
1051 0 1 0 6.431656076308819 0.6554096903711055 4.513833365003093 1 -3 1
375 0 2 0 -0.6718520238667797 18.004261522436558 9.07606678527718 -1 1 0
175 0 1 0 -3.7181428802816847 10.688808470412544 15.066711241954888 1 -1 0
1137 0 2 0 8.924701753404996 5.765363109906785 7.158916147378936 -1 -1 0
1649 0 2 0 2.5635344498926607 4.237027977247829 4.302008508796218 0 -7 0
137 0 2 0 8.194980847732637 12.13010217468765 8.206689413661914 2 -1 0
141 0 2 0 2.443227929672457 0.9204632309677296 2.410419290839543 0 0 0
2438 0 2 0 1.2880509638196405 19.141698688821155 1.9046303757335203 -2 1 1
860 0 2 0 7.647980718261723 7.701887643101317 2.997697098849526 -1 -1 0
2557 0 1 0 -7.909495330667156 17.367458445733057 7.206728669283102 1 0 1
929 0 2 0 -0.20986829800622003 9.393245802347403 3.623515731945421 0 -2 0
145 0 1 0 9.315909542934795 13.475167938714257 0.17275166048132684 -2 -2 1
2579 0 2 0 -5.158976072784645 14.750504001598328 3.082329794431784 0 1 1
290 0 2 0 5.1961979693818865 12.37274363329982 6.246346234778802 -2 -1 0
954 0 2 0 -5.619763279849202 18.80520959260295 4.828659845817584 -1 0 0
41 0 2 0 15.010352119672387 -1.771422029727877 7.701972741866474 -2 -1 0
370 0 1 0 8.993374071782691 5.231541347145649 -0.6659556472931097 0 1 0
1224 0 2 0 0.05190328261004398 3.789345169151223 7.259664681323185 0 -2 0
1650 0 2 0 2.3370696023943536 4.996811731209979 5.478592105809143 0 -7 0
327 0 2 0 0.5349073903058726 5.729853202811782 11.124664436521128 2 0 0
1529 0 2 0 4.705904254921727 5.570378444872483 4.410698789253425 0 1 0
922 0 1 0 10.680330782459224 2.9441160211398545 13.449219622677958 -2 0 0
1381 0 1 0 12.26011874416525 0.4485582146689384 10.039428954874673 -1 1 0
93 0 2 0 0.9039486862291825 3.050585860448134 14.380964797956569 1 1 0
317 0 2 0 11.875894120682743 3.647737719850906 7.562810556643758 1 1 0
16 0 1 0 -5.136605084702594 19.512399399981728 -0.20585393810969643 0 1 0
1568 0 2 0 12.292441093817526 -3.501039157489843 13.013889842985018 0 2 0
92 0 2 0 1.918698505457218 1.9046797343518467 14.272848243167596 1 1 0
752 0 2 0 9.689748854774502 3.892536770847162 2.0216830158932266 1 6 0
1014 0 2 0 -0.5368092150674822 20.120679263398667 0.6781528288159815 2 2 0
211 0 1 0 6.327869477698085 13.500669458847728 15.244698328947692 0 1 0
1217 0 2 0 4.568412093963131 7.759069298127498 5.502738686006314 0 1 0
318 0 2 0 10.795631923333449 2.561621600324878 7.1823200111090975 1 1 0
133 0 1 0 4.010328070814064 19.780703259967538 2.765382744295862 2 1 0
1598 0 2 0 8.681043287114866 -3.2517217874851565 15.76951586660639 1 1 0
98 0 2 0 6.586406269642978 0.4540338204190082 14.963388144810134 -1 1 0
648 0 2 0 2.6830265881217494 4.140128843754794 13.327996185837845 1 0 0
139 0 1 0 1.9198462079526475 1.6877068126390367 2.187965533763862 0 0 0
156 0 2 0 -2.9244751114648535 15.969906799817501 10.966688156040318 -1 -2 0
1161 0 2 0 11.049925770823641 0.6025034777022749 3.6138449537820767 2 4 0
301 0 1 0 9.990299304234492 0.7991494587040857 6.929721726061545 -1 1 0
771 0 2 0 8.238128961872297 -0.8314020431462823 9.244246340842944 0 0 0
412 0 1 0 -0.5870092384401635 12.965677755965501 7.936634706937619 1 1 0
37 0 1 0 0.42442336421727134 16.380711279755616 3.8676210835267053 1 -1 0
400 0 1 0 8.239191222737112 12.316542105543576 9.981874843204842 -1 1 0
988 0 1 0 5.344922243710698 2.41220131309582 12.171472934890616 1 -2 0
5 0 2 0 10.3473489823291 -2.2478482707655023 8.082490427874578 -4 -4 0
1375 0 1 0 -2.9225296450628204 12.739056353595974 10.711372829058764 0 0 0
163 0 1 0 -0.8054993579455646 17.176982653402295 0.4955334790732029 -2 -3 0
1117 0 1 0 0.10665797619958636 4.531881217501487 3.505431039581034 1 -1 0
983 0 2 0 4.661886782019857 -2.1004713253300857 15.38756437020643 0 -2 0
342 0 2 0 -3.913527596232758 15.051836685331677 5.902972979318333 1 -3 0
684 0 2 0 2.624433189689368 11.928765192024958 7.018560717891995 -1 -1 0
107 0 2 0 10.077613975849328 -5.360326757851685 15.838117881715704 3 2 0
399 0 2 0 3.919470630770228 -4.2650509109764645 12.758687936517829 1 2 0
2516 0 2 0 4.821367849849817 8.10966921361702 -0.2789661939600558 -3 -3 0
831 0 2 0 6.933724912937468 5.894747225769571 10.232559182685096 -2 -2 0
1026 0 2 0 1.6109204274574793 6.665778772440721 4.656262200651632 4 -1 0
997 0 1 0 1.3291548878788866 11.982997465582848 9.909905637208693 0 -2 0
1721 0 2 0 -2.010429362579635 10.249268182650281 9.509368295562998 -2 -2 0
1553 0 2 0 9.522076598464738 9.363930616494473 8.576092525387038 0 0 0
1160 0 2 0 12.196744257664742 1.345422164813909 2.8648419646952386 2 4 0
723 0 2 0 1.207495957996433 1.9701222351668761 0.4115459977569975 1 2 0
1398 0 2 0 5.618478810534925 8.598188331240046 7.19802398775828 2 0 0
870 0 2 0 -4.171825862311538 7.971500944726454 6.8657906233630115 -1 -1 0
2589 0 2 0 12.626351908218759 1.4668308657627551 -0.13638166054899747 0 1 1
604 0 1 0 5.487907714488257 4.159317383706339 7.38274071775051 0 -1 0
1123 0 1 0 2.0223747497098694 12.8009741654445 3.5395131490053817 -2 -1 0
199 0 1 0 -8.348763762404143 15.73984238734395 14.759330332854475 0 1 0
1577 0 2 0 5.0735676544689845 0.2586831523207218 1.637111215588682 1 1 0
999 0 2 0 0.8469773114419319 12.403766509752604 10.631318392481926 0 -2 0
202 0 1 0 -2.2684778152897884 4.238304507639631 9.404217055773413 0 3 0
1213 0 1 0 9.353482978183962 7.430820351039582 13.949493517098263 1 -4 0
1413 0 2 0 3.153112950967203 17.814840787823524 9.34839267895382 0 -3 0
654 0 2 0 -2.9640209381891687 10.88356638122648 2.5349413635716616 -2 -7 0
928 0 1 0 0.22677926269164306 8.571087827376502 3.279672877178772 0 -2 0
1249 0 1 0 -6.005643555811285 12.363111068241896 15.473598329156278 0 -4 0
154 0 1 0 -2.6589513838853 15.382279075364373 11.69070392078855 -1 -2 0
574 0 1 0 8.239247164788898 5.658415570195259 5.4604964313243 1 -1 0
2408 0 2 0 -2.8774931042238867 16.955944153829403 8.639873162062063 1 -4 0
1219 0 1 0 2.3269245507912935 9.558545437145396 1.3776695928610443 -3 0 0
1576 0 1 0 5.871072797476729 0.5783238147769737 1.1360417589048872 1 1 0
1377 0 2 0 -2.9118835832428376 13.683919432556733 10.988597149482576 0 0 0
444 0 2 0 8.12293971015533 6.000270474385611 15.094967166920748 2 -2 0
624 0 2 0 6.334264419996299 10.731130384796858 13.313505398592138 -2 -3 0
1326 0 2 0 -2.5247743050306792 9.176950494077172 5.518725419102346 1 1 0
387 0 2 0 9.955681823950407 7.395521037532647 3.785386723691208 -1 -3 0
1519 0 1 0 -0.4770694420027442 12.800273547388112 11.74848945277521 1 3 0
1494 0 2 0 9.428108934782067 0.7584490974989366 5.330302367706775 0 0 0
965 0 2 0 -0.19818131803835654 1.7180954698323463 11.170258193611954 2 2 0
1382 0 2 0 11.862570432992442 1.2750961001073184 9.730449973587485 -1 1 0
1052 0 2 0 5.506592278104138 0.9791465360522549 4.460339393823984 1 -3 1
230 0 2 0 -6.700361946682549 19.43786725928271 0.7139417551067189 1 -2 0
1025 0 2 0 1.6733635209640574 6.866805188030127 6.162296393402574 4 -1 0
646 0 1 0 3.5341386818925273 4.358239501177142 12.945799722702606 1 0 1
176 0 2 0 -3.516835714519975 10.654332940002725 14.151218241794126 1 -1 0
229 0 1 0 -7.372346795237625 19.451087873397263 1.437224882203315 1 -2 0
529 0 1 0 -0.38822082038474925 6.399513085285068 13.660077000421339 1 3 0
939 0 2 0 -1.5697440420130566 8.493875999925903 13.528101300953905 0 -2 0
506 0 2 0 2.8605837044572353 -0.3614985612855479 15.027432976048816 -2 0 0
30 0 2 0 11.655054474403707 5.800871536014138 0.05841482832902711 2 1 0
964 0 1 0 -0.6044882820171464 1.8643729961183153 12.032498185752177 2 2 0
56 0 2 0 3.0616784839468023 9.521173065310755 9.725356581278831 0 3 0
1162 0 1 0 -1.4702777536023313 6.317886097884104 6.844932834937073 -1 2 0
1216 0 1 0 4.116274267507428 8.41838534312238 6.100486635156573 0 1 0
671 0 2 0 5.696905462676459 16.998546424564477 1.050767335310417 3 1 0
544 0 1 0 -2.8077317013493257 4.525181184472132 14.595594158079608 -1 1 0
2269 0 1 0 6.820366329577928 -1.3843641229112569 11.77244821716427 1 -1 1
652 0 1 0 -2.7280030857015354 11.828384317654965 2.5153113861430976 -2 -7 0
326 0 2 0 0.869527225360045 6.74963896763354 10.06979937525228 2 0 0
892 0 1 0 1.5687605939010723 11.081378172195638 14.455624560383939 -2 0 0
1221 0 2 0 2.907570528411073 10.321172672293114 1.2151109739353494 -3 1 0
450 0 2 0 10.58920087900969 10.432540613824337 0.3293971586823785 -2 0 0
850 0 1 0 -5.39428448919181 15.172831614167713 9.927158600495988 -1 -1 0
1388 0 2 0 -7.642384076972748 17.504043914194764 10.36346948831148 1 0 0
1722 0 2 0 -3.4150646840964805 9.906698067008477 9.117288811964563 -2 -2 0
868 0 1 0 -4.046139191526643 8.743993482715213 6.31584220701198 -1 -1 0
2367 0 2 0 6.45993754777725 4.7542678384767205 1.2219733699670463 1 2 0
1156 0 1 0 1.5361298766511469 5.151570448246871 -0.5720482927953386 1 6 0
2279 0 2 0 -1.0568261244668 11.473639227614223 1.7906254010894704 3 4 1
268 0 1 0 -1.0282225914294092 7.241050453877444 9.375288095820034 1 1 0
6 0 2 0 11.64365656278581 -1.7172195697309875 8.572211902635948 -4 -4 0
1250 0 2 0 -6.343020937488391 12.675659027166713 14.61552882465213 0 -4 0
138 0 2 0 8.506186467645378 11.104857766759089 7.094294678727549 2 -1 0
485 0 2 0 7.357439459586149 15.155723048374352 1.8562171194886865 4 5 0
332 0 2 0 -3.593007184782948 6.054401463518441 13.846136570627493 -1 0 0
1562 0 2 0 5.45048397741588 15.714926751736229 9.796405615204058 -2 -3 0
1243 0 1 0 3.0403959758550565 15.331181714319559 3.6516060043694765 1 -3 0
401 0 2 0 7.510707315590048 11.872907651668068 10.530749150418355 -1 1 0
2567 0 2 0 8.237047641237986 3.8780104312953805 12.653765817793994 1 -1 1
1288 0 1 0 -8.58698848782139 18.93563811056982 5.022422074179198 1 -1 0
801 0 2 0 -6.058249780107668 16.94670858349675 3.0678674987026913 3 -3 0
1493 0 2 0 8.339231963408748 0.6817937835843328 4.253830163231565 0 0 0
1099 0 1 0 8.266021536596408 11.90908937488559 3.9157838476966242 0 1 0
619 0 1 0 3.9109811651150483 10.861097791409328 15.644974642188416 0 2 0
799 0 1 0 -6.492863772920119 17.353659386627843 3.811453478687932 3 -3 0
362 0 2 0 0.09232711091660396 19.54889213659878 3.7643030956510577 2 2 0
1408 0 1 0 5.865193077301299 3.2456403982535065 1.873372654168993 1 0 0
221 0 2 0 -2.5166345126000005 8.593170904649302 3.1220821681287654 1 0 0
427 0 1 0 1.1587108610070251 -3.2463506735690117 13.494050111573129 1 2 0
1006 0 1 0 -2.4624297002438946 9.263935077430709 -0.40009773487980854 0 1 0
1242 0 2 0 5.948467493307152 9.013859755362528 2.4369005902997976 -2 2 0
352 0 1 0 7.09786498007552 14.733031233154195 8.810518813433307 1 1 0
70 0 1 0 6.171645565193994 7.26551644744597 15.02416023386246 -1 2 0
363 0 2 0 1.5119143371983772 19.173307975418723 4.345143890821271 2 2 0
576 0 2 0 8.542580290600554 6.563760462782884 5.173124129919463 1 -1 0
627 0 2 0 -3.776136969435064 12.70095090137874 1.271259870629199 -1 -3 0
315 0 2 0 -2.670638646832911 6.5815760646829045 3.970197037228478 2 2 0
1552 0 1 0 9.278196054244225 8.83462135299299 7.843505794022578 0 0 0
1253 0 2 0 -1.4129094951396537 13.847357799918557 2.2008617934308394 -2 -1 0
433 0 1 0 3.2053899624774065 2.8849224745871704 7.784636526121933 1 -3 0
348 0 2 0 1.701193590694706 16.365986562694804 10.822587315468327 0 -1 0
622 0 1 0 6.320007002648635 10.48873007216169 14.267846637173799 -2 -3 0
53 0 2 0 5.205758377175604 19.12060397804083 4.120519652349112 0 -3 0
1241 0 2 0 5.825223740983428 10.444670175978919 2.1728524014527557 -2 2 0
678 0 2 0 6.57477668077893 19.79061691781335 0.4018730794322629 1 -1 0
559 0 1 0 4.003796857637729 11.887730358600734 0.862377568899038 2 2 0
303 0 2 0 10.612043363050162 0.12762134512727252 7.145994423719416 -1 1 0
2515 0 1 0 5.014163798953502 9.0724233164008 -0.3458454066128506 -3 -3 1
1190 0 2 0 -4.09550770488648 17.8954681734461 6.097050662119693 0 -2 0
2316 0 2 0 8.137898548150954 6.137279730528314 1.7514276074091946 -2 -2 1
1114 0 1 0 12.782738954751974 -1.1693154948312197 14.949873492783256 2 4 0
3 0 2 0 -0.5205636403457354 14.542351643122023 8.742591376458366 2 1 0
767 0 2 0 1.2640122887710803 9.90007757867808 13.25135174088654 4 2 0
1149 0 2 0 5.668933507380248 3.2946774009594364 10.587008626282747 -3 -2 0
599 0 2 0 -0.14234314277551532 12.793876503052813 5.747565210625689 -1 -5 0
507 0 2 0 1.3107158026400278 -0.3749819546296953 15.231966344928239 -2 0 0
709 0 1 0 7.310637111714348 14.006967196575186 5.685328288890178 -1 -1 0
556 0 1 0 6.475738209906524 -0.8471803749813669 6.739897066103274 -1 0 0
162 0 2 0 5.615179132691258 12.325135982659617 -0.15130469864931428 0 3 0
538 0 1 0 6.466325401004382 3.5988205333537486 4.726643436209053 -1 -4 0
213 0 2 0 7.150832964940388 13.69848092447198 14.845974163931588 0 1 0
341 0 2 0 -4.473146917170306 15.645683586208595 7.232720658503781 1 -3 0
2352 0 2 0 13.513359639526898 -2.217093277455885 10.811914451649928 2 2 1
1648 0 1 0 3.036027373249363 4.482960151959144 5.088814579958907 0 -7 0
1135 0 1 0 9.476882269649611 5.970335100319209 7.9187029112502 -1 -1 0
1533 0 2 0 3.8232600159082812 1.0811943276771916 7.788006535955478 2 3 0
990 0 2 0 4.6610241045888126 3.042283809081262 12.358042047976381 1 -2 0
155 0 2 0 -2.0601411400572633 15.919877242210305 12.25713923367571 -1 -2 1
439 0 1 0 4.318000545144074 15.900880980512557 7.792583844061026 1 -1 0
188 0 2 0 2.429641833007825 9.385966199087193 3.3811310235557412 -4 -6 0
46 0 1 0 13.779951880477158 -4.358533078523922 13.066613835225521 2 1 0
2365 0 1 0 6.882119707461863 5.55856633925751 0.8445091062863437 1 2 0
2351 0 2 0 13.527543607467935 -0.7735357351859187 11.240092138389457 2 2 1
134 0 2 0 12.739487088046932 -0.9510937091598064 3.054343366610715 2 2 0
938 0 2 0 -0.6385348094096355 9.0645960864346 12.282819365251605 0 -2 0
780 0 2 0 -3.1393875243192735 7.231591621909897 11.786627095263105 2 2 0
214 0 1 0 -2.433646695236344 15.097268948384606 4.559842452135424 4 1 0
441 0 2 0 3.543536516313244 15.407331008961 7.535448143702544 1 -1 0
1255 0 1 0 1.5931355702040482 -0.011997521902315178 5.4084068642013 -2 -3 0
269 0 2 0 -1.1898255703722271 6.642496223072303 8.65195043103253 1 1 0
623 0 2 0 6.131944738018577 9.468474855001258 14.267308230443973 -2 -3 0
39 0 2 0 0.4093428154593994 17.357639754082808 3.6209311111559677 1 -1 0
1260 0 2 0 -5.26261904859336 15.86103284055817 1.1831749490373034 0 0 0
2437 0 1 0 1.086657139655134 19.05380491455641 0.9319320749579232 -2 1 0
1129 0 1 0 2.2514907759577008 6.812716735690237 2.77582350717941 -2 -2 0
835 0 1 0 3.933914264035826 -2.430892339883628 10.105862163463142 4 0 0
1600 0 1 0 -6.996144607882333 13.265896548670025 13.04989575419877 1 0 0
647 0 2 0 -5.833798662924873 14.685150396090112 12.900484099675245 3 0 1
1061 0 2 0 -3.016609515262732 11.138006892605368 5.157924461777064 0 2 0
2342 0 2 0 3.2348107347055657 12.770975841484901 10.560601232543291 2 -2 0
676 0 1 0 6.118194564881214 20.4387528929757 0.9839086067785834 1 -1 0
302 0 2 0 9.339636940354154 0.7126417880247637 7.641903761454438 -1 0 0
876 0 2 0 3.0378138685523717 14.128811708003852 14.171928844035016 0 -1 0
944 0 2 0 7.72242071980266 11.568628231367372 2.304785976175346 -1 3 0
4 0 1 0 10.946370109243423 -1.51296187445622 7.933887990856409 -4 -4 0
1231 0 1 0 -1.1452336946739665 13.225627272646003 14.422217901631871 -3 -1 0
987 0 2 0 -3.589172462681921 9.031749201599943 15.78762308981231 -1 1 0
803 0 2 0 5.748467170574135 15.255143653062575 5.210060838112044 0 -3 0
1163 0 2 0 -2.1201542287332096 5.612484084180986 6.7145306993010925 -1 2 0
1152 0 2 0 3.434023498557608 5.142928093794708 12.361293964109073 1 -2 0
1265 0 2 0 6.267174257282625 13.443857304686716 2.8357988547693975 3 1 0
894 0 2 0 2.5007318681541824 10.98166900322161 14.778171061358545 -2 0 1
57 0 2 0 1.9597322478706314 8.504779978582883 9.219653195995157 0 4 0
887 0 2 0 -3.1675655613853193 7.422390252389055 -0.08721518864327527 2 0 0
1124 0 2 0 1.6672810337727395 12.99392446216266 2.615400769550157 -2 0 0
125 0 2 0 5.690629107229983 10.655657299801968 10.953313227306474 2 3 0
1098 0 2 0 3.10373771339955 8.148486346393488 13.37138795048221 0 -2 0
861 0 2 0 6.401175345607847 7.3422941926235215 4.018084891401407 -1 -1 0
196 0 1 0 -4.8503597475436075 10.549945695477026 8.073871959650345 0 -1 0
1490 0 2 0 3.4681578239239164 2.416854102118847 5.313235295510306 2 -4 0
1223 0 2 0 0.49289435273214427 4.098326218643541 8.681934916626542 0 -2 0
602 0 2 0 11.8979700696036 4.193985854778411 5.666130101157017 -3 -4 0
1713 0 2 0 -1.6903675446729194 18.06469804648101 6.843781909300922 1 0 0
830 0 2 0 8.266071339940797 6.284609016604602 9.466876703203749 -2 -2 0
1613 0 2 0 7.000873096982238 7.964935039285198 11.118409729460607 0 1 0
361 0 1 0 0.9308836921573795 19.12765610679833 3.550520085791706 2 2 0
837 0 2 0 4.102460654737079 -2.6502489997165766 11.048406109375048 4 0 0
805 0 1 0 8.363581955593682 2.293929218123331 10.586189706089014 0 3 0
160 0 1 0 6.447564802798191 12.419325525944522 -0.6481292557150473 0 3 0
1531 0 1 0 4.050435063055065 0.16335756352710318 7.986037219077533 2 3 0
523 0 1 0 8.913200397042155 0.6217464196249978 12.636033306684036 0 2 0
99 0 2 0 7.291862121077378 -0.8807579593139447 14.842817668867905 -1 1 0
1554 0 2 0 9.61098532429326 7.911960879863006 8.07496476771181 0 0 0
393 0 2 0 10.793432482247065 3.9974181759501333 4.149206348750777 0 3 0
1195 0 1 0 3.679225828263544 -0.6291248861201153 2.659802770263556 -2 0 0
68 0 2 0 4.409345648532471 6.2629154255405695 10.385565059485355 2 4 0
605 0 2 0 5.991286061641893 4.110302470863367 6.573954461415735 0 -1 0
1182 0 2 0 -4.513202743491226 10.65628965156399 12.022681705124244 0 -1 0
510 0 2 0 5.399252088453315 6.843474779645723 8.417704539034494 1 0 0