LAMMPS data file via write_data, version 23 Jun 2022, timestep = 213328000

2592 atoms
2 atom types

0 31.216999 xlo xhi
0 21.524542 ylo yhi
-0.7790905279666482 32.57480955102752 zlo zhi
-9.212092 0.7741066358288823 -11.234359146166401 xy xz yz

Masses

1 1.008
2 15.999

Atoms # full

2545 0 1 0 11.605625030560459 -3.7417390410305145 15.009440368117543 4 0 0
170 0 2 0 -1.8396337129929903 10.063502601414182 5.6609524123658455 5 2 0
1125 0 2 0 -1.3690052535316939 2.743748132293419 12.354639016427182 0 4 0
535 0 1 0 1.753305535655896 2.4438584141206707 7.718866021009934 -3 -6 0
80 0 2 0 0.5519936094737654 16.70202242319922 0.6273019597608092 0 0 0
2579 0 2 0 -0.3349224289885389 3.0114581665193083 -0.0957027685273979 0 4 1
1383 0 2 0 -3.494790486579234 19.266349593210876 1.6192369809497058 0 -1 0
563 0 2 0 11.524806599339545 -0.35312283267885025 9.383166112956083 -2 0 0
913 0 1 0 -0.5473881656789273 10.442665236168324 11.056020411634304 0 1 0
160 0 1 0 -3.8465147112032136 7.235905448070248 7.742546000273629 -1 2 0
105 0 2 0 2.5703087736064734 13.741182124632005 14.116399883695989 -3 -3 0
578 0 2 0 2.847139232331181 -4.445847994373154 13.240388613564498 -2 -8 0
550 0 1 0 5.354432651900883 16.70715958647051 3.558736907916681 3 1 0
617 0 2 0 -6.545249194601399 14.802563419036964 9.547482428491998 5 -1 0
233 0 2 0 0.8154530712421542 17.541283891004745 2.3902884443169197 -6 0 0
64 0 1 0 2.3331713343318534 12.118868630132187 3.6616841410507863 3 2 1
1673 0 2 0 2.5505533499357003 19.01956230764221 -0.5656441301937778 -3 -1 0
2257 0 1 0 3.5567806560020285 4.675503782956696 9.82962259414832 3 2 0
802 0 1 0 -0.7269913391179361 14.099062880946864 8.707678882794328 -1 -5 0
1169 0 2 0 2.6096203240791254 14.947153057624927 5.461912394266361 1 3 0
1489 0 1 0 13.222934153930728 -1.8041072645535758 4.887306870228632 1 -6 0
907 0 1 0 3.82335366122762 -2.249198523059786 11.215471253978349 -2 2 0
2221 0 1 0 -5.748280469029795 12.24018822774319 3.8587430388006645 0 -5 0
132 0 2 0 3.787587781020854 9.885585602532714 0.07352207624104767 3 1 0
2532 0 2 0 7.50142658492513 11.742315255424222 14.914013036960247 0 1 1
140 0 2 0 -2.8180589323596155 11.17991553876727 2.7541570411842575 0 3 0
212 0 2 0 0.40494426164740915 4.382142163835487 8.842903569947492 1 -1 0
729 0 2 0 6.985622173104915 6.5548313477067905 5.020335421950012 -1 5 0
457 0 1 0 1.8775595264694347 1.7883820106853126 4.949280834149364 0 -6 0
731 0 2 0 -0.031265316303666274 6.8521323340268605 8.848778484574908 9 6 0
1578 0 2 0 2.178783435012387 13.501477882931898 8.666410931332468 3 4 0
461 0 2 0 8.525980035930353 10.77968806441856 3.2781649484064523 1 1 0
2559 0 2 0 -7.94430041120132 15.321782671022305 12.936526318784313 2 2 1
1202 0 2 0 4.85576852536553 -4.75476809305232 14.376671866522756 -1 -4 0
714 0 2 0 3.4954386049778674 20.13699836069446 1.9825209504546888 1 0 0
1251 0 2 0 3.3183245019220484 1.5773550646181453 7.924087583381146 1 -5 0
750 0 2 0 10.369468307197943 6.678674728532122 8.56331203068405 -1 0 0
2271 0 2 0 -2.247014380853919 9.050851568137805 9.971045208574699 -2 -9 1
1399 0 1 0 7.41895420705036 12.803342325119525 11.012675017721646 -1 0 0
414 0 2 0 9.910527699263827 7.869430924967292 0.8951328731166048 2 0 0
1230 0 2 0 5.839917360174856 2.464892152044685 15.096821869959303 -1 3 0
1336 0 1 0 -3.7364849333348813 8.919547488564517 12.619806843303106 -1 2 0
983 0 2 0 0.04649162471828411 -1.4242802303996895 12.805006976507102 0 1 0
541 0 1 0 5.539764313531663 -1.706110688032688 9.07919677644937 -1 -5 0
581 0 2 0 11.474226451607985 3.470021574992902 8.066291609444272 -1 -6 0
2379 0 2 0 0.28682849471824134 2.7487449034861866 4.120156712494772 3 3 1
2510 0 2 0 -3.183363120471706 16.37149212969632 2.067128821865582 1 -3 0
228 0 2 0 5.165754252968033 3.3389338027835826 0.7048772062342772 1 1 0
139 0 1 0 -3.446070736405524 10.642788023772201 3.1994894250092383 0 3 0
616 0 1 0 -6.364556342687415 15.591524495008377 10.023535443533529 5 -1 0
79 0 1 0 -0.1935528896200549 16.73495131474507 1.216970498815066 0 0 0
1036 0 1 0 2.139214452540602 9.879862883885494 10.7402749727116 -4 2 0
1114 0 1 0 -2.232757157596258 11.137456396054027 12.963466196370264 2 6 0
104 0 2 0 3.933870122400166 14.219741496040674 14.429189061769318 -3 -3 0
267 0 2 0 5.193198167732661 7.6353506062179894 2.294691805909408 -3 -6 0
94 0 1 0 1.8076214580188505 4.884232082024741 2.430090368057894 2 5 0
997 0 1 0 8.370346074234547 -0.40828211812706083 9.831616531821401 0 -3 0
2377 0 1 0 -0.09685302656146384 3.43169144030851 3.5403138932414286 3 3 0
2445 0 2 0 4.136739028244211 3.1216799087810556 10.763633971811084 -1 0 1
55 0 1 0 12.084896198255953 0.2418167642803113 1.4848959267813768 -5 4 0
1484 0 2 0 4.74604181198904 7.864035770956928 10.521433350078913 3 0 0
1715 0 2 0 6.101079144326146 -3.0546956917926193 14.720261752794118 0 0 0
1300 0 1 0 1.3692325375800751 14.363177379298865 2.3131905572322045 0 -1 0
1684 0 1 0 3.3151985618747624 8.877157620568264 6.446478409195807 -2 -3 0
633 0 2 0 -1.8424573825044255 17.291830267035735 9.265502229563772 0 -3 0
863 0 2 0 4.55813371052317 4.229963237199558 3.476447059383921 -1 -5 0
1179 0 2 0 11.18057468298423 3.320419481740584 10.320023336752245 -2 3 0
115 0 1 0 7.077407094479451 5.555607361150115 9.429508508653532 0 -1 0
446 0 2 0 3.547625759568924 0.8046871153255539 11.88583967168433 -3 0 0
1168 0 1 0 2.9283789974371546 14.095742182202155 5.854453719208188 1 3 0
1124 0 2 0 -0.7636499637348559 3.4210982323671315 11.166652325237369 0 5 0
462 0 2 0 7.716202708627351 10.003456849370494 4.329099388186784 1 1 0
1382 0 2 0 -4.645833050893574 20.243528391568567 2.093072144749935 0 -1 0
116 0 2 0 6.389917780094021 6.052999314888078 8.968879666138516 0 -1 0
1075 0 1 0 2.080676933949823 17.33561964063844 -0.4320992107436994 4 2 0
355 0 1 0 -2.500711262997486 14.077132906047812 12.986624000414507 1 1 0
505 0 1 0 0.49477722152001324 13.164545954362211 11.15405479669168 -3 0 0
1042 0 1 0 8.972893799780417 -2.0692261386394444 15.050609962256276 -5 -5 0
2547 0 2 0 12.201741329443776 -3.003354212735137 14.833339995193203 4 0 0
259 0 1 0 2.97971541981033 9.73620838997876 0.6499090209023943 3 1 0
1148 0 2 0 1.829392337490527 11.441781343603315 14.678531496359467 -6 1 0
808 0 1 0 1.4870350727995012 -2.627612431007542 15.270466227659703 2 7 0
213 0 2 0 1.622368258013529 4.575190567397744 9.779560812257573 1 -1 0
864 0 2 0 6.179962768007649 4.423275024949982 3.2561169333636704 -1 -5 0
909 0 2 0 4.5617156912276995 -2.0288581367448213 10.636581059193897 -2 2 0
937 0 1 0 -0.291992182552159 9.770740065605345 8.229561274336683 3 -2 0
489 0 2 0 -3.552827058047589 14.326835838218503 9.77963043137685 0 -3 0
1196 0 2 0 14.732462574359202 -3.8694299001368035 11.638090549538582 -3 -1 0
741 0 2 0 10.803137440333959 4.094711250370247 0.99690474816772 1 1 0
1603 0 1 0 5.704852277286387 7.148663252114601 7.683274829290049 1 1 0
1095 0 2 0 1.3822793317572393 2.3037836181444713 0.945666876320389 -2 -1 1
2583 0 2 0 9.434922947113801 -2.724117408596207 11.883096776728953 -4 -1 0
1589 0 2 0 3.640413962788755 5.105096267048066 -0.028170317423383162 1 2 0
1060 0 1 0 -0.6193260520310115 15.797582409176279 14.043401804032598 0 3 0
353 0 2 0 3.268372517717641 2.7814908900712614 2.681625520775028 2 -2 0
1197 0 2 0 13.345222413491864 -3.86879823222533 12.301998885832017 -3 -1 0
1077 0 2 0 2.656955669667463 16.69509583311473 0.08661598638816215 4 2 0
601 0 1 0 8.190287496526361 2.7673724126257158 -0.5657982797810464 -3 -8 0
379 0 1 0 -1.5278359246451738 18.186841634977604 7.463633311332478 3 -3 0
1116 0 2 0 -1.7371531646773362 11.074455348449622 13.738870230206238 2 6 0
1166 0 2 0 1.0808401173759512 10.621823348422637 3.0218916650304353 3 -5 0
169 0 1 0 -1.7169564467623777 9.458563427864991 4.8665799927021895 5 2 0
63 0 2 0 6.0766114574163215 -0.6640413835739629 13.116993441354104 6 6 0
868 0 1 0 0.5812588258740021 1.7201376419409713 10.65324844703249 -2 2 0
1137 0 2 0 1.9591676872233328 7.531497511169721 13.173606728831704 -2 -3 0
998 0 2 0 8.77272643788174 -0.4500193707754656 10.743363491534996 0 -3 0
1203 0 2 0 5.636326859696672 -5.17686142717118 15.49607749357589 -1 -4 0
579 0 2 0 3.896077780523683 -3.5093837042545806 12.773297119839897 -2 -8 0
1669 0 1 0 4.415497952927648 4.514155996301163 7.208164634319528 4 5 0
999 0 2 0 8.80997096370358 0.29305395004618706 9.376749133324441 0 -3 0
373 0 1 0 -6.2218492356892305 18.023186200807555 8.861348364306156 3 -2 0
198 0 2 0 9.04469331808616 7.764364745520271 7.491132454247639 0 1 0
1490 0 2 0 3.4056677803230055 19.238356785953513 5.489348574926758 1 -7 0
698 0 2 0 -0.1290571248325696 5.987147555010376 15.563833710990032 -2 5 0
655 0 1 0 -0.7898584153029165 2.1890395170236383 14.626653484177863 -8 1 0
88 0 1 0 6.442405105647594 3.597419397807787 12.174938374338765 1 5 0
226 0 1 0 5.9842005205293125 2.8353815900587156 0.90757230970682 1 1 0
42 0 2 0 2.0303594418218873 10.294277781959712 6.219060952265708 -5 -1 0
2366 0 2 0 6.959771858111339 8.000791599407737 14.32144433476487 1 3 1
1229 0 2 0 7.434309976530956 2.556889684489695 15.296721613298885 -1 3 0
1360 0 1 0 2.970572651692511 16.54793244469111 5.004382508241275 -1 -1 0
66 0 2 0 3.0878132962164613 11.600998298698936 3.364500455397012 3 2 1
657 0 2 0 -1.529678982915853 2.799893635344179 14.672140364623866 -8 1 0
552 0 2 0 5.833140987616551 17.602877431525787 3.734951096425611 3 1 0
2530 0 1 0 7.967539761855376 11.027841549076406 15.428644385854593 0 1 1
261 0 2 0 -0.6511701464780334 5.03486636820301 6.696492494231881 0 -2 0
2373 0 2 0 8.965366332933067 1.092912989534796 1.9195568422004956 0 1 1
2481 0 2 0 8.12209582023958 0.994575875741833 13.188128845087617 -4 -2 1
81 0 2 0 -0.6417437488421185 15.90262588403614 1.1102531706767953 0 0 0
1483 0 1 0 4.224160670574289 7.791473541461144 9.688684722012454 3 0 0
2486 0 2 0 3.921959126825846 14.151157135225061 10.837243583884806 2 3 0
1064 0 2 0 7.452427062751031 6.133308853687631 13.506375676666845 0 1 0
1271 0 2 0 -3.078913190991976 3.9797084252033414 13.759861841310967 -2 -2 0
2191 0 1 0 5.279342114988846 8.405324844743312 12.346228906780153 -1 2 1
1385 0 2 0 9.805135951207667 6.714354593238838 10.579136784232233 1 -1 0
1121 0 2 0 3.0553555981919214 7.899372704004486 14.998904775389898 0 -8 0
1055 0 2 0 7.5975971720073785 15.236299975260884 4.8197836404298595 0 -1 0
460 0 1 0 8.180979212773645 9.886271503344352 3.512618790355761 1 1 0
1189 0 1 0 -4.978242760487565 10.761548772692759 10.42393521705992 2 2 0
939 0 2 0 -0.519118380784334 8.779223135897812 8.268730770392695 3 -2 0
697 0 1 0 0.5489086773118714 5.623189671343744 15.006546491142917 -2 5 0
2193 0 2 0 4.428387666057586 8.088488982545973 12.601576284814996 -1 2 1
803 0 2 0 0.16223625206108028 14.04976319440284 8.32520588231388 -1 -5 0
2558 0 2 0 -7.32560627712305 15.658465881016134 11.500969534755589 2 2 0
1003 0 1 0 10.501310487263945 -0.25937383620107535 4.786386251675112 5 -2 0
211 0 1 0 0.6218914022253901 4.552721925468283 9.76273055855647 1 -1 0
1696 0 1 0 5.63504316627573 18.26817928388416 0.447542795247879 2 5 0
2487 0 2 0 2.328245960810895 13.814933175302192 11.10935442233767 2 3 1
12 0 2 0 -6.582263221202763 18.68036211798502 3.4849421537440763 2 2 0
2163 0 2 0 -0.7236065102170692 12.405559589909588 3.0509790239050867 -3 1 1
809 0 2 0 0.7595399106376834 -3.254066870096059 15.419170259312732 2 7 0
968 0 2 0 5.376007904918661 10.531293785532146 8.853180329491222 -2 -4 0
1061 0 2 0 -1.5403618643791415 15.540163908424901 13.832685944828548 0 3 0
1421 0 2 0 11.853116457662514 5.283078484072082 -0.4766600957980555 -2 0 0
713 0 2 0 4.413724006945188 18.832182653818982 1.6526124905675785 1 0 0
1113 0 2 0 9.88630927288769 4.239842794023799 11.897654724703495 2 1 0
644 0 2 0 -1.700253573492332 13.119279119886707 -0.611334634139536 3 0 0
360 0 2 0 0.9371229030178004 -0.47673436431089034 14.488046580147051 0 4 0
477 0 2 0 -4.276702568426791 10.191387956021636 6.973531848285037 -3 -2 0
683 0 2 0 9.245531249103436 -1.2358282959097329 13.433132574107926 -3 -2 0
1671 0 2 0 4.159671303879228 4.699061183981636 6.287414721243252 4 5 0
724 0 1 0 10.66962613393923 -2.019886396238726 8.847948512243898 1 -2 0
730 0 1 0 -0.9748626214374209 7.112657795520643 8.91292134630561 9 6 0
1293 0 2 0 6.381630051672981 9.331764244849895 1.0752628943378109 -1 4 0
1711 0 1 0 -7.365049712938466 14.680885349448983 15.314396344322205 3 -1 0
1620 0 2 0 14.521257953965193 -1.60631086126743 11.322214482229889 0 -2 0
536 0 2 0 0.9378156168813065 1.9454150799831562 7.749553773767849 -3 -6 0
778 0 1 0 9.826122840262016 5.012406068981954 1.9793159609325408 3 7 0
1274 0 2 0 0.08620939825384072 8.492864189227014 14.217389909881767 0 2 0
2365 0 1 0 6.854748359805677 8.632754735491428 15.076643876254122 1 3 0
565 0 1 0 -4.262141620895781 12.936035083444413 8.68669110100686 -6 -5 0
201 0 2 0 9.607654258448756 1.6665278604399214 5.502940804638804 0 4 0
875 0 2 0 0.24827201345418165 13.99009584040893 14.07794885558524 2 -2 0
732 0 2 0 -1.487886978442342 6.283926832448084 9.009763847886523 9 6 0
1674 0 2 0 2.8855200898683124 20.497381945346614 -0.22371481094726442 -3 -1 0
35 0 2 0 -2.3092270614111596 17.893085091027352 -0.17113120990269548 -2 -1 0
828 0 2 0 -7.0096054146570514 14.36009672580987 7.517566859480716 0 -1 0
274 0 1 0 1.6885955768047693 19.10597968264701 6.282843824498476 1 -1 0
2444 0 2 0 4.149269821619554 1.8770989408811425 9.97512882688342 -1 0 0
232 0 1 0 1.3507612697379336 17.94896804665764 3.087165844835632 -6 0 0
254 0 2 0 1.0020532832559923 6.207997525429162 -0.5125654492303098 0 -1 0
1401 0 2 0 8.17457640430823 12.678120930257887 10.41302960697909 -1 0 0
2234 0 2 0 10.638783052216576 2.5020608041392967 4.048313491037918 -1 -1 0
103 0 1 0 3.3181799189090295 13.541222110405425 14.671147042228048 -3 -3 0
1147 0 1 0 1.780943701909281 10.535414770133798 14.853032140926954 -6 1 0
1262 0 2 0 2.606494641283201 7.233245124797518 8.666507883697804 0 4 0
1697 0 2 0 6.29791658218824 17.669640603935342 0.868406741657628 2 5 0
367 0 1 0 5.285179360401068 14.142425102244157 9.874122212478824 -3 3 0
2581 0 1 0 9.300875038141598 -3.6987304855999628 12.062184212721276 -4 0 0
780 0 2 0 9.544791475349067 5.732457124918992 1.4020230969413459 3 7 0
1714 0 1 0 6.556548781829079 -2.207567912718612 14.72493851526529 0 0 0
1447 0 1 0 5.887275112987413 14.578440280195561 0.4066554833078666 3 3 0
525 0 2 0 9.119732002675478 10.678697148511855 0.775040610672818 0 0 0
357 0 2 0 -3.0517522446724508 14.313397976178909 12.214903768374308 1 1 0
1044 0 2 0 9.496222304370196 -2.8846293119125597 15.07642048041445 -5 -5 0
1067 0 2 0 4.528289118743118 7.219515115402739 0.2136250610014374 -3 -3 0
1046 0 2 0 13.20640114285961 -0.260392871389165 4.63515373124195 -3 -3 0
1097 0 2 0 -5.597569770790756 18.32042066131425 -0.01645457063596656 1 -3 0
1337 0 2 0 -4.613304266874522 8.81161979411414 12.201974486566595 -1 2 0
908 0 2 0 3.553121916565954 -1.424452143097882 11.61238244381203 -2 2 0
276 0 2 0 1.3240324370116856 18.290749851311794 5.958693733806267 1 -1 0
785 0 2 0 4.199431857703643 11.105604557423758 13.070782687099484 5 2 0
1311 0 2 0 -3.0424463079263693 5.698273058930593 12.039844997103172 -1 -2 0
860 0 2 0 8.583856538602667 -0.6584430940288177 6.886145037199173 -2 -2 0
1546 0 1 0 1.6240811843753207 -0.326594196947533 9.166707447294176 -1 2 0
1339 0 1 0 -1.6035141090971243 7.312298194249618 11.750459662083422 1 2 0
2378 0 2 0 0.6144884276178741 3.8405527331742366 3.0286270815963854 3 3 0
1249 0 1 0 4.0101152971902705 1.1298864179581685 8.442891641344808 1 -5 0
548 0 2 0 4.84221492624674 11.1445255943649 15.398445288430466 4 -3 0
547 0 1 0 4.599163462634723 10.451504907233131 14.751065454227234 4 -3 0
380 0 2 0 7.7788458361116275 -2.436322757377467 7.080510287449243 3 -2 0
47 0 2 0 2.9838490092390026 16.553830940207927 9.200992388349292 2 3 0
11 0 2 0 -7.1721257209729234 17.413431326224764 2.729398127383987 2 2 0
706 0 1 0 5.687307131745017 18.230374150747966 7.188135879432719 9 8 0
1449 0 2 0 6.7027199349929765 15.163190130443947 0.2963431163707473 3 3 0
487 0 1 0 -3.6125825277748107 14.735913899902734 10.657449010468534 0 -3 0
1123 0 1 0 -1.3640124534078975 3.5641213520264943 11.865666263314484 0 4 0
1261 0 1 0 1.8401278635702922 7.05075940133799 8.089981325585502 0 4 0
321 0 2 0 9.25008530660555 5.558559378508254 5.946625615441672 2 -1 0
356 0 2 0 -2.3849278268309235 13.138770934117073 12.849833032474171 1 1 0
1713 0 2 0 -7.914270182325128 15.352758729147629 15.709692781313276 3 -1 0
2580 0 2 0 0.7013809611859132 3.8962958307349926 -0.6631567501721486 1 4 1
1232 0 2 0 5.7804491604309 16.088787582923054 10.28851326612858 -4 -2 0
580 0 1 0 11.499037428085122 3.6310363125365837 7.081353155398413 -1 -6 0
1341 0 2 0 -1.1429748552230952 7.267669388246185 10.905675057363714 1 2 0
141 0 2 0 -2.888867164040677 10.078764171340563 3.811515712816454 0 3 0
859 0 1 0 7.713971852570433 -0.83711239229043 6.504410501431211 -2 -2 0
1194 0 2 0 7.7399480839602175 15.851070912778187 7.298976281974095 3 -3 0
1136 0 2 0 2.9971404438774907 6.456017918179187 13.049233197407496 -2 -3 0
524 0 2 0 8.238158103184885 10.5976185896322 -0.35813242487326385 0 0 0
870 0 2 0 1.0436211702778762 1.9068589196124437 11.499266154911911 -2 2 0
368 0 2 0 6.165099342728484 13.757452044509524 10.177960258137986 -3 3 0
668 0 2 0 -5.3853810260540085 14.96054321036366 2.197028344095397 -1 -1 0
273 0 2 0 5.895623009637331 8.580593959898211 5.274082977619024 0 -2 0
986 0 2 0 9.391046956629665 1.8993486530791048 8.037125190779184 0 1 0
488 0 2 0 -2.9443229452714594 15.426884580222707 10.58271672857145 0 -3 0
1351 0 1 0 -0.41725169030157405 0.2517293833811718 2.2103956169088255 2 -5 0
95 0 2 0 2.4351574518155936 4.609472141817933 1.6639895027046174 2 5 0
432 0 2 0 0.5662380072127886 5.790178059479871 7.30208852799259 0 -2 0
915 0 2 0 -1.0911085086806798 10.715595624762187 11.822485313115637 0 1 0
117 0 2 0 6.674147188701587 5.042656834665571 10.206821479024756 0 -1 0
1295 0 2 0 2.4837464445849347 11.49299588901022 7.9089239215208575 2 -5 0
1043 0 2 0 8.012826482214432 -2.372890636696338 14.967874997522314 -5 -5 0
1331 0 2 0 -1.1207368474522947 3.02622909353693 2.172419467466739 -1 -1 0
2387 0 2 0 6.891488976767601 0.9427670669315589 6.9932556900338 0 1 1
567 0 2 0 -5.042249322299711 13.287107327922536 8.274463823249583 -6 -5 0
1381 0 1 0 -4.138908866476786 19.422667268772063 2.3057390696837485 0 -1 0
1135 0 1 0 2.9191733580753225 7.431191019593448 13.158150450635993 -2 -3 0
679 0 1 0 6.404966918089611 12.276007381322355 2.0709149252855985 -2 -1 0
1270 0 1 0 -2.8789993978134008 3.943917977268156 14.693081309669804 -2 -2 0
61 0 1 0 6.264143434579738 0.12466300338093017 12.539894409297093 6 6 0
2235 0 2 0 11.039438693552293 2.330091754063777 2.601886711836791 -1 -1 1
832 0 1 0 4.547241114499702 10.435460047071125 3.0098395574067514 1 0 0
1470 0 2 0 -4.438683311312916 16.794601859744212 5.687595300969321 -1 2 0
177 0 2 0 -2.8699944304023166 4.94328418693869 10.092558497559745 -3 1 0
1111 0 1 0 9.717099746188804 3.508394278338378 11.342961887451613 2 1 0
352 0 1 0 3.747301339775334 2.8156722122938156 3.5262100819306372 2 -2 0
159 0 2 0 5.324505050975141 10.754004860611845 11.314096128618322 0 -3 0
1162 0 1 0 -0.10667693458154313 15.419779319705862 4.2933193005445975 -4 2 0
1530 0 2 0 -3.0900167762236554 13.99296517449904 6.363222326190026 2 2 0
320 0 2 0 8.442889608508887 4.840008738303656 4.767639056348695 2 -1 0
2582 0 2 0 8.645795246667726 -4.025348908473757 11.446032227713383 -4 0 1
912 0 2 0 1.5146533472745847 10.693702013749554 0.5586532065057246 3 4 0
1214 0 2 0 2.5584829592384493 15.796950373972969 12.04433557126202 4 -5 0
684 0 2 0 10.282491130392712 -0.24595255559185958 12.652179969531675 -3 -2 0
266 0 2 0 4.614268350285742 6.207868008040181 2.372098619241655 -3 -5 0
671 0 2 0 0.2005858116879294 19.029937853261025 3.6657251473545873 3 2 0
418 0 1 0 -4.726376623789255 13.687968466908194 5.907715670805036 -6 1 0
2544 0 2 0 -1.9780556983192157 4.207944436267823 3.6792003078546918 0 0 1
1640 0 2 0 -2.0586508104891403 20.311305085468447 0.01615947029591691 -1 -2 0
910 0 1 0 0.6622189406094167 11.032018193726428 0.3283844997392953 3 4 0
1291 0 1 0 6.750800656731746 8.611701684204625 1.6166832643345295 -1 4 0
1526 0 2 0 -1.7304181355815593 7.507596409265611 5.386447691220639 1 1 0
164 0 2 0 -1.6094574947203992 13.768330396410207 1.5310544207587307 0 1 0
774 0 2 0 3.564786629452273 4.503208749442035 15.58908572649192 0 3 0
196 0 1 0 8.385825847982698 8.491128279669333 7.540946529901007 0 1 0
517 0 1 0 7.336893499968405 13.255676610908498 13.792832619436219 1 -5 0
2578 0 1 0 0.51723924314516 2.952609375882143 -0.5171039525224987 1 4 1
2233 0 1 0 11.43579360160943 2.477802680329955 3.450694973681924 -1 -1 1
804 0 2 0 -1.3150914164244076 14.15643562337658 7.9574062580906855 -1 -5 0
562 0 1 0 12.345270629491099 0.15728873037226654 9.431585606581601 -2 0 0
861 0 2 0 7.91647184767433 -0.9599772120649976 5.5748398984391185 -2 -2 0
420 0 2 0 -5.060328592062492 13.017277243218977 5.321969755093769 -6 1 0
600 0 2 0 2.085108549742144 8.006755411837673 0.854437386328631 0 -7 0
542 0 2 0 6.377011626523952 -1.2932120561829454 9.183760856871897 -1 -5 0
685 0 1 0 13.938525005981829 2.2531152928973768 1.2779514383083077 -2 -1 0
779 0 2 0 10.372212609527546 5.506407097482314 2.5873259688114594 3 7 0
974 0 2 0 2.1251469110184353 7.172858000500729 4.299758240983037 6 2 0
431 0 2 0 2.130610870911401 18.279191716034447 2.566708730864028 -6 0 0
945 0 2 0 8.89226853083717 12.780165697912706 -0.06317092914947775 0 5 0
1294 0 1 0 2.8532989361485668 11.851890821354434 8.763403160866748 2 -5 0
651 0 2 0 -5.65362921951597 14.1581997016656 14.69924748113751 3 1 0
836 0 2 0 4.331683267769625 0.8426918228664046 14.226301078683681 0 0 0
1051 0 1 0 -2.2955198725450416 11.24481147045962 6.969198399871781 1 -4 1
2415 0 2 0 -4.4954785261826515 8.121660625087676 15.301811887828393 -1 1 1
197 0 2 0 8.727151865418907 9.346793316864288 7.253630481846617 0 1 0
680 0 2 0 6.111330465603655 13.001979318949967 1.4005722754061591 -2 -1 0
627 0 2 0 8.777335771327206 11.864445837643302 7.56328628314324 -1 -3 0
412 0 1 0 9.25378385732283 7.285548612553434 0.5456784587638028 2 0 0
2485 0 1 0 3.1799736257907076 14.062382628038629 11.471788830072148 2 3 0
404 0 2 0 -6.166209390548736 16.189269820865416 6.926744526132033 -2 0 0
171 0 2 0 -0.8501022325827214 9.718631796156773 4.515744351686244 5 2 0
687 0 2 0 13.226053152396954 2.8698313282529577 1.0630721871960898 -2 -1 0
287 0 2 0 -1.364775504683813 1.3732420664903544 8.052179535598293 1 3 0
584 0 2 0 -3.0758732185196704 16.962445897596083 4.058881130205628 0 2 0
1152 0 2 0 6.8169386138468635 0.6034618983493731 3.048461477400774 2 -2 0
1281 0 2 0 5.030036616381648 15.804819856528162 12.906604122934226 -4 1 0
275 0 2 0 10.78536124412345 -2.3870720813061204 7.260942630225715 1 0 0
2388 0 2 0 5.547309290377455 1.558930034060158 7.412177332677324 0 1 1
626 0 2 0 9.337526431985289 11.649922176531986 6.138311465250051 -1 -3 0
210 0 2 0 7.756244076611349 8.409709444733672 9.352300938990414 4 11 0
603 0 2 0 7.290900333523437 2.868607173802521 -0.2570666590573323 -3 -8 0
392 0 2 0 14.817713756400822 0.3480056271063132 3.0277089566684334 -2 1 0
1233 0 2 0 6.801026557907934 17.12361865554792 9.677676950377942 -4 -2 0
514 0 1 0 7.7759240342078515 16.49503968624364 0.6163996787040384 3 1 0
1215 0 2 0 1.6940044646085055 17.05435858366656 12.249256839314944 4 -5 0
1063 0 1 0 7.631201139498623 6.856360492916164 12.893804882414937 0 1 0
437 0 2 0 0.20529319829179526 5.280390964985597 11.898224720253426 1 -2 0
199 0 1 0 9.457894971326184 2.5891919696092915 5.479105486513033 0 4 0
2372 0 2 0 9.240565115565065 1.8719377811573796 0.5745559876207393 0 1 1
2351 0 2 0 8.274151188335999 2.9275852471328 4.020233865827661 8 7 1
411 0 2 0 -4.469025999512919 11.866560835364545 15.056695989418076 3 -1 0
278 0 2 0 13.929992602088745 0.9243235524085032 6.256931493526347 -1 -3 0
1425 0 2 0 -3.217805859872695 9.856501355836002 -0.18143200289123662 3 8 0
1418 0 2 0 1.6622247837057134 5.094829510673833 5.704639191035093 0 2 0
669 0 2 0 -6.687380515079674 14.931975877389927 3.05673720093669 -1 -1 0
598 0 1 0 1.5045650269080209 7.241350066960575 0.9449058723641617 0 -7 0
726 0 2 0 11.128012215702567 -2.77444099966345 9.198300149417879 1 -2 0
1397 0 2 0 8.186891618074117 4.269311502921655 8.578786065443293 6 0 0
1167 0 2 0 1.333482103283738 9.119344220028056 3.3876808479561333 3 -5 0
869 0 2 0 0.9704570411197078 2.260560346664945 9.999544026692766 -2 2 0
374 0 2 0 3.1894333161695654 -2.9071271037405175 9.618305436574108 3 -1 0
1127 0 2 0 4.879683366595301 4.196595831201257 12.986295257051372 0 0 0
430 0 1 0 0.261944152006567 4.950750674469067 6.971638908092116 0 -2 0
359 0 2 0 0.37167547614284635 0.7172602382905726 13.844450334174498 0 4 0
506 0 2 0 -0.06807619523882774 13.546433080827935 10.451858510165055 -3 0 0
2327 0 2 0 2.251406794134261 -1.0390703762729139 5.879476512693511 0 -1 1
223 0 1 0 -6.148652687666226 12.30942065162629 12.292186672401423 -2 -4 0
564 0 2 0 12.13276521238318 1.1119624955580498 9.607457416073016 -2 0 0
1605 0 2 0 5.4776920026391815 7.0887252876329345 6.732994372006052 1 1 0
942 0 2 0 0.33896889482438325 15.965531212100874 5.769886662285752 1 4 0
1093 0 1 0 1.6765336536309456 1.763053990146588 1.704490550480394 -3 -1 0
57 0 2 0 11.295820981356012 0.786017211862767 1.443619370086572 -5 4 0
2270 0 2 0 -2.3217839024063407 14.953815175504479 0.9641938818328775 0 0 0
806 0 2 0 -2.4598972541929793 7.446805815633206 2.3468945465215074 0 0 0
238 0 1 0 5.281838998798325 14.059855611691885 6.848753166062649 4 3 0
2294 0 2 0 9.684400634506455 10.072438703367666 12.19267046293602 0 -6 1
1030 0 1 0 12.183133799569335 0.3991938281589267 13.146363768443964 2 -4 0
46 0 1 0 3.1842966706952063 17.515825491436814 9.103900771027854 2 3 0
947 0 2 0 -3.2105533726726176 17.63349840487753 7.383177755857075 3 2 0
631 0 1 0 -1.4976888568254008 16.64709970320605 9.889475207433842 0 -3 0
144 0 2 0 4.756303044772203 1.0468848196466207 0.9576413185113 2 -4 0
288 0 2 0 -0.4628333753640818 0.31406565216859716 7.36266946235663 1 3 0
1661 0 2 0 6.464933225909798 11.845548534057256 4.086964160112437 -1 -3 0
1361 0 2 0 3.859342027231419 16.445464956798332 4.679368638061223 -1 -1 0
1038 0 2 0 2.438608577624865 9.032859531485075 10.377359794968077 -3 2 0
625 0 1 0 8.64898587308382 11.338741687495794 6.696416187942621 -1 -3 0
1177 0 1 0 11.83247368321549 3.008415677808048 9.675922642885379 -2 3 0
2443 0 1 0 4.417886946534804 2.2274282353289774 10.852557637437412 -1 0 1
2509 0 1 0 -3.8252996735428164 15.816941038476301 1.5220150818367566 1 -4 0
1448 0 2 0 5.123106866890944 15.084328580982127 0.7420662864520637 3 3 0
1340 0 2 0 -0.8745772567642918 7.661605469139978 12.358221924278086 1 2 0
358 0 1 0 0.8209144960412051 -0.14531356328414713 13.636046477682763 0 4 0
2269 0 1 0 -1.462344629272763 14.467674675661454 0.8436638658043663 0 0 1
1115 0 2 0 -2.8096313502602643 10.372051859268094 12.924004418505469 2 6 0
1163 0 2 0 -0.8679490065250581 15.97576445219263 3.967668126753658 -4 2 0
599 0 2 0 0.5938631677560121 7.7082206591474165 1.1849240961253626 0 -7 0
708 0 2 0 15.438250049476213 -2.5716898598134335 7.559266754588595 9 9 0
96 0 2 0 1.6989487338980394 5.7891864681205085 2.138461102825088 2 5 0
911 0 2 0 0.8506643371460947 11.93028124328731 -0.15324508223330147 3 4 0
445 0 1 0 3.4071955802367766 0.15432555241838664 12.58812781260338 -3 0 0
1527 0 2 0 -2.6048460475872757 6.257620122679947 5.205864399902364 1 1 0
748 0 1 0 10.109946977719531 6.2492644188550805 7.754953753414872 -1 0 0
272 0 2 0 5.820817066183316 9.926614166751037 6.044728374679626 0 -2 0
1670 0 2 0 5.277867136444238 4.155889187095525 7.117214964820629 4 5 0
23 0 2 0 12.639686303520989 3.0617213786264066 10.214446458731532 -2 4 0
2192 0 2 0 5.989507595267203 7.7543157878646785 12.552319610866881 -1 2 0
543 0 2 0 5.198465923488148 -1.5140032896469744 8.20982653060705 -1 -5 0
304 0 1 0 13.62666665427101 -1.5439282702465742 14.571901082835597 -3 0 0
1005 0 2 0 10.731773956492912 -1.0645882605183958 5.2507004542709055 5 -2 0
1301 0 2 0 0.9672440669027023 14.867862107325497 3.085141985385752 0 -1 0
200 0 2 0 10.245077607169462 2.837758439068443 5.980934234629901 0 4 0
1094 0 2 0 0.819744434206354 1.3965684851255598 1.9755453615025464 -3 -1 0
649 0 1 0 -4.841613602935089 13.754795169601385 14.263285003402727 3 1 0
1273 0 1 0 0.30970469953508833 8.548064014661076 13.307768548296194 0 2 0
518 0 2 0 6.855619590834895 14.035451450184858 13.890481075740936 1 -5 0
1037 0 2 0 2.822436447247791 10.081367802452156 11.373828435004105 -3 2 0
1528 0 1 0 -2.2168847508024405 14.338065016878886 6.599499776161942 2 2 0
833 0 2 0 5.168355372844689 10.938628744571265 2.514401399282771 1 0 0
1250 0 2 0 3.688854685242199 0.20717768896952116 8.532190510170045 1 -5 0
747 0 2 0 3.377913630763467 -2.322527769081344 7.379170620090676 -1 1 0
227 0 2 0 6.2611376204776255 2.875019552026814 1.8565248597337827 1 1 0
1228 0 1 0 6.576714215466191 2.8559208933484452 15.613343489316051 -1 3 0
1112 0 2 0 9.42869502372071 2.8449200630708242 12.02283046221855 2 1 0
143 0 2 0 3.2253725300795524 0.9083599881529334 1.3776911221904364 2 -4 0
1170 0 2 0 3.8571060630042586 14.250199199772291 6.181964468670902 1 3 0
1662 0 2 0 7.2410695943029495 11.88429497446548 5.391601587411507 -1 -3 0
2386 0 1 0 6.300768193795463 1.6980464858099111 6.823619540563123 0 1 1
277 0 1 0 14.335796474657618 0.7317287537737465 7.138116760211532 -1 -3 0
2413 0 1 0 -3.995389685119998 7.374885985785606 14.91454115297277 -1 1 1
948 0 2 0 -4.579388531696445 17.33624264340687 8.100970223858951 3 2 0
378 0 2 0 9.214237408113172 8.38331928451743 3.2605620767273154 -3 -5 0
1576 0 1 0 2.044937731332794 14.42558575363115 8.330702493662123 3 4 0
1101 0 2 0 2.855264050874378 1.8140173044570576 15.644601560597039 4 4 0
2352 0 2 0 8.419398370861577 3.6237260177213635 2.6971781251122526 8 7 1
459 0 2 0 1.5398119343856354 0.9156659213084386 4.748647429342485 0 -6 0