LAMMPS data file via write_data, version 23 Jun 2022, timestep = 52571000

2592 atoms
2 atom types

0 31.216999 xlo xhi
0 21.524542 ylo yhi
-0.8049960279362995 32.600715074022176 zlo zhi
-9.212092 0.7753091110653862 -11.251810280210478 xy xz yz

Masses

1 1.008
2 15.999

Atoms # full

274 0 1 0 13.131328055225572 -0.7660267269382239 8.75751658296641 1 2 0
1483 0 1 0 9.418604613877159 9.460640402442985 13.04862839030779 3 2 0
857 0 2 0 -2.4332762073601963 6.083349350700316 6.7066971805053415 -1 0 0
1052 0 2 0 2.0437467260445374 12.492146064881602 12.418255922007981 0 -1 1
535 0 1 0 5.891577925923684 -0.9427941140795375 12.056784730263885 -1 -1 0
1194 0 2 0 12.306931147266654 1.591483867958904 14.667301095020877 2 1 0
2366 0 2 0 6.501305590274823 10.234150883911633 3.4414193045885257 0 0 1
867 0 2 0 -6.336536215206132 16.522715026797524 4.181483103866996 0 -1 1
911 0 2 0 4.44748055835292 18.07851540840671 1.0400607143068443 2 2 0
827 0 2 0 -0.6780935272893744 7.893679284612153 9.068593672100448 1 1 0
53 0 2 0 5.695918473331365 12.121297348770351 5.695789589061457 0 -3 0
694 0 1 0 2.5876340195911713 6.424639569663762 3.3385886928908173 0 0 0
147 0 2 0 3.55323455420788 1.0010219616495086 8.88750670889253 -1 -1 1
607 0 1 0 5.680592744196092 1.9565037704173216 4.780216834264684 -2 -2 0
321 0 2 0 0.20243036593949776 4.654214766664986 14.164620388814129 0 -1 0
533 0 2 0 4.9150342285957125 -3.659697658487082 13.22535167452107 -1 -1 0
695 0 2 0 1.944579194812664 6.5226942270124315 2.539256985397875 0 0 0
536 0 2 0 5.165852178985268 -0.33051346002013027 12.238211308729747 -1 -1 0
988 0 1 0 -0.1690381474601012 1.5148036712266988 15.409031866912093 2 -1 0
1076 0 2 0 4.2202929534136455 15.833537968518266 2.150277361855408 1 2 0
1077 0 2 0 4.5879951783271204 16.992066339448087 3.0482934641191033 1 2 0
94 0 1 0 15.390927901679198 -4.607988170195936 14.010880013999417 0 1 0
105 0 2 0 3.261482677119035 14.593465499233371 12.948565228309052 0 0 0
303 0 2 0 -1.0803540399635148 3.8945305834952437 12.261564213882874 0 0 0
42 0 2 0 -6.856957366384676 14.3136911571528 11.89423497792477 -2 -2 0
552 0 2 0 -2.6188756350358733 15.495179813971738 2.939789859144562 2 0 0
440 0 2 0 6.816403980153911 -2.1394341987268124 15.359053201557904 -1 0 0
162 0 2 0 9.445147865063545 1.2462256905408462 4.864708346771937 -1 1 0
514 0 1 0 -3.2702168475955817 5.987553993434949 9.525100941516156 3 3 0
598 0 1 0 0.01889960930711526 14.988472263687221 12.29138470793875 -1 -3 0
275 0 2 0 13.62779791039562 -0.17515577031741358 8.186352901979898 1 2 0
410 0 2 0 11.50783966136567 -0.1359749806591197 0.3129753621944389 0 -1 0
1294 0 1 0 2.599406534150423 7.989585298411168 0.3835751300434249 1 -2 0
353 0 2 0 2.7702952487966286 12.92013311408564 5.611458169058235 1 0 0
1017 0 2 0 7.883968656359695 10.449470344321215 -0.7220233854496552 0 0 0
11 0 2 0 10.721314561876348 -4.214918964588279 14.145510342609802 1 0 0
1433 0 2 0 7.470965041239198 14.01573380318059 5.389057724383793 0 -1 0
1225 0 1 0 8.452399391435545 -1.7652729388406767 13.806589022923003 -2 -1 0
276 0 2 0 12.602813880216912 -1.2465038289749457 8.162384385354413 1 2 0
277 0 1 0 -0.5514431736901041 13.785395465667008 9.441556142133189 -2 0 0
2336 0 2 0 -3.005359521237318 15.635670446007445 14.953279694383706 1 2 0
1174 0 1 0 -3.385202369208769 14.706448392478116 4.502046124936188 0 3 0
1180 0 1 0 10.525351655707029 -1.2809675940088994 15.79579780919139 0 0 0
508 0 1 0 4.879514640425454 -2.0225544131995354 7.963495235183846 2 0 0
452 0 2 0 7.436989707836759 11.117943566425232 1.2263924574587115 0 -2 0
629 0 2 0 -0.841205427433396 4.215802729127101 6.970216201794009 2 1 0
554 0 2 0 9.288457631610179 14.021800786191776 1.4900314028662955 -1 0 0
443 0 2 0 3.6154280486819985 11.799064815266147 2.1955126052850424 0 -2 0
1147 0 1 0 -0.7362113399736137 6.70456288548871 3.3993779485077145 -2 0 0
1376 0 2 0 8.01662996289761 6.945876241218629 -0.08059875512245551 0 0 0
1591 0 1 0 -1.4100902893123672 1.075962520492225 12.320018396730324 1 1 0
947 0 2 0 -6.55449400546241 19.14578693377771 2.2255951096259876 4 4 0
33 0 2 0 12.285943850874496 -2.9420821216739714 13.448214268826677 -1 -1 0
375 0 2 0 4.384111661386376 12.377143158579198 9.253289508671669 1 1 0
1114 0 1 0 -7.694396213313163 13.872975814752156 14.931533026541995 0 1 0
1707 0 2 0 6.2687677464016875 12.179852684317643 13.312111737903738 0 0 0
766 0 1 0 8.243532740332741 -1.9130937746592105 10.675917584759981 3 0 0
2475 0 2 0 4.003933594754291 3.622269744938281 14.384726125673831 1 -2 0
1268 0 2 0 4.899502914957275 15.227442334490117 14.586807908381536 0 0 0
14 0 2 0 5.126854716837241 4.558993715902934 9.714532704779334 0 -1 0
221 0 2 0 6.63925025667354 2.22225895811052 12.77792411415787 1 -1 0
28 0 1 0 -5.875561136536865 13.537588393478016 1.3231022728350408 1 1 0
328 0 1 0 9.247880085341457 3.8174989143512486 4.6313135620340535 1 -2 0
916 0 1 0 1.4883703919332554 8.967591861989797 11.42210453225482 2 -1 0
612 0 2 0 -4.549500140253844 8.741224543263606 7.323101977758414 -2 -3 0
2207 0 2 0 11.116113702595136 7.800150685969641 4.016820995440889 1 3 1
2459 0 2 0 8.156031975475601 5.300357339040861 14.051107197234725 -1 -1 1
707 0 2 0 -3.9196636702278687 12.355044182825452 10.380574148639594 1 4 0
8 0 2 0 -0.4381043427081088 2.994165402600729 3.250569917494845 0 0 0
1207 0 1 0 10.698012261893762 -2.972063723532622 10.683068356175058 0 -1 0
1115 0 2 0 -7.4434757956556385 14.805690908273254 14.877083347663747 0 1 0
1310 0 2 0 -2.2126888334265096 12.297742462749621 13.460865238274103 -1 -2 0
320 0 2 0 -1.2542357709587861 4.532700306506173 14.431347741893259 0 -1 0
630 0 2 0 -1.1898833894332475 2.9659592103111585 7.947735921761748 2 1 0
943 0 1 0 0.8808709225947237 17.889496791911707 -0.5934279320886832 -1 1 0
567 0 2 0 6.568643171216803 3.2827013472917135 6.846783810208529 -4 -3 0
1521 0 2 0 5.400724813918927 1.1539984585795233 0.5939406585989557 0 2 0
810 0 2 0 6.904108878232683 17.397524168112632 8.92529113088278 2 1 0
298 0 1 0 5.9633805309172025 1.0555822687591858 14.450287979241873 0 0 0
414 0 2 0 -1.3802661122255353 12.019322062339922 4.6022010669251605 0 -1 0
589 0 1 0 0.25932764250998674 13.635953123044484 15.457859054858814 -1 -2 0
1106 0 2 0 1.247569467569161 17.27633809828547 9.206640045241548 0 -3 0
300 0 2 0 5.47655189788672 1.3749762439483622 15.161082870633154 0 0 0
1092 0 2 0 0.376105371086659 5.8904936677126845 0.6121004545188351 1 0 0
146 0 2 0 3.7563720874023794 -0.365216201502343 8.263223234917788 -1 -1 1
780 0 2 0 2.6417748644679744 0.29208981455422744 14.280900195130243 2 1 0
1116 0 2 0 -6.878947212203013 13.390774013171715 15.138642647104374 0 1 0
1409 0 2 0 -4.6193684598853855 13.63329238927441 12.273611880842205 0 -1 0
1167 0 2 0 -1.485529016685447 2.4556419760059343 5.522753512556552 0 -1 0
737 0 2 0 6.0161887287577365 4.277100711768419 2.6737083573142404 0 -2 0
143 0 2 0 6.746992188149871 7.780435345734312 14.328643586702476 2 -1 0
404 0 2 0 8.274153745097511 13.947378671539049 7.304861625212871 1 0 0
1197 0 2 0 -3.9119090821181945 8.189127513195276 3.9103940478821935 -1 0 0
387 0 2 0 -2.9154116540611947 5.994791471851824 15.126489878487835 0 -2 0
775 0 1 0 5.676209690790402 13.16726241035116 0.31304073650990527 -1 -2 0
301 0 1 0 -1.2142235063001785 3.496225564186968 11.37398197832058 0 0 0
127 0 1 0 4.242742372747728 1.5885934007901739 1.8525465708341313 -2 0 0
1614 0 2 0 7.359617815324769 -4.231051224947179 13.798966615963971 -1 0 0
1045 0 1 0 7.343355013346762 8.438006921917946 7.886077992025967 2 -1 0
550 0 1 0 -2.1176281206212866 15.973598085861536 2.2689340228031534 2 0 0
590 0 2 0 -0.023287434750428992 13.777673628923992 14.522165261089967 -1 -2 0
1056 0 2 0 0.1929778298607838 10.291089938951783 -0.5131954831172878 1 0 0
896 0 2 0 3.764759094659125 5.690974067254153 15.523276801774367 0 -2 0
1100 0 2 0 -4.143408127755972 15.403136619074951 11.846750357957132 1 2 0
13 0 1 0 4.366960911343934 5.0256614351642215 9.287413718706485 0 -1 0
409 0 1 0 12.214070778146706 -0.48217522570693516 0.9012969154285295 0 -1 0
540 0 2 0 2.400895824239053 16.665463218729823 5.164893799835782 -1 -5 0
647 0 2 0 13.729104264083611 -1.9778218347892154 10.068381944407669 0 0 1
835 0 1 0 4.390469217829273 2.160344234888779 9.790727825606988 2 0 0
269 0 2 0 8.178222328567335 6.1724900140086385 11.67832150919282 1 2 0
1193 0 2 0 11.488732755199072 0.4012557765558178 14.784628931744974 2 1 0
469 0 1 0 -0.3389162142755131 11.296201318462915 7.732271810615261 -1 2 0
166 0 1 0 -2.3533301134552325 6.899394992867597 12.619994751540288 0 -2 0
1295 0 2 0 2.8476691789497797 8.7835635094872 -0.15114685122142457 1 -2 0
783 0 2 0 10.000089914686098 0.6724130117879712 11.677631972083004 0 -3 0
537 0 2 0 6.683950753904756 -0.4853010097189281 12.169555054968615 -1 -1 0
144 0 2 0 7.931721127521359 7.008359191896817 14.980925933802407 2 -1 0
596 0 2 0 -2.786371019390502 17.698193086070738 -0.5899266205787681 0 0 0
736 0 1 0 6.689853455504084 4.163149809356925 2.0040489789917144 0 -2 0
331 0 1 0 8.266890992808749 2.1650419805491055 15.404962714732273 -1 2 0
1060 0 1 0 4.800407430393804 11.219305810010468 13.827419905933104 0 1 0
631 0 1 0 -1.1002597624609318 20.379388473532984 1.033459009488457 1 -2 0
2351 0 2 0 9.568581002294732 8.721469760801838 2.979781376929944 0 1 1
413 0 2 0 -2.6520573441890583 11.507393739139477 5.246981308258254 0 -1 0
1341 0 2 0 2.39303286183941 3.062046779657897 12.483844278886764 0 -1 0
371 0 2 0 12.049207287858977 -1.453918845651188 5.313079224343644 -1 1 1
222 0 2 0 8.13499520344132 1.8123529660524769 12.362387887684916 1 -1 0
1218 0 2 0 -4.9408182597815635 12.359174730537621 15.332655925207023 0 0 0
378 0 2 0 9.095122372611348 10.856007611441031 5.311730976814392 -1 -5 0
62 0 2 0 -1.4101559385611213 9.730168501342211 4.830005953763318 3 2 0
660 0 2 0 5.989384034263364 4.843857194741726 12.31826501002037 3 1 0
1612 0 1 0 7.783842136667753 -5.019696193353596 14.200957147477656 -1 0 0
675 0 2 0 1.709508824035328 0.39437662269595863 5.497149080373592 2 3 0
333 0 2 0 9.136338636007237 1.7384720622876841 15.298929331709571 -1 2 0
1260 0 2 0 -4.466189107180619 8.69739529382111 11.206047406686018 -1 0 0
1162 0 1 0 -1.3984240409701187 14.04613764081662 6.26327287972969 -1 0 0
170 0 2 0 4.9365024304622125 -2.3572282830635056 10.74769612716882 2 2 0
161 0 2 0 8.895851605114032 -0.14037657097178724 4.199428871439443 -1 1 0
551 0 2 0 -1.3777456101199599 16.414512484130665 2.650940811270884 2 0 0
691 0 1 0 13.063187991095669 2.889089692695805 7.774562963262721 -1 -1 1
925 0 1 0 2.61912707345721 -3.7340126318539166 13.11101954308278 2 4 0
482 0 2 0 6.237550738025758 13.730341448570941 10.212899383446565 0 0 0
603 0 2 0 2.4607817776167122 19.28881500794055 1.7429343272248126 -1 -3 0
643 0 1 0 -1.3274435320257605 3.4104294095489047 -0.4436299447870861 2 2 0
112 0 1 0 -3.4858975706174933 14.342215404652027 -0.22444190575566414 -1 -1 0
615 0 2 0 5.074521529542011 -0.9988931297187722 2.8883077227554868 0 0 0
332 0 2 0 7.630438242744347 1.4444498220235218 15.269274950818504 -1 2 0
109 0 1 0 2.2289531398546782 7.7391609415644655 7.9887835748787825 3 2 0
1265 0 2 0 0.1822818550112858 -1.308315743972023 13.774109119824695 1 0 0
1263 0 2 0 8.774067309811684 1.5770797867249113 2.6996530577064743 0 1 0
1047 0 2 0 7.38131133033064 9.1279262083834 7.219001765641082 2 -1 0
856 0 1 0 -1.6659617059128746 6.046166361200071 7.255300413258832 -1 0 0
10 0 1 0 10.64677606793957 -3.609318685444035 13.423811278404493 1 0 0
268 0 1 0 8.107844591529942 6.918156756990363 11.131284626716674 1 2 0
997 0 1 0 5.570220252267628 4.914438135545784 15.771451487024114 0 0 0
518 0 2 0 1.9610447759872733 14.790494016068081 8.58456205278494 -1 0 0
738 0 2 0 7.3222170465772605 3.542711029589519 2.3963139645571983 0 -2 0
302 0 2 0 -2.0809588320649715 3.7249160789824662 11.005014313236767 0 -1 0
882 0 2 0 1.3947549108969326 10.26458750330363 13.177098696642878 1 3 0
781 0 1 0 9.596873552009654 0.8664826586181302 12.561743227937118 0 -3 0
516 0 2 0 -2.7542608606067027 5.827935706784762 8.728097541660592 3 3 0
792 0 2 0 -8.085938962138083 18.70508235523223 0.22259535948912101 1 2 0
394 0 1 0 -5.356830354230719 19.28819621049704 5.381660376726436 0 -5 0
2458 0 1 0 8.370175985217696 4.401894060503802 13.829419852039939 -1 -1 1
1592 0 2 0 -0.7127157588281857 0.40547685410882295 12.232720274536062 1 1 0
945 0 2 0 1.2908369803031212 18.18257704106885 0.2548090825703886 -1 1 0
471 0 2 0 -1.0755107970010087 10.666598879260683 7.665641838046486 -1 2 0
564 0 2 0 0.9869062745498085 8.528508524629032 1.1861077997300942 -1 1 0
880 0 1 0 0.7361919005511914 10.32365107315111 13.915494153584477 1 3 0
1223 0 2 0 -0.5770686012227311 10.7597104742367 9.832326640496106 1 -3 0
444 0 2 0 3.0991417858545343 10.921734983301869 1.2289092335771583 0 -2 0
352 0 1 0 3.095521629587815 13.783732000062805 5.361541689849224 1 0 0
70 0 1 0 -0.14313980861523573 17.527970696612794 3.3986628952368028 -1 1 0
1227 0 2 0 8.47685985433957 -1.3849099599377346 12.948070075818334 -2 -1 0
989 0 2 0 -0.8909777668764725 0.9251844870825972 15.406620553172699 2 -1 0
1165 0 1 0 -1.7534542934415083 2.767134148610593 4.643954003891448 0 -1 0
722 0 2 0 -4.269841723456602 19.270431303459684 1.065909473892633 0 2 0
974 0 2 0 -1.0572731741521226 11.483286077429602 1.1631494881117166 3 3 0
850 0 1 0 6.730744552062869 4.360295897611313 10.700789737580887 -1 -1 0
226 0 1 0 -4.345366111326639 7.19937476395751 15.124367817658717 2 -3 0
1257 0 2 0 -8.267093571125168 21.3794141807327 -0.4671883276375476 0 0 0
2185 0 1 0 0.8909639838844212 4.82104041153023 10.334528346144136 1 1 0
1025 0 2 0 4.546573396488798 9.195282411282095 10.097238861098198 2 -1 0
973 0 1 0 -0.12072665508715331 11.367876252266779 0.9701007855956949 3 3 0
1070 0 2 0 4.393378902724977 4.80223090794789 0.6105923369086619 1 -2 0
1041 0 2 0 2.6014247599867657 15.582143425548988 15.069769069823536 2 0 0
520 0 1 0 11.80921708377672 1.3562308744143168 2.898429665477546 2 -1 0
169 0 1 0 4.325464420625348 -2.939560812922459 10.32656583989898 2 2 0
1026 0 2 0 3.550153936614709 10.1664614924735 9.469242066999666 2 -1 0
2365 0 1 0 6.63038624945028 9.709807375290096 4.232281840869863 0 0 0
776 0 2 0 5.97401272431356 13.079216350110881 1.2452925745473467 -1 -2 0
7 0 1 0 0.2524330706555187 3.4005281469668542 2.712529992460216 0 0 0
865 0 1 0 -5.522266986360896 16.594055427051455 4.784684815056912 0 -1 1
1362 0 2 0 8.259808855244607 3.6779360862207553 8.061246446124358 0 0 0
1238 0 2 0 6.004343181378116 5.968064683693232 6.788013895816089 2 1 0
757 0 1 0 2.777968984253609 0.10612732635675926 12.484541913537322 0 -1 0
614 0 2 0 5.367311268756588 0.1997604199079155 3.9551559297815437 0 0 0
1408 0 1 0 -4.785599081347117 14.351902894230395 12.916362836420683 0 -1 0
1484 0 2 0 8.81635226885039 8.673469324852446 13.035616216197724 3 2 0
1262 0 2 0 7.831316870149642 1.8043824099219226 1.422571928428451 0 1 0
1296 0 2 0 2.540050066318434 7.408231453862041 -0.39555581964074427 2 -2 0
1130 0 2 0 -3.8443287693988144 10.614680194687999 6.979403414607073 0 0 0
2409 0 2 0 -2.2973710038899102 9.209293321399382 10.755859082391206 0 -3 1
1097 0 2 0 5.657964398709016 15.694386487670675 7.472938262226027 0 -2 0
1170 0 2 0 10.091718791612285 8.44745956520881 9.088266764534097 3 3 0
918 0 2 0 2.32283980893362 9.25979672025989 11.000703194888585 2 -1 0
872 0 2 0 4.457448828605992 16.963544852776472 10.310228169124134 1 2 0
831 0 2 0 4.0764313747068694 18.35094510579221 4.794921032038333 -1 -2 0
145 0 1 0 3.040415801379604 0.26373219505724066 8.496613527885412 -1 -1 1
481 0 1 0 6.221072282113565 13.102745043761676 9.472834774741411 0 0 0
721 0 1 0 -5.066602727515777 19.79369797142452 1.3325921544462478 0 2 0
95 0 2 0 14.734500374994035 -3.9889674070365997 13.708833273238469 0 1 0
2479 0 1 0 0.0861752412564912 12.921588292147108 4.302435185141999 -1 0 1
140 0 2 0 -2.6628994023106642 13.299458120609264 1.551807705230225 0 -1 0
601 0 1 0 1.9660466375077046 18.459075992490867 1.9249265882165325 -1 -3 0
523 0 1 0 3.5926164536480703 14.046129353752312 2.6933827631859417 0 2 0
96 0 2 0 6.376362038883277 16.389115109208294 13.200733268823473 0 0 0
2363 0 2 0 8.113541893903152 14.143048677303135 -0.6343329473099173 0 0 1
642 0 2 0 -1.6014843127866352 17.624563889344607 7.811691916654684 -1 -2 0
1532 0 2 0 9.776572255866252 6.354871538015571 15.894029308736345 1 2 0
111 0 2 0 2.656955281924461 8.000891459244055 8.799053789792241 3 2 0
1728 0 2 0 10.219118529679832 4.023512940418127 13.265505821009633 0 -1 0
1361 0 2 0 9.004263964004126 5.062970963008835 8.332921306012684 0 0 0
423 0 2 0 1.0177556023556515 6.942173733130098 13.544236847076332 -1 -1 0
1726 0 1 0 10.96115453310219 3.6144611216707485 12.723100985383942 0 -1 0
110 0 2 0 2.8740111609145473 7.918086199828445 7.3027169876458995 3 2 0
561 0 2 0 0.9250507841383957 12.856537868041876 0.9854988625248045 1 3 0
543 0 2 0 1.8342470254578354 10.701849258606847 5.394323058245452 -1 -3 0
740 0 2 0 2.7219949389028306 4.961593131694013 7.7015017802756685 0 0 0
1148 0 2 0 -0.15497736473662563 6.08377327253998 3.8620378424057957 -2 0 0
777 0 2 0 4.951096687065432 13.789452303859727 0.335558321638731 -1 -2 0
103 0 1 0 2.7280895689364395 14.462532534304817 12.136130386006817 0 0 0
558 0 2 0 7.750203963749891 4.659041983598157 4.980612733914824 -2 -1 0
718 0 1 0 2.200067630165046 9.154568951203844 4.037741632971544 0 -1 0
129 0 2 0 3.8688795307866517 2.458323262395999 1.9240752408162427 -2 0 0
559 0 1 0 1.40931130789299 13.685249729163989 1.0881063296030655 1 3 0
808 0 1 0 7.166624241141892 16.505364635518376 8.693444929075758 2 1 0
396 0 2 0 2.993769879501374 -1.7247376368381102 5.316772132012673 0 -4 0
322 0 1 0 3.0147896009060555 -5.311159596044349 15.552008379836652 1 1 0
372 0 2 0 13.466761970491971 -0.9955243191461136 5.221335952956961 0 1 0
1541 0 2 0 10.250083599653959 3.6164916241231397 9.56825745306808 0 1 0
377 0 2 0 10.166232305906979 10.079648278247276 4.374807703944554 -1 -5 0
330 0 2 0 9.697619091969235 4.522860458496494 4.164592153586608 1 -2 0
64 0 1 0 3.135837303840464 10.528079174448312 -0.5804781070426615 0 0 1
1528 0 1 0 5.6615882895731575 7.0341406705902125 3.9415176437632296 0 3 0
993 0 2 0 -4.302145827505055 15.972686420245536 9.382565685435225 1 2 0
312 0 2 0 4.2572838719901895 11.29866867769623 7.371478592088295 -3 -1 0
897 0 2 0 2.6531528097603485 6.034712686237543 14.560669861780717 0 -2 0
1676 0 2 0 4.485230456942445 7.12461743156717 0.8990240362488688 -1 0 0
1520 0 2 0 6.0439984878010575 0.2625383283025756 -0.3001027504959878 0 2 0
124 0 1 0 14.499325420106935 1.1891150697375785 3.1495511869778348 1 2 0
451 0 1 0 8.330229210252849 11.066186263378293 0.8083333602026854 0 -2 0
167 0 2 0 -1.7027265269956335 7.061586561463067 11.924889473365328 0 -2 0
259 0 1 0 3.55290262763686 14.362446539164866 -0.4234002615409034 0 1 0
233 0 2 0 -5.579378654223032 15.618835149783902 1.5329152209097967 -2 0 0
1105 0 1 0 1.2599097588272452 16.713941677445085 8.371087662988314 0 -3 0
45 0 2 0 14.687873022162092 1.2379671141767954 0.994585121832561 -1 -3 0
128 0 2 0 3.450572852616646 1.0380569467975165 1.6803293692043608 -2 0 0
782 0 2 0 10.347361310760755 1.178865033484044 13.156637554396108 0 -3 0
1226 0 2 0 8.982305182578667 -1.2344049260056522 14.344635582243912 -2 -1 0
692 0 2 0 12.35312893866036 3.3805807867400133 8.193133229473801 -1 -1 1
17 0 2 0 8.86710700654434 7.301519109618014 7.452536239212693 0 1 0
778 0 1 0 2.3710634239628603 0.537150844427627 15.230211644275597 2 1 0
1542 0 2 0 11.08373810966985 3.430272293430018 10.85558454302856 0 1 0
959 0 2 0 8.002718710832687 -3.6712860450489564 10.67141338288337 0 2 0
741 0 2 0 1.8148738349020093 6.158188597883095 7.823744918318695 0 0 0
532 0 1 0 5.688187878522369 -3.1489415409537056 13.519606656906914 -1 -1 0
1043 0 2 0 2.9640301230369044 3.157029167895249 6.535721240461262 -1 1 0
1677 0 2 0 5.900267743765193 6.787778046750911 0.5429770311660318 -1 0 0
608 0 2 0 4.959738286582911 2.4714723869323496 5.176412576492478 -2 -2 0
506 0 2 0 -3.6520925139780873 13.952489744002989 8.809249136560915 2 1 0
1706 0 2 0 6.4339062007595045 13.500043892506579 12.468058403734888 0 0 0
1360 0 1 0 8.70401909418306 4.246685403009209 8.747475075317286 0 0 0
706 0 1 0 -4.548777507819948 12.150122104314125 11.142031445500182 1 4 0
1024 0 1 0 3.641005636321106 9.263216223255519 9.766241580996743 2 -1 0
1208 0 2 0 11.628991162966136 -3.0808091246680744 10.646145089358019 0 0 0
789 0 2 0 4.305686759627341 7.997662467891479 14.822756161673084 2 3 0
1209 0 2 0 10.5429254377209 -3.1589739873113682 11.634536793708373 0 -1 0
871 0 1 0 4.223238734627568 16.056775676650165 10.195608307970984 1 2 0
1339 0 1 0 2.314307773685429 2.8028641139981376 11.511455986378444 0 -1 0
374 0 2 0 2.822972754895192 12.531128391969453 8.942618202159442 1 1 0
168 0 2 0 -2.6628829927847084 6.002260442574917 12.432349805743998 0 -2 0
52 0 1 0 5.858682912205701 13.005190316309712 5.386467668934099 0 -3 0
148 0 1 0 5.8884428775824755 8.397038922548067 11.400107959451702 3 5 0
149 0 2 0 6.6191349301655 7.73523665302639 11.280542320837233 3 4 0
910 0 1 0 4.671898816681471 18.711429028615736 0.4066912412683732 2 2 0
1237 0 1 0 5.506014650571642 6.71485946934577 7.214443015769541 2 1 0
257 0 2 0 -1.0404077423659184 18.849042230495233 4.205614239514009 3 1 0
606 0 2 0 -3.319270723709651 8.59679023088778 15.233406819140841 0 -1 0
376 0 1 0 9.518389078450728 10.86075265884792 4.4184122783028466 -1 -5 0
1098 0 2 0 4.326921086406821 14.889376309631924 7.08984140675354 0 -2 0
177 0 2 0 8.986019666300374 10.470330069152741 7.3375535237788565 2 -2 0
1705 0 1 0 6.823438188202191 12.979929404940913 13.18934034780437 0 0 0
2222 0 2 0 11.322390613641383 6.059158825828005 6.054485075833092 -2 1 1
979 0 1 0 -0.3759724988494308 15.31611659248712 -0.030135318164005498 -1 0 0
324 0 2 0 2.960583979981357 -4.6624311358809045 14.81896074103363 1 1 0
1239 0 2 0 5.114813585957454 6.213875591326794 7.923052686175787 2 1 0
1127 0 2 0 0.4805527275823965 17.05669039219148 4.065993904313097 -1 0 0
41 0 2 0 -7.720943482137228 15.083751682595253 10.81218402117819 -2 -2 0
902 0 2 0 -4.202693635362769 11.344342816889519 12.930066907462404 3 0 0
2415 0 2 0 -2.9644085798899606 9.229263047131653 1.6228911362274068 0 2 1
142 0 1 0 7.544806329065013 7.289926617773965 14.153463322306942 2 -1 0
994 0 1 0 9.226026347240932 13.268244344137774 3.36653463957322 2 0 0
1090 0 1 0 0.949268000139664 5.2695194271026145 1.0616518948600708 1 0 0
495 0 2 0 0.23976930188425297 -1.431036110080196 7.298730808803397 1 -1 0
1169 0 2 0 11.012103415264272 7.255477009268004 9.042763424087719 3 3 0
804 0 2 0 -4.195327006536662 11.383742686943219 0.6435138583821276 1 -1 0
1037 0 2 0 6.532375465623225 -1.8549459709509417 7.531827671160411 -2 2 0
944 0 2 0 0.3878887827242304 17.099521458160186 -0.40011149631140047 -1 1 0
311 0 2 0 4.523150259786783 10.106085032987126 6.39293024135856 -3 -2 0
1593 0 2 0 -1.194730994185504 1.9061054271060387 11.853460201786328 1 1 0
560 0 2 0 0.8639751533572446 14.32088171220133 0.5932113783561548 1 3 0
819 0 2 0 11.147349575737046 3.172771429733865 -0.6027050131881189 -1 0 0
1163 0 2 0 -1.1844026002027368 14.920442740872831 6.577188702785238 -1 0 0
278 0 2 0 -1.465667816217431 13.609258246517658 9.05507140440172 -2 0 0
1447 0 1 0 10.841923113121839 3.462878795219336 1.2342048005319897 1 2 0
2326 0 1 0 -2.703800085729801 18.469135364385764 1.0137041115926457 -1 -2 1
18 0 2 0 8.561448757790842 6.255588935684946 6.3403498058040935 0 1 0
633 0 2 0 7.734943311785036 -0.31594736745340635 0.6823959832876418 1 -1 0
1029 0 2 0 0.8039570807248141 -2.0812429396802408 9.433507204281076 1 -2 0
270 0 2 0 8.78818883764011 6.903106996873887 10.422604035185802 1 2 0
432 0 2 0 -5.625837156607503 13.2046725394851 3.1327433088129863 2 2 0
768 0 2 0 9.096731783034723 -1.9444490528025755 10.238168436212218 3 0 0
2413 0 1 0 -2.2062053809708773 9.568821657482053 2.1862522135164117 0 2 1
1146 0 2 0 11.12606846632157 1.4666244303445897 10.099668097961391 0 2 0
391 0 1 0 -6.485995316388977 14.73911170014614 6.9323940550006045 2 2 0
1309 0 1 0 -1.3563138547705265 12.534241470523689 13.04126740059914 -1 -2 0
63 0 2 0 -1.5373861229040924 8.857647955021601 6.2098245799170275 3 2 0
759 0 2 0 1.8649793395624905 -0.19857075669140745 12.468569142585343 0 -1 0
509 0 2 0 4.4487811290102695 -2.371644350884067 7.165602426337923 2 0 0
541 0 1 0 1.7417054222164312 11.513803178805551 5.8924462253139485 -1 -3 0
557 0 2 0 6.803017297646891 5.913661303747853 4.62545571610757 -2 -1 0
2328 0 2 0 -2.423725164674941 17.73328925418339 1.5286699042344583 -1 -2 0
641 0 2 0 -1.401541665307431 16.677503892781825 9.03315969844889 0 -2 0
141 0 2 0 -2.467357046868399 12.476783676169694 2.9464361585887815 0 -1 0
2352 0 2 0 8.778591467346326 8.073990958213326 1.8617560134568962 0 1 1
1051 0 1 0 2.579441040961207 11.709589820617325 12.216340202702813 0 -1 1
373 0 1 0 3.5086740778895162 11.985378610917616 9.32494015523536 1 1 0
2162 0 2 0 -1.7503482483423016 6.220172439384063 1.9483811467044352 2 6 0
1432 0 1 0 8.303058422978367 14.528946204519027 5.438668967484287 0 -1 0
1264 0 1 0 0.4785089639451051 -1.141371685011657 12.875983876804392 1 0 0
1434 0 2 0 7.993957911753495 15.416154414681786 5.541641222896265 0 -1 0
1675 0 1 0 5.210703020062179 6.604900846809864 1.209161367532825 -1 0 0
719 0 2 0 2.6733808518993203 9.812002106361504 3.5541180477632652 0 -1 0
1144 0 1 0 10.900611144758935 0.5065900935932799 10.153682849997033 0 2 0
723 0 2 0 -5.522614533377542 20.230199862730196 0.5715184175974322 0 2 0
522 0 2 0 11.10652494837416 0.9376022415324885 3.4601648219875276 2 -1 0
611 0 2 0 -3.4675061423305507 8.935261921207994 8.398873253502542 -2 -3 0
1530 0 2 0 6.110098716422845 7.925865697482172 3.8567632279275994 0 3 0
1157 0 2 0 1.3015465845997247 1.782589242501065 2.5133039567460904 1 5 0
632 0 2 0 -0.1280361690015087 20.495989696898928 0.8575014954250721 1 -2 0
1069 0 1 0 3.6666120371177886 4.157240243738668 0.4678932511578098 1 -2 0
131 0 2 0 7.2021024395329025 16.877228259701074 2.0235769594021438 0 -5 0
948 0 2 0 -7.6461175448686385 20.046046244558255 2.907533371348299 4 4 0
1145 0 2 0 11.687704013674908 -0.018307621979028355 10.047027768733326 0 2 0
1700 0 2 0 8.09492278248089 5.4694496064289675 1.5872748481221497 0 0 0
174 0 2 0 11.293171137895161 2.0101316293848766 6.591780141715005 1 0 0
1061 0 2 0 4.008679825223207 11.509298664684934 13.289511712778745 0 1 0
1529 0 2 0 5.552142448687879 6.806195981702751 2.9668522332362772 0 3 0
483 0 2 0 6.441397524187296 12.292983398307175 9.929987394331613 0 0 0
708 0 2 0 -5.438809332405626 12.03353351483522 10.738084016557082 1 4 0
1266 0 2 0 0.11245830267365176 -1.800393818330856 12.316871999677268 1 0 0
1044 0 2 0 4.312571014297459 3.2223178960172314 7.362021959204208 -1 1 0
431 0 2 0 -4.657393921323243 16.857332637379123 1.3615958626319635 -2 0 0
2460 0 2 0 8.124384062376286 3.840107843820771 14.610066305661803 -1 -1 1
932 0 2 0 5.648652091529861 15.583105755186619 11.156221044234444 -2 -2 0
40 0 1 0 -7.728323388277798 14.659716239953514 11.71001072220066 -2 -2 0
421 0 1 0 1.3194191690491186 6.115449684978164 13.245845636961294 -1 -1 0
1149 0 2 0 -0.8841558969765152 7.37828313322814 4.101256785414257 -2 0 0
2193 0 2 0 10.895078739850353 6.9888821741533595 -0.6916950892650683 0 0 1
310 0 1 0 4.932878821738718 10.978855867774318 6.741120035385854 -3 -2 0
958 0 1 0 -1.3119095536813967 16.9306411154271 10.662723350924855 0 1 0
411 0 2 0 3.570042480647554 20.499475053796584 0.3444009644605386 0 -2 0
991 0 1 0 -4.30737881304372 15.603061076572555 8.500914548883685 1 2 0
1028 0 2 0 1.5186465712911232 -0.6647419640034671 9.088712095815483 2 -2 0
266 0 2 0 0.1608846679921671 6.292280413336025 10.47964846302066 -1 -1 0
442 0 1 0 3.054226507249065 11.032096120798748 2.1672425816547674 0 -2 0
873 0 2 0 4.474436828884164 15.85023321782581 9.268139275219822 1 2 0
1071 0 2 0 2.88936841082086 4.625236443226609 0.8098253382619074 1 -2 0
927 0 2 0 2.2578053096329334 -2.9013727908693574 12.906048592515978 2 4 0
1129 0 1 0 -4.041042547926802 11.600225686325988 6.932535572464178 0 0 0
563 0 2 0 -0.5007190738381481 8.844057557599713 1.8095936446453633 -1 1 0
513 0 2 0 7.384729410090806 12.532965302841925 2.8119491947209365 0 2 0
1685 0 2 0 2.262383333189719 -3.4881436236212577 10.313167778946578 -1 -1 0
323 0 2 0 -5.334097738290334 15.774670504692693 15.493119171260206 1 0 0
2327 0 2 0 -2.019364425683195 19.16160681761975 1.065152401849837 -1 -2 1
1096 0 1 0 4.898801404904919 15.193111915420124 7.754926086063387 0 -2 0
674 0 2 0 0.9760354626106479 -0.9092987879469518 5.352227408815847 2 3 0
1686 0 2 0 -7.951872871682466 16.96199864061971 9.703351127378877 -1 -2 0
917 0 2 0 0.7877220769782016 9.631516192139433 11.292111577897444 2 -1 0
698 0 2 0 6.3097217575201805 16.160398684239844 0.31951187134724557 -1 -1 0
202 0 1 0 3.3900606881294237 6.34640307745565 11.501136361851188 0 1 0
217 0 1 0 12.559649735576553 4.030983985018736 3.669134006094615 3 4 0
393 0 2 0 -5.740544220566386 15.20982817166451 7.317649217805393 1 2 0
830 0 2 0 4.879111561537359 17.145920720475832 5.4817769122928395 -1 -2 0
1278 0 2 0 1.75263472657659 10.05356715443892 15.570873838880667 0 1 0
507 0 2 0 -3.481097184761572 12.544730449262122 8.175389315010335 2 1 0
977 0 2 0 7.157793297220255 17.250018833336426 4.449290765271552 -4 -4 0
565 0 1 0 7.332167177922532 2.6804662984034997 6.780134444919072 -4 -3 0
1613 0 2 0 -1.0327275481424643 15.958180672574827 13.534776855096133 -1 -1 0
172 0 1 0 10.379020346563708 2.0568867102246786 6.3016757990886765 1 0 0
1561 0 1 0 0.8637874500979146 5.20101806328186 5.056696519619995 0 0 0
220 0 1 0 7.2910974452055335 2.215041738637985 12.001913877985201 1 -1 0
640 0 1 0 -1.4700962281731822 16.6624781069097 8.064426482494191 0 -2 0
1036 0 1 0 7.412469039119953 -2.259102660827983 7.404942592094992 -3 2 0
992 0 2 0 -3.3939685846393894 15.889003089426978 8.201990530318048 1 2 0
512 0 2 0 6.184361057739904 12.450164249840473 3.6662225367903867 0 2 0