LAMMPS data file via write_data, version 23 Jun 2022, timestep = 106000000

2592 atoms
2 atom types

0 31.216999 xlo xhi
0 21.524542 ylo yhi
-0.9352725271900226 32.73099155296425 zlo zhi
-9.212092 0.781356254117656 -11.339570510793234 xy xz yz

Masses

1 1.008
2 15.999

Atoms # full

1047 0 2 0 12.351546018886083 2.402946073699982 -0.5814324415227519 -3 -3 0
12 0 2 0 2.2417357830166247 6.733574122319409 -0.0963685725201171 3 3 0
1232 0 2 0 -1.1818343842319554 10.607613962310564 0.019485520791797994 -5 -3 0
998 0 2 0 -1.0222371807601438 11.70352010126093 8.86545066034105 -1 -4 0
411 0 2 0 8.768129833140991 2.8507730988855435 5.035644287487302 2 0 0
815 0 2 0 8.65748030424023 4.665953106713879 3.8306745199642043 0 0 0
125 0 2 0 -2.7041391538871378 6.351325855569906 7.616444671472044 3 3 0
1612 0 1 0 6.337305081214232 17.547138633512212 -0.46755212812279645 0 1 0
75 0 2 0 10.932708459381436 1.6671031675874595 15.630251529648554 1 0 0
1324 0 1 0 1.112699257910226 19.526823963417772 1.1006867958482212 1 0 0
14 0 2 0 2.8459016974493703 5.95246488172174 2.4605185463987755 1 0 0
103 0 1 0 11.437256112926937 0.8680796502845229 13.672681699303595 -2 0 0
1043 0 2 0 3.2101364245127444 10.444926845622046 14.057380032979982 -2 -5 0
656 0 2 0 -2.3896372171314275 10.641133363873534 5.575452724045944 -5 -1 0
1455 0 2 0 11.897303212881532 5.265650311194736 4.964602198715046 -1 1 0
1372 0 1 0 1.7322284082693342 -2.6740915043136173 9.705376326362458 1 1 0
43 0 1 0 7.855709896681024 -0.46283306699364224 6.36401199775779 0 -3 0
905 0 2 0 1.0913966266971915 6.132342538816398 14.108501046644717 0 -2 0
2588 0 2 0 9.302200102901432 2.844217291607432 -0.43525645146939307 0 1 0
778 0 1 0 5.460310733604957 13.575035415255869 6.700741666070643 1 2 0
534 0 2 0 8.602864645282368 10.551971582408374 4.023006819617942 -2 -2 0
1325 0 2 0 0.5107220400104424 18.831116736714286 1.4323460267113464 1 0 0
417 0 2 0 -2.767798141929487 19.38916678983342 0.8671622158230574 1 2 0
1135 0 1 0 -1.053476366281823 1.5047698863502745 15.270529627859577 0 -1 0
2378 0 2 0 -2.1675741990145245 15.415724463586852 9.864493802213177 2 1 0
220 0 1 0 6.915946776573902 11.257300288973806 0.6893235681164092 1 0 0
1505 0 2 0 10.513362885133336 2.062013268583252 1.9575525245232215 0 1 0
872 0 2 0 3.5490559366537693 9.659003812383107 2.2479135292099373 3 -2 0
234 0 2 0 6.657523848172392 17.14108064514735 5.675333816019707 -1 0 0
679 0 1 0 1.072653766584583 12.878530669006343 1.069271801813286 -1 -2 0
1424 0 2 0 1.544299645354713 19.478901984218773 4.197896910507268 3 2 0
297 0 2 0 7.763048549728154 8.82180840748819 2.4155790307656613 1 0 0
262 0 1 0 9.826769292217788 -0.9644462897545312 10.850240887782169 0 -8 0
24 0 2 0 -0.8476720473717941 1.1300151621408994 3.168684004191702 4 3 0
816 0 2 0 8.051905707020392 6.004356988761373 3.6415019925202055 0 0 0
40 0 1 0 -2.0088268698105374 10.843576421326956 13.22671878459728 -2 -2 0
1178 0 2 0 8.505046506722161 7.5049334435547275 6.1766659898680185 -1 -1 0
290 0 2 0 9.760504404237125 10.700242075553959 0.617171440013544 -2 -1 0
239 0 2 0 0.516326488444736 1.5010819468440069 10.590990034717068 3 1 0
688 0 1 0 6.01592573934637 14.885393411118299 0.341104917472578 3 -5 0
2327 0 2 0 3.029593070871788 15.048829906966734 13.926260870123338 -2 0 1
42 0 2 0 -1.7754710534883835 11.61115239623934 13.796147016316288 -2 -2 0
119 0 2 0 -6.323748740069333 13.45951144008647 13.299705947546862 4 0 0
1270 0 1 0 5.25766015451518 6.3188917648631335 9.30772382754038 0 0 0
277 0 1 0 7.260636564669658 1.4984397662787199 1.8349021256246658 -1 -1 0
649 0 1 0 11.452972583936461 4.630205515449569 15.663664128222877 2 1 0
238 0 1 0 0.9573178949941336 0.7330892567831806 10.921724732129658 3 1 0
2511 0 2 0 -0.08828636021895303 5.6612584409696485 8.142119326703487 0 -3 0
128 0 2 0 -0.7062378149558965 17.681549819494034 7.966639558119136 -1 0 0
1224 0 2 0 -3.548868512595524 15.305739265172974 5.326128302893521 -1 -6 0
219 0 2 0 6.174811962429785 14.897433121674018 4.143622057782556 5 6 0
1198 0 1 0 5.735671595214151 7.039513983921396 14.052037040601226 -1 -2 0
865 0 1 0 12.492009770718271 -1.3072539753868506 15.47516676957149 -1 -1 1
1131 0 2 0 -1.2480143362383638 3.4365604563236416 5.794149635581448 -2 -2 0
278 0 2 0 8.036823577392381 1.1572419416552364 1.4182869119869763 -1 -1 0
845 0 2 0 -0.6203669264949262 6.931549567257536 6.365046420351652 3 3 0
1238 0 2 0 -6.862875485948375 13.840097230480852 7.710194469663428 2 1 0
1277 0 2 0 7.650650956473048 8.726623926469955 6.495367253779173 -1 -2 0
1276 0 1 0 7.859089482066152 8.132473059193856 5.77828086968102 -1 -2 0
502 0 1 0 4.244688626696235 -2.060421630953111 13.017504748738043 -4 -5 0
2509 0 1 0 0.42854759087104244 5.601068626550089 7.314196557040281 0 -3 0
364 0 1 0 4.070415030435626 12.33308326901043 11.51670486890413 -1 -3 0
811 0 1 0 1.2946428575409978 16.112036524927344 9.9284750272707 -3 -4 0
1151 0 2 0 -2.716614880983287 16.87805757983987 11.350092231418742 -3 2 0
876 0 2 0 4.427406548749865 4.473937897557604 14.918597992159697 0 -2 0
1200 0 2 0 5.118874979935683 6.607564878452414 13.414855148874263 -1 -2 0
812 0 2 0 1.9159505758059783 15.39650347076443 9.72526455232125 -3 -4 0
1033 0 1 0 5.499823848046818 10.51780680117846 4.757686282576503 2 -1 0
814 0 1 0 8.112950630011738 5.189627180587077 3.23185875969744 0 0 0
1256 0 2 0 1.0096878097628483 3.5058020736571756 9.699577092644995 -2 -3 0
1449 0 2 0 0.35882678979039656 11.61881650999035 3.785779267177211 2 3 0
1504 0 1 0 10.320030769337988 1.1917929628483592 1.6354453801016726 0 1 0
780 0 2 0 4.483544906324904 13.450982658617264 6.953690718889998 1 2 0
798 0 2 0 0.35426753172764214 7.928174049852284 1.082897612886987 0 -1 0
1374 0 2 0 1.096605106919598 -2.729044184448223 8.975817740973902 1 1 0
528 0 2 0 3.679549727679785 9.537736755351508 8.905985630069083 0 -1 0
41 0 2 0 -2.8853882390490426 10.630081674882554 13.467752937416776 -2 -2 0
686 0 2 0 -3.7191253613936825 12.744896677070578 1.4736694713095924 0 -2 0
410 0 2 0 10.264547006704937 3.411215689864553 5.080799231711139 2 0 0
584 0 2 0 1.9862469179957247 2.835950198544692 1.121947266730297 0 1 0
862 0 1 0 -3.992299129551597 8.154391086443006 10.943710137758059 0 -5 0
264 0 2 0 10.257234306782058 -1.4178362115369278 11.615783555534971 0 -8 0
54 0 2 0 1.3751321376864918 -0.23159776361078466 4.378022283315879 2 0 0
228 0 2 0 11.38357165383443 -1.9127129919088568 14.055458337240381 2 -3 0
714 0 2 0 6.147236661408486 8.562296491491914 13.053672930551675 0 4 0
367 0 1 0 9.314371653710214 6.025084540543868 15.075353534583964 -1 3 0
1150 0 1 0 -1.7647047740257087 16.731052157007724 11.244941086055414 -3 2 0
301 0 1 0 -0.7988286103506688 -1.2227571544008207 12.460796584394776 0 0 0
341 0 2 0 3.0203734428120406 7.612001640944856 7.567425471702002 2 -3 0
849 0 2 0 7.931857914027658 14.52073870064464 7.3917606826222855 -1 0 0
1003 0 1 0 0.8581467050414389 9.904958697803451 6.87748667255711 3 1 0
746 0 2 0 0.23987010082897892 15.174043697923345 11.25665935683395 0 -3 0
222 0 2 0 6.874774584956927 10.344396153192655 0.9734532171923085 1 0 0
850 0 1 0 -4.652354062681245 17.079631483807265 10.53385948698046 -1 -2 0
2292 0 2 0 4.253788332211741 0.07787092609711929 -0.4459582044092377 2 2 1
1193 0 2 0 12.591118902379188 1.3669416586190835 4.702015071067187 3 1 0
1218 0 2 0 -4.836214818149368 11.11517358894546 12.168938006356514 0 2 0
782 0 2 0 7.771295758712566 -2.6054209906066865 15.188523840733012 1 -5 0
953 0 2 0 2.072801612256336 4.245503710788421 6.680352901233027 -1 1 0
1001 0 2 0 10.004789339405312 1.3724109218811136 7.544092631585087 1 0 0
332 0 2 0 -1.8351727344509223 15.082495559291317 6.6743135180191535 -1 -1 0
375 0 2 0 1.3951503814027453 11.1237043720649 10.380435946103894 -1 0 0
229 0 1 0 6.738126689803797 3.956639557227062 8.208357976743683 0 -2 0
1085 0 2 0 -2.1050155761977183 10.115928141111509 2.0066553024113416 0 0 0
1034 0 2 0 5.362994104928997 9.82241522158173 4.105978959514112 1 -1 0
503 0 2 0 4.159574710979867 -1.3854603743635967 12.325169455500955 -4 -5 0
1425 0 2 0 1.3090753386220753 20.047299112377544 2.7891805541379173 3 2 0
1006 0 1 0 4.266789381935593 -0.9517439332442867 15.487343542896632 0 1 0
1447 0 1 0 1.0641889329590684 10.95988843241694 3.667576590602369 2 3 0
2187 0 2 0 1.4165794784515202 16.713573337030898 4.804665202055065 -1 0 0
1289 0 2 0 0.603692210979098 -1.0473224297602386 6.69933148590927 -1 -2 0
211 0 1 0 12.966407148833916 3.566516721731416 2.173122141867648 1 3 0
140 0 2 0 5.9168200497662555 10.714677017865853 14.144547713197245 -1 0 0
1042 0 1 0 3.1141021465649117 11.438623686249556 13.928066551295966 -2 -5 0
242 0 2 0 1.8201740159559074 11.764750457195023 15.072310345888244 -2 -4 0
526 0 1 0 3.6727313982694536 9.363941295025999 7.960241762300438 0 -1 0
915 0 2 0 -0.20936837374022915 -2.6861030989734513 15.404862463026593 0 1 0
26 0 2 0 7.183967056828196 -2.252775699051596 9.33306191817836 -1 0 0
532 0 1 0 8.774455326211733 9.619059280399586 3.7462382402418246 -2 -2 0
124 0 1 0 -3.343036778236698 5.6399447723461575 7.9016145261469415 3 3 0
573 0 2 0 -6.995014639852367 18.160226037391375 3.7537440839685283 2 -2 0
1448 0 2 0 0.6656368191399272 10.080373409704828 3.5525091384044067 2 3 0
1008 0 2 0 3.9847643797324865 -1.1806509146037696 14.6051504945976 0 1 0
1492 0 1 0 3.1757757666062494 5.552714873889536 0.7431282911141652 1 0 0
555 0 2 0 4.238104189581237 14.751383597138059 10.011188436669494 -1 -1 0
1489 0 1 0 3.4950248243476727 8.780849300841087 14.569434733755594 2 -4 0
756 0 2 0 -7.12139367009216 19.762449234060217 0.03787227402250215 -1 -1 0
2162 0 2 0 4.87203715418943 0.6209220087127578 11.161824706749991 1 5 0
225 0 2 0 4.93830224630266 1.0452729783047046 15.284640016715382 -2 -5 0
1711 0 1 0 -0.022959356770466843 15.443160792676585 14.616498137987334 2 0 0
620 0 2 0 0.6504803710873008 12.407299635999959 12.154076121845996 0 2 0
851 0 2 0 -5.448560259101887 17.08481157229071 11.134185622426662 -1 -2 0
185 0 2 0 3.5593848221632576 -2.751820607792409 12.92747870633027 -3 -5 0
678 0 2 0 -1.8721274862280333 7.758642670674159 -0.7395729784628685 2 -1 0
1661 0 2 0 8.47750624495761 8.821614476993119 11.291526740838297 -1 -2 0
1413 0 2 0 2.0383400154577673 17.209124902385096 11.091509277757485 1 -4 0
218 0 2 0 5.297509345384518 16.08294657371623 3.795493947613207 5 6 0
510 0 2 0 5.510325985068896 9.768580810744416 7.562477395226189 1 0 0
320 0 2 0 1.7365841963169977 7.797753645674569 4.416064208736732 -1 -2 0
923 0 2 0 0.04102378492744407 4.110920497475676 0.5100986714545859 -1 1 0
1287 0 2 0 5.407697332961064 3.6294494289576007 0.3982739543816052 1 1 0
331 0 1 0 -2.5954190039892615 15.668831700510646 6.808551782589251 -1 -1 0
626 0 2 0 9.7913988390662 6.924134461272872 0.7002155513448884 -1 -2 0
1211 0 2 0 2.732858368412007 0.18981047953130492 8.362489169076397 2 -1 0
574 0 1 0 -3.7908985068859624 12.126878749645634 3.620691264420077 1 -3 0
747 0 2 0 0.148390937748624 15.110291413973428 12.845408345618994 0 -3 0
1710 0 2 0 -1.7336816861032633 7.145792822557373 3.22823837349641 2 0 0
624 0 2 0 2.9606769327817357 13.206160500960191 3.9329557516022664 -1 0 0
419 0 2 0 7.3620934766443655 12.787855906780589 9.005356721168313 -2 1 0
435 0 2 0 -3.825809437218735 6.6396246736487665 13.308122078075014 3 -4 0
105 0 2 0 12.007891414423193 0.1740714726420638 14.067896695163721 -2 0 0
790 0 1 0 3.112832752617994 13.584881149304875 -0.6055192350809412 1 1 0
585 0 2 0 1.810094494257717 3.026617578003215 -0.39191924109427967 0 1 0
1650 0 2 0 3.151939953123826 1.8583904982691135 6.720575355253368 0 -6 0
1689 0 2 0 5.998734421080408 16.25766602018238 11.09440242852645 0 -1 0
2198 0 2 0 9.605237637215732 5.983604457009652 13.147947246999339 0 0 0
25 0 1 0 8.0253330841953 -2.618931927890976 9.580264659335828 0 0 0
1578 0 2 0 14.887270629092757 -0.9981429976405312 2.4834404954667835 1 0 0
121 0 1 0 8.048410499939548 7.201893013218498 10.522643427105185 -1 -2 0
1613 0 2 0 6.543938264000717 17.93822114924446 0.400194992840057 0 1 0
99 0 2 0 -1.987170489286548 14.130076539953365 12.226389904922186 -1 0 0
1409 0 2 0 1.085306228547089 -3.2337983643985817 13.475733274400849 2 -1 0
2269 0 1 0 -6.108997999613955 14.43264829754842 3.598630849520675 0 -2 1
1158 0 2 0 10.215600844296958 9.628109586921557 2.661854886274504 1 6 0
63 0 2 0 11.790102770553755 3.6908771371791365 6.742519981062928 4 1 0
1662 0 2 0 9.674875029768508 9.649523761274889 11.836240775525011 -1 -2 0
1192 0 1 0 11.620216073555435 1.2308252383988332 4.864044580126468 3 1 0
1495 0 1 0 2.2804653065537925 -3.940625007892114 11.924389425688855 -1 -1 0
1233 0 2 0 -0.17871594975779714 11.327569613236 0.9348147208921602 -5 -3 0
606 0 2 0 3.3581602496347602 3.042679897557966 3.269550486548388 -1 -3 0
1168 0 1 0 5.571149047540009 6.546021116962163 5.13719472413553 2 1 0
208 0 1 0 5.799597289261696 6.3547956997683475 -0.10817597322386296 2 8 0
258 0 2 0 9.850730240434787 6.222407333189862 7.573494629433213 4 1 0
1045 0 1 0 12.425259935213314 3.3880858484937653 -0.5208966260527159 -3 -3 0
330 0 2 0 -7.024752991665041 15.205568153545453 15.053307333046824 3 -3 0
792 0 2 0 3.2729385218105826 14.541372189294856 -0.6030121161953812 1 1 0
1139 0 2 0 1.3122708860115984 -0.8224991328698525 15.303736001932087 -3 -1 0
1375 0 1 0 10.570251777236484 6.702626501664977 9.111391716984535 1 0 0
1561 0 1 0 8.132050291452652 11.396823600442023 15.71592968022907 -2 -2 0
938 0 2 0 -2.5430492842539643 10.733228694106213 10.1721958588985 1 -2 0
979 0 1 0 8.025426760238306 3.633301083082146 13.982863053162722 0 -3 0
660 0 2 0 -3.410022373111678 18.443201168671035 5.758827924978123 4 1 0
658 0 1 0 -2.7503523039204554 18.451871333880916 6.4338006383600845 4 1 0
576 0 2 0 -4.369396989801414 11.963085230102276 4.381865040325386 1 -3 0
1542 0 2 0 10.782412332568546 4.594136261090928 1.601526942302967 0 3 0
558 0 2 0 14.367409608638148 -0.7334898605693596 6.688764518739238 -1 1 0
416 0 2 0 -1.6769092199243731 20.50642973002517 0.31004513970732517 1 2 0
418 0 1 0 7.189427762162302 13.6763167391158 8.64789875599998 -2 1 0
44 0 2 0 8.800012847408258 -0.5749963551939792 6.51740846411298 0 -4 0
449 0 2 0 0.3130826599871215 14.420320703172862 6.440143811797973 -1 0 0
981 0 2 0 8.606633364291335 4.319361566202346 14.213361391344199 0 -3 0
13 0 1 0 2.3265899465421307 6.087556946581858 3.2886109415129656 1 0 0
2367 0 2 0 4.817324066246012 20.858898993410683 0.6841448362642861 1 1 0
553 0 1 0 3.3402225154885983 14.397966175910225 9.933055826858746 -1 -1 0
118 0 1 0 -6.855074566205862 13.317914816542544 12.495551221497811 4 0 0
846 0 2 0 -1.6799686295360277 8.160110020792775 6.080715151303862 3 3 0
46 0 1 0 -5.346348195178223 17.417218781135013 6.835381660167486 2 1 0
313 0 1 0 3.6345896251725023 9.647735589610026 10.851342964722482 2 2 0
713 0 2 0 6.819728194625141 9.751587065144268 12.333965482597174 0 4 0
177 0 2 0 9.181060889960392 12.94896778154146 4.257113593899188 0 -1 0
1411 0 1 0 11.837183845888863 -3.8113705032669585 11.718366835174029 1 -3 0
1278 0 2 0 -1.5173601620445905 17.457156705870627 10.633016772892647 -3 2 0
1002 0 2 0 10.9222191809733 0.9914588359496759 6.361678572935265 1 0 0
1506 0 2 0 10.587679205090154 0.6008758937536982 2.3818226360075987 0 1 0
365 0 2 0 3.8640767554100024 12.128597266515522 12.447360047511122 -1 -4 0
336 0 2 0 -1.9588195939925384 14.636178037001727 1.8153888493322565 -5 -6 0
657 0 2 0 -2.2733328128505943 9.95898732126136 4.325012048139433 -5 -1 0
175 0 1 0 8.69685069781595 12.145706258670158 4.5722503184517365 0 -1 0
141 0 2 0 6.365580828610259 11.656734231676609 15.245259736028554 -1 0 0
1209 0 2 0 0.6603111621903892 8.349271867865685 13.003802415386948 0 -2 0
936 0 2 0 -3.827203485316778 12.98441351318711 6.756997711161855 -2 1 0
855 0 2 0 2.0581976941968168 8.97558930425548 -0.8608321096288709 3 0 0
659 0 2 0 -3.2799915311890557 18.42260617514757 7.301027310437796 4 1 0
257 0 2 0 9.334376835790069 5.099014380841256 6.602667365439313 4 1 0
1664 0 2 0 4.576714721410032 7.873727698839119 3.7194186225124097 0 0 0
1197 0 2 0 -2.4450644641974777 3.985419536378064 14.64270530665615 -1 -1 0
1125 0 2 0 12.753656498117234 -0.7360686817109219 10.701896563824862 -2 1 0
621 0 2 0 1.3817304126138918 11.211891208033407 12.846393116935817 0 2 0
783 0 2 0 9.030725217832616 -2.4173682895149007 14.362716095114644 1 -5 0
1014 0 2 0 5.940675520866362 4.567723635181996 5.371892782365012 1 3 0
1568 0 2 0 6.646490618902492 1.7227887058438007 10.50558844473249 -1 3 0
62 0 2 0 11.844545054270819 4.007596886729898 8.310836566171366 4 1 0
429 0 2 0 -5.995073061986904 14.370159088288933 5.751922332606539 2 5 0
335 0 2 0 -2.2115973933731814 14.937722867278309 3.335474379418593 -5 -6 0
373 0 1 0 1.4890715385646585 11.07149700399054 9.417835973735304 -1 0 0
1000 0 1 0 10.529229173611 0.6261692040239688 7.158197584950651 1 0 0
1408 0 1 0 0.24100231159638208 -3.485119983137966 13.980536057715895 2 -1 0
1156 0 1 0 10.94387087822114 9.77992762441228 2.0527965030747706 1 6 0
415 0 1 0 -1.8655887142913978 19.742781854790383 0.8650284275106215 1 2 0
1419 0 2 0 -0.3686216986728901 14.01670737262712 0.36984292769461513 2 4 0
797 0 2 0 -0.8132048560751245 8.786032853468784 1.7711088811446238 0 -1 0
924 0 2 0 -1.0020950765388674 5.405531207825553 0.7040336212871141 -1 1 0
291 0 2 0 9.377824822077864 9.538111056368244 -0.15580361148940725 -2 -1 0
1569 0 2 0 6.2371195636671395 2.5508589370411356 9.295304792234509 -1 3 0
1119 0 2 0 5.209355802365019 2.9476590032306254 13.583590435925242 2 -1 0
420 0 2 0 7.146401157137868 14.27808408369374 9.425566688407647 -2 1 0
694 0 1 0 8.638420437934382 0.7678591099773939 14.491360523505273 0 1 0
604 0 1 0 4.008301955352804 3.7349070779089537 3.6476529462722036 -1 -3 0
781 0 1 0 8.35685475846103 -3.036726459874871 14.550932241810616 1 -5 0
2161 0 1 0 4.043135920173359 0.28963076270753074 11.45710435869639 1 5 1
689 0 2 0 6.775478241315107 14.61259211690524 0.8603333397931001 3 -5 0
129 0 2 0 0.2992274958071817 16.960519420103832 6.851559631649165 -1 0 0
285 0 2 0 8.753335946691095 13.767103199251759 2.1024734705133614 -2 -2 0
852 0 2 0 -4.664380626441101 16.308825036345524 10.023345493784573 -1 -2 0
1288 0 1 0 0.041797957762046395 -1.644148442675055 7.153020633793252 0 -2 0
1225 0 1 0 9.02170711520184 2.525717532558366 8.236125956991177 -1 1 0
2365 0 1 0 5.466236437071371 20.183771054947115 0.8418666922471918 1 1 0
52 0 1 0 1.7079966527562118 -0.5642984375478235 5.223965003066353 2 0 0
1196 0 2 0 -1.4511022662976392 2.857482731165077 14.17521990418026 -1 -1 0
240 0 2 0 0.318373478090848 0.20936256186712487 11.361301368908645 3 1 0
813 0 2 0 0.816701531500515 16.366286056778403 9.132556920707318 -3 -4 0
583 0 1 0 1.6671008022399072 3.497583348608035 0.4918028746671148 0 1 0
508 0 1 0 6.445596042956491 9.85701177034751 7.356841567075898 1 0 0
652 0 1 0 -1.2697051179224201 12.941341570434513 15.176379061076357 -3 -8 0
1496 0 2 0 1.9655177846950314 -3.5200959917076666 11.083726705856925 -1 -1 0
366 0 2 0 3.497333441671568 13.09881662703813 11.207409560940471 -1 -3 0
176 0 2 0 7.752649059492246 12.413159618746555 4.325248140970177 0 -1 0
1100 0 2 0 6.766520835606817 4.484884454099376 2.4113231062754026 0 2 0
1484 0 2 0 15.03044760522981 -3.1296888638346436 8.990616792461879 3 -1 0
1540 0 1 0 9.94847025758029 4.052296161359895 1.4723936742123098 0 3 0
1117 0 1 0 5.315426776908999 3.8664278182337934 13.365732838977987 2 -1 0
398 0 2 0 -5.657969552811283 20.09204473321853 2.038764161791384 1 0 0
1169 0 2 0 4.923595740184422 6.695959542520502 5.850774413975134 2 1 0
719 0 2 0 5.386435993835676 15.830822163066259 15.666410943143728 1 -1 0
173 0 2 0 4.845405890490758 -1.5878694916758909 8.787364658751903 0 1 0
627 0 2 0 8.788534681107512 6.776956974146308 -0.49263251562803567 -1 -2 0
448 0 1 0 -0.5244296521450125 13.976988747054671 6.505949947203728 -1 0 0
226 0 1 0 10.695954409786454 -1.972816688188924 13.402240794676562 2 -3 0
771 0 2 0 -1.5084367921255795 20.223935945931064 2.6726906802663626 -1 -1 0
1457 0 2 0 -1.2119821996052573 18.13419822764384 2.716222853443253 0 -1 0
2530 0 1 0 -2.9337194440302827 16.2736191750681 14.355632232263886 0 0 1
1698 0 2 0 0.11508004053261386 1.71843749532861 6.6074642173038685 1 3 0
1101 0 2 0 5.14521995391295 4.471417938841128 2.278633090982441 0 2 0
654 0 2 0 -1.9822814209328372 12.657680958457622 15.840267890040202 -3 -8 0
1026 0 2 0 2.590838386147103 3.5435241149427394 11.468288335007266 4 -2 0
1199 0 2 0 6.235346130813503 6.3972227509152 14.575482609477236 -1 -2 0
988 0 1 0 6.633225391290197 18.100386609013274 2.3572812897223403 1 -1 0
167 0 2 0 -1.1255113897304632 13.312188737565291 3.4948708236905404 0 -3 0
450 0 2 0 -0.5711101521990748 13.29225535755213 7.233350836552038 -1 0 0
1669 0 1 0 4.43079089432135 18.12792429873966 4.425940913712187 1 -1 0
15 0 2 0 2.708626348795886 5.324747995433776 3.788559598320224 1 0 0
1092 0 2 0 2.7599007076391566 18.729836423143247 0.740309332299335 1 0 0
729 0 2 0 -5.0180316315771964 9.930817745031678 13.883702172606124 1 1 0
769 0 1 0 -1.6701816867586612 19.86675882097627 3.542224640273954 -1 -1 0
838 0 1 0 -4.073542602689025 18.32327407524427 0.8416140607909341 -1 -2 0
629 0 2 0 0.6160092316367827 6.472582478836664 10.336941242805011 4 3 0
788 0 2 0 8.597370760816068 10.60206247495895 9.75477414226974 1 2 0
779 0 2 0 5.960461653094044 13.575263374410847 7.493651565414893 1 2 0
217 0 1 0 6.119475839657195 15.870854010180675 4.25633147191797 5 6 0
1255 0 1 0 0.22605017186347778 2.9336426206246715 9.62633128390074 -2 -3 0
1175 0 2 0 2.9127124916562783 12.252237852190209 6.902075722885525 -2 2 0
1195 0 1 0 -1.9414671468119842 3.6476979262739864 13.879217193642958 -1 -1 0
1470 0 2 0 9.461203878704827 2.108086977298628 11.07055621796023 -1 1 0
939 0 2 0 -1.6587664466255476 11.142163513356682 11.359396016502908 1 -2 0
342 0 2 0 2.1269458264520043 6.401302889944231 7.29271319203972 2 -3 0
452 0 2 0 2.9337828906322825 0.9122401486213292 12.753027433014157 1 -3 0
643 0 1 0 5.655584930855776 14.373708661709511 14.28461819612964 4 2 0
22 0 1 0 -0.037702864282887855 0.6511528676378673 2.908396608732199 4 3 0
45 0 2 0 7.459806901979159 -1.3534739217952687 6.298634642713433 0 -3 0
190 0 1 0 3.9036466463684643 15.541662634021124 2.0410586306211584 -2 -2 0
819 0 2 0 6.058799050307377 8.41368935092278 -0.4546305249700737 -1 0 0
1576 0 1 0 15.048381390121905 -0.7694311450923456 3.3986313818254494 1 0 0
1170 0 2 0 6.386703488886207 6.973598265632809 5.389110217888543 2 1 0
973 0 1 0 -4.544749288803778 8.527313501678584 14.991572630615687 3 2 0
653 0 2 0 -0.43865266260306474 12.446770857760345 15.451971149864605 -3 -8 0
1013 0 2 0 6.2265466427126075 3.036360557828448 5.30064053780414 1 3 0
1649 0 2 0 4.328644825771548 0.8773767733942286 6.6181989147285405 0 -6 0
166 0 1 0 -0.9383277866320123 12.592533848662503 4.1500480574706105 0 -3 0
754 0 1 0 -6.7081925938787 19.207662868868365 0.7091983386591594 -1 -1 0
314 0 2 0 4.291057577319176 9.315716359077413 11.430082238716711 2 2 0
1361 0 2 0 0.4839720828954041 9.201461879286521 15.51868407283618 -1 -1 0
147 0 2 0 -1.1267138138549966 9.239154151445486 9.532061681173372 -2 -2 1
127 0 1 0 0.21631174019736585 17.446269842338566 7.711479067083074 -1 0 0
2291 0 2 0 4.690880431936403 0.3176080225026755 1.1503005568104516 1 2 1
427 0 1 0 -5.583083195279687 14.588073806800896 6.581228207918931 2 5 0
796 0 1 0 -0.047060565538325105 8.22604766136247 1.8954197729112976 0 -1 0
2578 0 1 0 -3.7371288424353883 4.65766084406241 15.810570918043492 1 2 1
745 0 1 0 0.1308482803851696 14.545462211462127 12.001883725988959 0 -3 0
909 0 2 0 7.797450653908226 -1.6653685053013394 12.380456112900074 1 1 0
204 0 2 0 0.7431246779666731 5.2321153213858285 3.2746014796245033 1 4 0
284 0 2 0 7.792727144825502 12.781998959496848 1.2773420075650095 -2 -2 0
947 0 2 0 4.343811239529943 16.588071904220758 5.894955251679396 5 5 0
4 0 1 0 11.822619822704356 7.302989504901615 1.48903868345404 -4 -4 0
263 0 2 0 10.444824004633652 -1.2853262175993576 10.107663602606433 0 -8 0
1090 0 1 0 3.4366546080808766 17.973530048545218 0.7433118966270351 1 0 0
590 0 2 0 2.772326603052996 1.7079618912346417 15.495153194678107 -1 -3 0
497 0 2 0 10.558552320141212 -1.010109024990423 8.135454316759382 -1 1 0
368 0 2 0 9.45843583405354 7.00363186726725 15.127335685560567 -1 3 0
1454 0 2 0 12.65418823985086 4.196791148186509 4.146150965016874 -1 1 0
1174 0 1 0 3.0197756811978134 12.726479851288014 7.741101434825927 -2 2 0
839 0 2 0 -5.024006210140898 18.609116412580253 0.6452271937695926 -1 -2 0
867 0 2 0 13.100551331025365 -0.5793515920332242 15.70092885909563 -1 -1 1
672 0 2 0 11.101628406945542 6.673742799088298 11.683825982847383 3 2 0
575 0 2 0 -2.9071685839038404 12.109934243446906 3.9087557643006425 1 -3 0
55 0 1 0 2.4367999627933505 1.6281730936617043 2.3113006574151096 1 6 0
864 0 2 0 -4.268838714303711 9.074657066620638 11.077038016879653 0 -5 0
321 0 2 0 0.6451567197905865 8.178204052275586 3.469087967982527 -1 -2 0
10 0 1 0 1.5160867739089465 7.316828178339817 -0.5261032772590144 3 3 0
230 0 2 0 7.62076865661782 3.5937856911622843 8.205078061133937 0 -2 0
695 0 2 0 8.937096246131828 0.05758791246356321 15.151072249174561 0 1 0
946 0 1 0 4.259857818580716 16.153900760207296 6.807219211220672 5 5 0
38 0 2 0 5.851906526634459 12.975590462890496 4.982352075153002 2 -1 0
289 0 1 0 9.439469553968381 10.508725662641792 -0.2726997621156432 -2 -1 0
496 0 1 0 10.964433013480328 -1.8935433896955398 8.395393103312433 -1 1 0
1012 0 1 0 5.658128952509688 3.6923073126470527 5.72426748401311 1 3 0
990 0 2 0 6.846701691399985 17.320869442665114 2.842845620347659 1 -1 0
1290 0 2 0 -0.16441278674389864 -1.1590775374886886 7.995099965489846 0 -2 0
340 0 1 0 3.129220596881614 6.705229516053883 7.256947422694335 2 -3 0
296 0 2 0 7.384550551493267 7.9276326508014705 1.3047824343798573 1 0 0
520 0 1 0 3.1137843878843006 11.78627027761351 5.1830991625484515 1 -2 0
1123 0 1 0 13.485203766105757 -1.3901365144059632 10.843540970515173 -2 1 0
203 0 2 0 -0.16374311091189214 4.402779739527082 2.3815856404013025 1 4 0
152 0 2 0 7.3704448492333166 1.6450157134598966 3.719115788287291 4 2 0
27 0 2 0 8.507891313584327 -2.0253406542355537 10.124081529565972 0 0 0
47 0 2 0 -5.909238689838052 17.861215367721776 6.138114596775165 2 1 0
1207 0 1 0 0.08875309745652399 8.981653005898117 13.569394150615212 0 -2 0
761 0 2 0 2.0219392673927574 14.733285845439339 5.085895063545154 1 0 0
2223 0 2 0 4.236075290676857 17.309434443995944 8.34273349398739 -3 -3 0
295 0 1 0 6.989515887047044 8.590805916511309 1.9174053862457145 1 0 0
2480 0 2 0 3.8374850277228014 2.790734146865489 9.695670821760764 -2 1 1
775 0 1 0 -4.856211053398992 13.410513011354503 10.296988866720119 -1 -2 0
630 0 2 0 -0.725319615031576 7.039475087976301 9.85918337555983 4 3 0
2379 0 2 0 -2.9257808817143363 15.408466276132659 8.525962841604928 2 1 1
2532 0 2 0 6.857649803848897 -4.540624859222875 13.989591724390166 0 1 1
1215 0 2 0 4.514709686826213 5.855536974463659 11.293226981513707 1 -4 0
874 0 1 0 3.7429661027468115 4.665794895249277 15.556191623461597 0 -2 0
1217 0 2 0 -4.680353646778088 11.577985569170252 10.77207084696681 0 2 0
1084 0 1 0 -2.409363636462635 9.480624790086758 2.641738533379465 0 0 0
334 0 1 0 -1.529606428308784 14.830175828845773 2.6431457438116976 -5 -6 0
954 0 2 0 3.619005461662665 4.272673891314316 6.649137997396583 -1 1 0
1227 0 2 0 9.842801889775684 3.0304389242370435 8.051723640113215 -1 1 0
2479 0 1 0 3.122716779721592 3.454433761816805 9.643631353615312 -2 1 1
1293 0 2 0 6.316504146350796 0.1689035661048366 7.697729527445468 1 3 0
1176 0 2 0 2.4582451759766735 12.179108446847481 8.361368345624985 -2 2 0
472 0 1 0 -0.18831123817139234 21.150864770657655 -0.6803668890983762 -2 0 0
174 0 2 0 4.822574835948689 -3.0560291819871392 9.61682486087273 0 1 0
1541 0 2 0 9.216090016494972 4.566637359157966 1.854148430995536 0 3 0
1491 0 2 0 2.897861165639991 7.956828042438973 14.683455962592932 2 -4 0
1493 0 2 0 4.083889546282641 5.662151821321559 0.43719934177713515 1 0 0
56 0 2 0 3.0198964312975614 0.8598725463022752 2.0200542200697047 1 5 0
72 0 2 0 2.339415149902398 7.197617416126216 11.854846128220554 0 2 0
1712 0 2 0 -0.46488293574601514 14.666894306950837 14.93818723577904 2 0 0
791 0 2 0 3.7425341425126613 13.290517776197355 0.10425445451459514 1 1 0
533 0 2 0 8.445078305351347 9.10957724328259 4.496083852398018 -2 -2 0
879 0 2 0 -3.713120844251929 17.165866196751736 3.875752101053748 -1 -1 0
760 0 1 0 1.796121997505723 15.200663258935963 5.902511693580328 1 0 0
645 0 2 0 6.60829657164007 14.613918950827362 14.410080109397784 4 2 0
871 0 1 0 3.075251853505282 10.352462485357586 1.6833231835755336 3 -2 0
680 0 2 0 1.781130621142715 13.220227935145974 0.5075607607813186 -1 -2 0
1239 0 2 0 -6.301155648720823 13.630668863657743 9.161820721836321 2 1 0
1567 0 1 0 5.904158088478479 2.005832116717678 9.961906256185575 -1 3 0
2186 0 2 0 0.9636763957510903 17.376224488428893 3.5272080105953023 -1 0 1
123 0 2 0 8.369105905664632 6.779405616794972 11.34511181628736 -1 -2 0
1458 0 2 0 -1.0441664852861736 16.666053636477784 2.397664233515861 0 -1 0
776 0 2 0 -5.268588389785972 13.51818058129687 11.142412472869598 -1 -2 0
1453 0 1 0 12.026510851463497 4.297092966704619 4.8344922960478565 -1 1 0
878 0 2 0 -2.815682952108312 18.59111377568931 3.7356568833579127 -1 -1 0
104 0 2 0 10.490542208796226 0.6178244080843474 13.733405532469275 -2 0 0
1728 0 2 0 4.140014942097553 11.675441302071363 1.3560511904495005 0 0 0
451 0 1 0 2.568888088455947 1.316710689487663 13.555311613622905 1 -3 0
1265 0 2 0 -4.937570292793978 13.718241228603151 15.316285745457481 3 2 0
1648 0 1 0 3.390589491402091 1.0119226194755817 6.382699534354018 0 -6 0
409 0 1 0 9.330893598332338 3.650079662498378 5.181164844275658 2 0 0
1004 0 2 0 0.12476938258907627 10.505524684216123 6.735175078923537 3 1 0
1272 0 2 0 5.83430616121389 5.652630578710593 8.848357208763833 0 0 0
2326 0 1 0 2.853076276983201 15.917057698927566 14.277024935345338 -2 0 1