LAMMPS data file via write_data, version 23 Jun 2022, timestep = 66000000

2592 atoms
2 atom types

0 31.216999 xlo xhi
0 21.524542 ylo yhi
-0.7071914073260519 32.502910432649166 zlo zhi
-9.212092 0.7707692398299492 -11.185924597832724 xy xz yz

Masses

1 1.008
2 15.999

Atoms # full

42 0 2 0 3.5929059902144234 12.964680179240254 0.35364327780142113 -2 -1 0
463 0 1 0 3.6017931417174847 8.673445226419883 6.88751612854323 2 1 0
2343 0 2 0 2.196676849545748 14.2889199137465 12.344249469376958 2 -2 1
4 0 1 0 6.503385732620921 0.9643033663963809 14.799773250596797 -4 -3 0
1027 0 1 0 4.877603702051875 12.119332320541107 5.977717760126299 0 -2 0
87 0 2 0 -3.1348157366345695 12.213308546165216 4.072276076949971 1 0 0
2439 0 2 0 13.39736812512818 0.23057185485983034 11.987685084302566 -2 1 0
1293 0 2 0 0.7549540789410816 -0.43030884916299383 10.011183639776112 2 4 0
641 0 2 0 6.832707892150384 5.719218293918221 0.906877192168015 0 -1 0
1200 0 2 0 -1.3601948488211963 10.064968547100744 15.125039162449553 0 -1 0
1675 0 1 0 -1.946911527368803 7.901243717064059 11.150120647470784 -1 1 0
1722 0 2 0 0.407045015942282 6.756411496877863 13.380264372230917 -1 -2 0
452 0 2 0 -2.526808773356375 7.6847282348448065 1.8217917620488322 0 -2 0
2423 0 2 0 4.013170415101935 9.73976749388862 0.7255098990775466 2 0 1
1528 0 1 0 12.104501653225526 -0.09221025235585634 1.5249265966569374 -1 2 0
684 0 2 0 8.735282773939474 13.076754348112697 6.486209013387208 0 -1 0
431 0 2 0 4.18487974686726 12.406607993697122 2.7483153604928856 -2 0 0
189 0 2 0 4.996034572033804 17.47824231210494 5.940034798329378 -3 -5 0
1490 0 2 0 5.972801363828579 9.630347047008566 15.245091742147562 1 -4 0
1149 0 2 0 -2.5339962649259475 14.448588112353223 2.362629105104346 -2 0 0
311 0 2 0 3.5928523690272596 2.764566399884731 14.240890943786827 -3 -1 0
188 0 2 0 6.489963718649612 17.908870175108582 5.806333905312879 -3 -5 0
204 0 2 0 -3.697861821617774 9.155170899296856 6.59093289075607 1 3 0
623 0 2 0 8.73412587594006 9.85999870852109 12.619566697404201 -2 -2 0
2438 0 2 0 13.091899226028376 0.8874349753335906 10.588255819049614 -2 1 1
283 0 1 0 10.273149689645225 7.90772379635224 6.619589387434009 -1 -1 0
196 0 1 0 -1.327658495252587 11.172604389962821 7.625725882501692 -1 1 0
997 0 1 0 -2.9063226079820454 10.689030462220213 15.14349108477872 0 -1 0
543 0 2 0 0.06199542036550498 20.308173629896796 2.892242064576851 -1 -4 0
1119 0 2 0 -2.780220216336906 4.583353201726002 6.828092069717059 2 0 0
770 0 2 0 -1.674506914088547 13.191345915394757 5.474817077504842 0 -1 0
1006 0 1 0 -1.1816377707699013 1.2587639728699136 15.384164984389459 -1 2 0
2459 0 2 0 7.290655723413556 6.273161266719869 7.61719230933431 -1 -1 1
433 0 1 0 5.885531081382781 0.687185774638098 9.630361475656231 1 -1 0
82 0 1 0 3.8072349078756202 6.193421300836457 5.601387520305164 -1 -2 0
1060 0 1 0 8.064920094842346 3.076876745791232 15.173147171766107 1 3 0
2221 0 1 0 -1.735106879848948 16.233406609574654 10.414938784520853 -2 -1 0
513 0 2 0 4.414876744555052 10.039189778865893 3.966074295455585 0 1 0
1556 0 2 0 7.878199982726055 0.022395413895586413 0.45359682281679214 1 3 0
161 0 2 0 -1.4718305017711966 10.744148847557682 9.351826240541829 0 1 0
2299 0 1 0 -0.44086190114458723 8.858107155767796 -0.2286748957047698 0 0 1
1706 0 2 0 -1.0518014569438041 13.138527938937585 9.79988937354217 -1 -2 0
1711 0 1 0 -4.538689787968722 16.62926316858511 2.942397233721439 0 -1 0
1649 0 2 0 3.2799499428162973 0.7103457922715326 0.5190962272028312 1 -4 0
290 0 2 0 0.3552253590597978 12.933760010034302 12.104074201305629 0 1 0
1569 0 2 0 4.431764076058581 -0.7805830193927492 12.921705280059218 1 3 0
2402 0 2 0 -6.291999789147381 14.369263031271046 9.712173636779301 0 -2 1
35 0 2 0 -0.12147536857989098 5.16523389258188 3.0998769589352544 -1 -2 0
831 0 2 0 1.289635208650434 14.046440862384523 1.1772468088185981 -2 -2 0
2515 0 1 0 4.917171023845413 5.044382363378637 3.336310496480066 -2 -1 1
2352 0 2 0 2.792460559454869 18.55644628944418 7.268656156867034 1 0 1
1061 0 2 0 7.2884549026295185 2.4672546893690717 15.116306344623807 1 3 0
444 0 2 0 -4.006929245418338 15.903805069062713 14.657220923590096 2 -3 0
948 0 2 0 2.137359760585409 -1.7288502793314084 7.481944682659137 5 6 0
351 0 2 0 -2.7695549459174247 13.904486347471725 14.356935334647194 2 2 0
469 0 1 0 -3.852455706785846 15.713628511479154 5.424905123614844 -1 1 0
661 0 1 0 9.067911098934909 10.80263243446628 2.1605054277492504 1 -2 0
1066 0 1 0 11.911314484846558 4.173651357529242 4.686072862861024 0 2 0
946 0 1 0 2.9924617345740243 -1.2771133805025092 7.7082222350637775 5 6 0
746 0 2 0 4.4994872920668545 -4.018365453635234 12.491271674921707 1 -1 0
358 0 1 0 1.0308775798179628 10.278121954553331 12.103893688154232 1 2 0
259 0 1 0 9.119430746942161 2.6285778806608655 7.242344890181395 0 2 0
2315 0 2 0 10.816609469610627 -1.6123997121654008 12.120501620789879 -1 0 1
1684 0 1 0 5.564764647647184 8.64841403503271 0.6944730016105065 -2 -1 0
1685 0 2 0 6.264394824001262 8.602156761887741 1.371195149782225 -2 -1 0
830 0 2 0 -0.04767127588686365 13.622046692462087 1.536986999387889 -2 -2 0
913 0 1 0 -3.564944126289162 5.904605934704645 10.231771536707031 0 2 0
829 0 1 0 0.748148560260811 13.2163131783309 1.1346606335872425 -2 -2 0
1007 0 2 0 -2.086684202055788 1.092588394706488 15.794734860565972 -1 2 0
250 0 1 0 12.663263952533848 3.5410465515763634 8.488744747867 1 1 0
1055 0 2 0 0.9154246800975502 11.654769521655853 -0.1974588296760572 1 0 0
652 0 1 0 11.126821519541593 8.23700966651983 3.813532175340419 -1 -4 0
1285 0 1 0 -0.8250886663270687 5.308535794142231 -0.24513816168684 1 2 0
497 0 2 0 4.380682914006633 19.59531809069427 3.7012931184908977 0 2 0
291 0 2 0 1.286375987921552 12.89122128032291 10.930207751397306 0 1 0
395 0 2 0 9.92966694571586 0.20564113887407443 9.975601574719194 0 -4 0
2186 0 2 0 -6.335191847657336 16.322361995043593 0.22406663398847093 0 0 1
233 0 2 0 3.5288514223965493 13.66208420861275 3.308093766136926 -2 0 0
916 0 1 0 -4.355045754149131 12.563421029661463 8.99535803510119 1 -2 0
2271 0 2 0 8.395858102205949 0.13851364765079044 15.183477743917893 0 -4 1
506 0 2 0 -5.948302023940553 17.82816791443585 3.3722611509961062 2 0 0
1541 0 2 0 0.29929262047588656 12.804159808543593 14.545748595648108 0 0 0
550 0 1 0 0.9271605658945804 3.749477265402766 3.347701052229673 2 0 0
340 0 1 0 -2.6592614392965714 6.9570200254591334 4.3469494885549445 1 0 0
1147 0 1 0 -1.634060320389609 14.76115589738999 2.035425349951271 -2 0 0
137 0 2 0 -1.8631567259190107 17.43081503914117 1.723030117391585 2 -1 0
160 0 1 0 -1.456333039307301 10.585640620256072 10.296005319530362 0 1 0
1104 0 2 0 8.565643021163725 -0.8562304738311124 7.140989510680128 2 0 0
1068 0 2 0 12.667774566697789 3.8513294642490195 5.164101997137398 0 2 0
1221 0 2 0 2.3024253683816185 2.771692738724984 7.802779062497445 -2 1 0
1361 0 2 0 6.720200845290962 13.743652652670628 13.492221192690417 -1 -1 0
1242 0 2 0 2.180548518762254 9.726229996136457 13.556839096601147 -1 2 0
136 0 1 0 -2.4693749619835663 18.00309556441369 2.1259905704088693 2 -1 0
442 0 1 0 5.235467047580829 -4.691440831510047 14.47059201201853 2 -2 0
868 0 1 0 -0.46343480290900974 2.286122467837893 6.66481453854807 -1 0 0
525 0 2 0 7.382021842223875 5.6335937921919506 3.233661840567878 0 2 0
198 0 2 0 -1.8854525409781941 10.566669214879054 7.067745984211887 -1 1 0
1592 0 2 0 6.502258895329382 9.872473515900058 3.326818590756397 0 -1 0
48 0 2 0 6.933705013408498 4.492933442377193 5.198539433961347 1 1 0
67 0 1 0 0.6056273131679739 15.4560298296697 14.818991770875774 2 3 0
284 0 2 0 10.545675635773865 8.175213183464974 5.727428232679504 -1 -1 0
396 0 2 0 11.103036376101274 -0.11615271797044135 9.089875901559584 0 -4 0
1047 0 2 0 8.221308166566802 -2.912871855669692 15.640444794754243 1 -1 0
1241 0 2 0 2.5944694076419164 10.247955359816826 14.983150103635737 -1 2 0
631 0 1 0 2.5457235599052703 6.036054464105094 9.627363070813233 1 0 0
598 0 1 0 2.9951953103585227 15.08452770903699 7.375635381814581 -1 -4 0
711 0 2 0 5.733127980452461 4.254727545301348 7.372202195460787 -1 -1 0
187 0 1 0 5.794224053004325 17.76038675111104 6.422551742929646 -3 -5 0
63 0 2 0 -4.65767375953226 8.553828100148404 13.254319623566717 3 2 0
577 0 1 0 13.12762317118971 -3.5596936227460985 10.341477450173999 0 0 0
312 0 2 0 2.8486562206197608 1.3572436187737429 14.322047721999542 -3 0 0
334 0 1 0 0.5250714945980994 -1.5859883228958518 7.493581381813618 -4 -3 0
391 0 1 0 0.10902065503728389 8.086847553825109 5.586213034054084 1 2 0
947 0 2 0 3.7016140843326384 -1.5385672356348936 7.09699389543011 5 6 0
1676 0 2 0 -1.5045077584013755 8.763506375349063 11.05015156545778 -1 1 0
624 0 2 0 8.88422399699064 11.426821034860001 12.9997376065289 -2 -2 0
498 0 2 0 13.818076148897681 -0.4245955134319479 3.642414778519127 0 3 0
107 0 2 0 -1.0347021908608571 4.0650751941129295 14.017215772743011 2 1 0
803 0 2 0 12.834499521080891 1.4450548787670168 8.315624527424474 0 -1 0
2485 0 1 0 8.534087342080872 0.17795785652633445 4.221982625245828 1 3 0
869 0 2 0 -0.2799690702660358 3.181410694262001 7.001159075376143 -1 0 0
1051 0 1 0 11.064821401400664 -1.3759303892653851 13.957163996647102 0 -1 1
1231 0 1 0 9.364200181711563 5.906321094131648 10.119293892672534 -2 0 0
1130 0 2 0 9.467404731429857 8.126213516782833 0.9691867307367201 -1 -1 0
173 0 2 0 0.6110964931662209 6.351430823716095 5.203510473656495 1 0 0
1240 0 1 0 2.910820000201023 9.73500487240651 14.198103651015604 -1 2 0
76 0 1 0 3.4582438071699317 -0.574928773992422 4.111955383707355 3 0 0
2449 0 1 0 -0.04227986274912482 17.08806482064649 0.44523982887173963 2 3 0
1185 0 2 0 6.004403095699295 6.543964459274694 9.376702265528607 -2 -1 0
69 0 2 0 1.3992581853441275 14.955478946998488 15.114037092068243 2 3 0
615 0 2 0 8.48003165096892 13.19789806102225 4.304346172543043 0 0 0
646 0 1 0 2.610548172173956 13.619620181704953 15.663614010587795 1 0 1
1613 0 2 0 12.026886770223381 -4.244269459178609 15.06383139336065 0 0 0
507 0 2 0 -6.23246507357517 19.22354446411813 3.901288333240177 2 0 0
61 0 1 0 -4.631771775610785 8.570441578444246 12.265838585070563 3 2 0
837 0 2 0 4.288848976430996 1.1928363720011568 6.652128770463203 3 -1 0
1052 0 2 0 11.16466981204405 -2.2406142683113526 14.385607898332234 0 -1 1
2558 0 2 0 3.0157267792042846 3.352627338124369 -0.491396603063176 0 0 0
1138 0 1 0 -2.3727757423105866 19.251264537473613 4.510813893912726 -2 0 0
317 0 2 0 7.671570591291532 13.840872272785361 0.5008122179724299 1 1 0
782 0 2 0 0.9150102426202938 8.287205730222853 0.967152513281214 0 -4 0
252 0 2 0 12.409710894306329 4.43418397271544 8.359949665385617 1 1 0
256 0 1 0 -1.4350827073477117 1.0625847023552026 12.66848750879387 4 2 0
993 0 2 0 0.39602465416754834 18.74796567612334 -0.4066224594760117 0 1 0
225 0 2 0 3.8076239603142 2.607867459802298 5.05519948041117 0 -1 0
1412 0 2 0 9.660381299700505 10.74575992764325 7.549615528865369 0 -4 0
835 0 1 0 3.4119672165090207 1.3254890013635516 6.965997739286678 3 -1 0
599 0 2 0 3.024668158490567 16.071069838993733 7.311902580571285 -1 -4 0
743 0 2 0 6.707552259376822 17.539544658927834 8.506315926728753 0 2 0
2568 0 2 0 0.5092264431051017 10.643973723933616 7.4042780306270615 2 0 1
6 0 2 0 6.242735428176658 0.7077844095463046 15.72186979018342 -4 -3 0
2314 0 1 0 10.577611705566724 -2.3008216621736857 11.412982193517985 -1 0 1
414 0 2 0 14.93355264564588 -2.0067269003339305 6.9749291766456665 0 1 0
1101 0 2 0 8.018003461634473 8.101471807134175 11.505007224286016 0 2 0
348 0 2 0 9.921217188224352 5.765132022781574 6.8245988640357504 0 0 0
1107 0 2 0 -5.220912281503714 13.31463837735788 7.7833940941007125 -1 -3 0
572 0 2 0 -2.145668307788421 17.810683860532734 6.962514244756254 0 -2 1
1223 0 2 0 -3.8500185409291072 9.784185460443009 0.8887767793075285 0 -2 0
1137 0 2 0 10.985431588737468 6.013062964281895 0.6294805168991104 -1 -2 0
1067 0 2 0 11.717699678383866 3.435178173822748 4.083222957829768 0 2 0
1232 0 2 0 8.79861914855459 6.367035889072994 9.457810763150341 -2 0 0
2184 0 2 0 1.5693023496577385 7.595301826450667 9.880572074190873 1 -1 0
1236 0 2 0 5.269123142343946 2.542284587807396 0.33840171763609783 -1 -2 0
434 0 2 0 6.231159356476175 0.9182990257623524 10.501553875758258 1 -1 0
644 0 2 0 8.859875349380038 4.185033672452761 9.894445442189797 2 3 0
1124 0 2 0 3.501891508301229 5.962357810803721 12.308290677968385 -2 -1 0
870 0 2 0 -0.6527156953133716 1.7146524901706202 7.406315238189045 -1 0 0
937 0 1 0 -4.292741884529116 8.320234107609412 15.125340587091472 1 -1 0
2342 0 2 0 2.4001348167221934 15.713861975240846 11.776109610595409 2 -2 0
810 0 2 0 7.597036201376152 15.281956530488998 3.3687014304285565 2 2 0
57 0 2 0 -0.13237299013349163 4.185846132600101 10.797098701689016 0 2 0
1029 0 2 0 3.9504143293401026 11.950246215824157 5.792400987987243 0 -2 0
757 0 1 0 -6.267630061428921 13.357374986534182 4.298207319431425 1 0 0
1491 0 2 0 7.011920878584355 10.553938377361579 14.48609342717303 1 -4 0
1215 0 2 0 5.963677019511861 14.579418412293101 4.674771131801155 1 -1 0
2460 0 2 0 7.38942027851728 7.811786839431985 7.9188839671026106 -1 -1 1
51 0 2 0 7.068367108322688 17.54278502604521 3.4077775328799804 -1 -2 0
518 0 2 0 -1.012338915494294 15.492644788540611 15.781382803518683 -1 -1 0
341 0 2 0 -2.3652458714601243 7.756390699011837 4.775966905262836 1 0 0
1530 0 2 0 11.381956269288423 -0.7343454800421735 1.7331123068610292 -1 2 0
1469 0 2 0 6.655845099886785 7.009752337300107 14.676945148509601 0 0 0
350 0 2 0 -1.8481971001977258 13.25468076226418 13.45611730255454 2 2 0
1376 0 2 0 7.011728056811255 8.680355334155669 -0.5051610113402052 0 0 0
710 0 2 0 5.112146809430843 5.324449834179632 6.459117750129718 -1 -1 0
1533 0 2 0 -8.374258566450466 17.471503985963544 10.985074717295293 2 2 0
1188 0 2 0 11.053115471207313 0.294936394931002 6.054260653029002 -1 -2 0
108 0 2 0 -1.01853775314003 4.3810424207275105 12.584261398270948 2 1 0
1075 0 1 0 7.584947205736493 -2.779132813432117 9.521145211369538 2 4 0
1102 0 1 0 9.260311274652214 -1.5810412084245091 7.14042313645922 2 0 0
1209 0 2 0 1.9313704552277975 13.451486041422731 8.631636947215833 0 -2 0
1283 0 2 0 2.7701577338443286 6.738521642949366 1.3162705070172782 2 1 0
1292 0 2 0 1.938867346253933 -1.0797996386962048 9.315956892413372 2 4 0
105 0 2 0 2.700276320612284 15.61080151842034 0.29659626831025254 -1 0 0
245 0 2 0 9.18156179744669 3.024097002752491 2.6203414755825998 -2 -1 0
713 0 2 0 -3.3361893697601657 4.432516140433514 13.227084402155896 1 3 0
246 0 2 0 9.398590855532872 1.8103849619686878 1.7082816835900658 -2 -1 0
861 0 2 0 -5.711827064464411 14.538418578610548 14.586451731387312 0 -1 0
524 0 2 0 7.329754690168266 7.219918135350411 3.192878892068733 0 2 0
1721 0 2 0 -0.4519717779510308 7.936149900562031 13.834213121313327 -1 -2 0
656 0 2 0 4.033087197853903 6.8933277424551385 15.263865579869126 -3 -1 0
346 0 1 0 9.639189320741181 5.139936612578712 6.185141117420339 0 0 0
2422 0 1 0 3.1981793176208018 10.090981776390661 0.3291363438145176 2 0 1
451 0 1 0 -2.4306024005712192 8.587107888529594 1.5093147225017445 0 -2 0
523 0 1 0 7.702099659314253 6.4395758262339795 2.749016572509912 0 2 0
86 0 2 0 -3.1437118334924357 10.98258037777361 5.0105629589635186 1 0 0
867 0 2 0 6.556177627749448 13.691760993031277 9.549205661595352 -1 -1 1
1203 0 2 0 2.2246708326174076 10.9621676622911 4.122665556817938 0 -2 0
512 0 2 0 5.198035239251542 11.253280671791531 4.308992048541574 0 1 0
1233 0 2 0 10.26851648980305 6.308232598668319 10.279678670625694 -2 0 0
1614 0 2 0 10.44589856153756 -4.130661897253165 15.212233897649995 0 0 0
1133 0 2 0 5.2346574577494325 4.744679984659198 13.064428823590935 -1 1 0
1083 0 2 0 8.935490027051943 1.2050377502616403 12.208112124555669 1 2 0
72 0 2 0 9.082634659761188 9.770511474650174 9.711279544751314 -1 2 0
1229 0 2 0 1.8335253599429076 -0.6580385772221247 14.27677824553411 -5 -2 0
270 0 2 0 -3.563842229067459 14.58112419741305 12.24842636366061 2 2 0
812 0 2 0 -0.7842533830379552 15.573018447630009 3.7606087627715636 -1 0 0
2206 0 1 0 6.908682980984233 1.9130889139235778 11.875684085242002 2 4 1
800 0 2 0 -0.17018708577944505 10.133585345659569 2.9942326430281776 2 -2 0
771 0 2 0 -1.044364291003225 14.509865290231449 5.94438091859198 0 -1 0
1148 0 2 0 -1.8759572483771416 14.958148350288875 1.0934331471485468 -2 0 0
2473 0 1 0 8.824585883609597 5.152737127016059 13.278413004665943 1 -3 0
811 0 1 0 -0.25200663080270685 15.63335127428226 4.548065853603499 -1 0 0
1134 0 2 0 5.755216537889684 3.8736833170690153 14.34403127523841 -1 1 0
663 0 2 0 8.549726041726764 11.36133472195745 1.6143051874739478 1 -2 0
289 0 1 0 0.6151095702470212 13.46854185034185 11.34243806181667 0 1 0
470 0 2 0 -3.0875296357737385 16.174087439663417 5.773230825998084 -1 1 0
2337 0 2 0 4.917658573028537 15.806128511259029 15.74396795946357 1 1 1
737 0 2 0 3.9671759605448838 -3.709011303382655 14.95386990057674 0 -2 0
303 0 2 0 3.9006582734723487 12.852217048680945 10.127094553841241 0 0 0
1228 0 1 0 2.3321291224728022 -0.8310644514518235 13.430941350955152 -5 -2 0
703 0 1 0 7.3585185319934245 9.001893932364455 6.413678880484123 1 -5 0
1168 0 1 0 5.134828309989874 20.432804120028152 0.6801279275869163 2 1 0
1612 0 1 0 11.289163569804348 -3.6388557254161733 15.304594786662454 0 0 0
2187 0 2 0 -4.967164657474988 15.67088644973235 0.23288996404159856 0 0 0
115 0 1 0 -3.6732590710104205 11.381428091002563 11.916285723033308 -2 -3 0
418 0 1 0 1.4994637364654388 10.988831758896751 2.5103169487975423 -1 1 0
1410 0 2 0 -0.7968294991440108 18.54420541711921 4.269289988960001 1 1 0
1497 0 2 0 1.5999574035566313 14.604049212740918 4.683248095068502 -2 -1 0
611 0 2 0 1.3084720312400981 4.833792397836416 13.99952931999796 -2 -1 0
2450 0 2 0 -0.21327327315915162 16.45124823889369 -0.28934610767935076 2 3 0
1136 0 2 0 11.747901065207845 4.909422571956183 1.3045263892851389 -1 -2 0
419 0 2 0 1.316527832234701 11.873387972656715 2.2085099764002782 -1 1 0
40 0 1 0 3.8083265324741116 12.663023818105586 -0.5122082503342908 -2 -1 0
1213 0 1 0 5.45323832512798 14.783357919096153 5.436105834757822 1 -1 0
1265 0 2 0 13.092280925693483 2.9295946725552966 1.477392887261383 1 0 0
377 0 2 0 7.673619953643346 -2.734056148683628 13.36348802407414 -2 -7 0
399 0 2 0 0.6165574496627187 -4.0225019753573 13.007593325181373 1 2 0
726 0 2 0 -8.302921861020732 18.653300320493354 4.756051864271732 0 -3 0
242 0 2 0 -0.2725456912053175 1.520971364939757 1.1781930694922322 -1 -1 0
2182 0 1 0 1.1721886070506342 8.483889284386052 9.805700353309463 1 -1 1
190 0 1 0 -7.0858356722814175 19.741100947335312 0.07125434723470903 0 -1 0
133 0 1 0 -0.8618667381590535 5.062417218138409 7.822597428859716 2 2 0
1567 0 1 0 5.147610524772769 -0.10814107007405127 12.822368417310877 1 3 0
701 0 2 0 3.9797401019666787 1.2370044905374535 10.029344150573314 3 1 0
83 0 2 0 3.880439236932939 7.024398412714879 6.082492306492913 -1 -2 0
2475 0 2 0 8.84118884016998 4.964463546512675 12.384187008083202 1 -3 0
704 0 2 0 8.269277403063013 8.851489510932291 6.445079427163919 1 -5 0
1713 0 2 0 -4.995264080950439 16.173311559992502 2.2343038189954365 0 -1 0
36 0 2 0 -1.1618075128963528 6.322756678772233 3.5305387697899047 -1 -2 0
496 0 1 0 14.228935094644507 -1.2614670439541282 3.9496875843125627 0 3 0
1105 0 1 0 -5.614438400119024 13.91694146514927 7.1121830179688015 -1 -3 0
271 0 1 0 7.621591008173343 17.053554737488856 0.18681849103074044 -1 -1 0
1705 0 1 0 -1.5787066243238193 13.736810081217197 9.237348592969509 -1 -2 0
1468 0 1 0 7.345359462113317 7.270136624136875 14.031123082695204 0 0 0
505 0 1 0 -6.619044249028666 18.367822606157205 3.7438347044415954 2 0 0
1230 0 2 0 1.6271019000553446 -1.1436884643622425 12.829059562669455 -5 -2 0
1170 0 2 0 5.913788292041575 21.011730256062325 0.7584848624850491 2 1 0
77 0 2 0 4.214489718246018 -0.4010142404519743 4.674445680247284 3 0 0
650 0 2 0 13.979623121200898 -4.294687150037108 13.679144786930726 0 1 0
702 0 2 0 2.876648955509704 0.42658021486583353 10.687394966910954 3 1 0
360 0 2 0 1.5112958456142873 9.548469551477393 11.678245950280326 1 2 0
2316 0 2 0 10.088509534818185 -1.8837556888482607 10.692328079400566 -1 0 1
1099 0 1 0 8.808445225675118 8.519020327839023 11.106724346156549 0 2 0
78 0 2 0 2.690210968017594 -0.1884589674521553 4.5230993946507745 3 0 0
1028 0 2 0 4.8999747262919815 13.050343166818227 5.895782300919339 1 -2 0
130 0 1 0 9.216795267843484 -0.1257898343914885 15.564674540064614 0 -4 0
34 0 1 0 -0.5030011783165254 6.037048545202059 2.9154778141873297 -1 -2 0
2486 0 2 0 9.384099151605595 0.6838323705357885 4.502866354349535 1 3 0
579 0 2 0 12.27523108052788 -3.2685105051104566 10.738979552134994 0 0 0
2185 0 1 0 -5.794805880744827 15.692036050984486 0.713763932602554 0 0 0
2379 0 2 0 -5.792402823820701 11.0676055994202 15.610625077053976 1 -1 1
103 0 1 0 2.159533454398064 15.664688907371131 1.0951709873166897 -1 0 0
62 0 2 0 -3.787055356047879 8.210100234807172 11.93551101652105 3 2 0
172 0 1 0 1.1078798055649932 5.611505779725406 5.61029730465216 1 0 0
457 0 1 0 3.229319234587694 8.627315255575864 3.5884056295401576 -2 -4 0
1053 0 2 0 10.485474310900836 -0.9143998403188807 14.545998452037106 0 -1 0
561 0 2 0 5.1892562261439945 8.52676842784269 11.776338827284452 1 2 0
643 0 1 0 8.789622454940297 3.1995678080598653 9.981299875888388 2 3 0
1062 0 2 0 8.136650391771083 3.4478489627983215 14.27355564488909 1 3 0
1140 0 2 0 6.6881683109390835 -1.2716357361673443 4.585415281647114 -2 1 0
1408 0 1 0 0.12412486396420246 18.237545620525292 4.377650525970354 1 1 0
657 0 2 0 3.134201466891204 8.128156654233553 14.765349096256962 -3 -1 0
1220 0 2 0 2.0101478879284262 2.7637382474578196 9.25650574510696 -2 0 0
1291 0 1 0 1.5954828669291803 -0.8791215264438885 10.220489966845783 2 4 0
1362 0 2 0 5.6224550620176155 14.534717448149188 14.252774313073457 -1 -1 0
26 0 2 0 8.427016631809042 8.020747774839316 15.388729696032852 0 -1 0
655 0 1 0 3.121253470343817 7.25630252382559 15.164560525677114 -3 -1 0
1648 0 1 0 2.922691458078833 1.3407720069615068 -0.15296193651644308 1 -4 0
1199 0 2 0 -0.10920795408584222 9.095111038941896 15.575921955553676 0 -1 0
542 0 2 0 0.6869739627571196 18.991868445790033 2.6419668973156787 -1 -4 0
2351 0 2 0 3.1183100896411267 17.820656017552782 8.653417777591121 1 0 1
839 0 2 0 -0.24754950299651346 16.36082354246216 11.57912879132591 -1 -3 0
1496 0 2 0 1.9029187490126536 13.122475714059162 4.774444943507037 -2 -1 0
1557 0 2 0 9.140888311358195 0.9193865977743092 0.08537742655060476 1 3 0
18 0 2 0 -2.664870749632467 16.91712906478693 -0.6542566302613131 0 1 0
2401 0 1 0 -6.144274832865403 15.246038625255547 10.11443312838238 0 -2 0
1677 0 2 0 -1.4905731300542613 7.4942938795032905 11.939524692088323 -1 1 0
465 0 2 0 4.398435211686904 9.143006867432327 6.818138808247234 2 1 0
70 0 1 0 8.762348000178495 10.527868956064461 9.165815093608597 -1 2 0
551 0 2 0 1.7343893964909876 3.2552082480556654 3.549139708021963 2 0 0
1129 0 1 0 9.69038447076574 7.309450061869679 1.3701613476209382 -1 -1 0
1077 0 2 0 8.136484747576674 -2.415532731604553 8.817987659073301 2 4 0
243 0 2 0 1.2413730120053166 1.1466442782989583 1.283004798220267 -1 -1 0
52 0 1 0 -6.628756397877182 11.581674449530363 13.459713098857415 0 -4 0
183 0 2 0 4.705454239873913 -2.4262192261488167 10.708939222453829 -1 0 0
1080 0 2 0 -1.361891914142817 6.839271113120867 15.246296385015611 2 0 0
614 0 2 0 9.090803755230068 11.821067883537266 3.7524014731471436 0 0 0
56 0 2 0 0.7482286823977746 5.432874242002898 10.47971850908707 0 1 0
1269 0 2 0 -3.2174680106431803 12.756962675967053 -0.4329783953760772 0 0 0
71 0 2 0 8.514756460640786 10.119531508347563 2.6206646164712373 1 -1 0
2437 0 1 0 13.096383141744829 1.0613748217272816 11.52477736942232 -2 1 0
1103 0 2 0 9.828944812474905 -1.2873608799604233 7.87717216329159 2 0 0
679 0 1 0 11.36228914096508 3.107263007575911 11.139988891977504 0 1 0
258 0 2 0 -1.4207877904232322 0.09370556517442985 12.652388056958278 4 2 0
541 0 1 0 0.6557199384768061 19.866934270651875 2.2328996658929587 -1 -4 0
1248 0 2 0 -6.010643679941811 13.55064470599863 5.222096973609863 2 1 0
1187 0 2 0 10.491854063580462 1.7647747906854918 6.2701089326954 -1 -2 0
1125 0 2 0 4.675573019521597 5.946173216221629 11.314727587563949 -2 -2 0
2403 0 2 0 -5.376503490652785 15.097853047212897 10.710181117359214 0 -2 0
649 0 1 0 13.304876066415494 -4.936281301092689 14.061777661041274 0 1 0
1529 0 2 0 11.684078681813277 0.3954705467025987 0.7506004243499318 -1 2 0
642 0 2 0 6.561518590471279 4.353762438944711 0.3827503574452549 -1 -1 0
1289 0 2 0 4.532781720125613 15.190845248705019 8.286835425202579 1 0 0
781 0 1 0 1.3847750438903867 7.908113141209569 1.7451535146729293 0 -4 0
393 0 2 0 0.941707960176275 8.379086982444544 5.859704739201708 0 2 0
813 0 2 0 -0.021521775404755625 16.57813384163591 4.638231108744514 -1 0 0
2223 0 2 0 -1.5816601616468446 17.00767466726312 9.814122880327416 -2 -1 0
1210 0 1 0 3.054806810656526 18.07200330567437 4.502293828441715 2 -1 0
435 0 2 0 5.4417533069538955 -0.19598194608120645 9.770767984316763 1 -1 0
622 0 1 0 9.020486644633339 10.548059207037298 13.316064331529056 -2 -2 0
977 0 2 0 5.81820893519858 18.75668735321086 2.1475430790317827 -5 -4 0
301 0 1 0 4.446943135432557 12.574495686064537 10.809150626450025 0 0 0
5 0 2 0 5.799054263270726 0.6569871521802657 14.152181403200562 -4 -3 0
1163 0 2 0 5.041579383083983 -0.4903556279788823 1.1083107264198417 -2 0 0
64 0 1 0 -3.955446392894554 13.395638761797137 2.9124367446988937 0 0 1
412 0 1 0 14.694900394686067 -1.128567571970662 7.338818224752245 0 1 0
205 0 1 0 10.897145828325947 9.709904946017236 0.3123352579335359 2 1 0
918 0 2 0 -4.0681671941374296 11.631487165986107 8.847418545864896 1 -2 0
681 0 2 0 11.639523470006752 3.7023771656980937 11.83771669919437 0 1 0
1169 0 2 0 4.227748336248276 20.885138917611883 0.8161928581487456 2 1 0
359 0 2 0 0.5107157875844608 10.615701578030437 11.396714427262507 1 2 0
838 0 1 0 0.3775887138060078 16.63509504642016 12.278604766280425 -1 -3 0
420 0 2 0 2.045504116735153 10.657256477048156 1.8063247262990747 -1 1 0
802 0 1 0 12.86842008871716 0.5749377200986876 8.714613527649043 0 -1 0
1686 0 2 0 5.0438487378221595 7.897687168117418 0.7965972953761564 -2 -1 0
162 0 2 0 -2.189721281892597 11.064396778200125 10.732911094849582 0 1 0
1202 0 2 0 1.7246814576887854 10.834742745863208 5.612971103616427 0 -2 0
2350 0 1 0 2.703017012317774 17.73898706782357 7.745405491472653 1 0 1
632 0 2 0 2.2651083761845996 5.226979237554444 9.237540768224743 1 0 0
197 0 2 0 -1.4649646481261596 12.036140708164046 7.234985004449413 -1 1 0
801 0 2 0 -1.4009820171311427 10.601856611157144 3.7827644935964697 2 -1 0
1506 0 2 0 6.400596139591409 16.529401017712715 11.613933497520359 1 0 0
41 0 2 0 3.672700738579613 11.689448695476862 -0.3858268050478607 -2 -1 0
1591 0 1 0 7.267744523367486 9.299767536635269 3.4741575634965614 0 -1 0
223 0 1 0 3.300136041702556 3.2541629656194626 4.546382734616601 0 -1 0
938 0 2 0 -4.991485646695596 8.153356813339602 15.788834837997166 1 -1 0
930 0 2 0 -5.679534879631674 11.672122300074651 10.501546780221968 -1 -4 0
1070 0 2 0 -6.208692240154225 16.8741946146075 8.376821603634715 1 -4 0
2234 0 2 0 6.868173274233755 0.767977914650019 8.162867840916519 0 -1 0
1072 0 1 0 6.653979252822546 2.0325813862036384 3.4853567048743717 0 0 0
600 0 2 0 3.254999222022942 14.800878569682919 6.51341366331805 -1 -4 0
705 0 2 0 6.952544225579033 9.788676645523903 6.810244888623949 1 -5 0
1211 0 2 0 3.3106053429001876 17.351129678828443 3.8925657475051283 2 -1 0
104 0 2 0 2.673656134093932 15.65995368761914 1.8843274660768934 -1 0 0
116 0 2 0 -4.3356213289304355 10.765458096244656 12.251043290328255 -2 -3 0
612 0 2 0 2.393385364938741 5.985007018988292 14.12375445770204 -2 -1 0
471 0 2 0 -3.790626094617892 14.802335034194353 5.787959553205829 -1 1 0
2579 0 2 0 -1.4605694298386585 3.442042169936663 -0.2575756132897092 0 1 1
85 0 1 0 -2.5436164029795756 11.65341600334533 4.646913869850768 1 0 0
2458 0 1 0 7.665269557532748 6.910592894861139 8.252917321528765 -1 -1 1
16 0 1 0 -2.8687160871121358 15.973410123944658 -0.4323460657730542 0 1 0
1030 0 1 0 0.3436825983809927 16.11047815621077 8.06625640685248 4 -1 0
1707 0 2 0 -1.291326667758358 13.698987669974839 8.312304437908383 -1 -2 0
1504 0 1 0 5.460487195722402 16.200843098397485 11.318386689727634 1 0 0
65 0 2 0 -4.026205348336655 13.07803633151827 1.9416717487111939 0 0 0
1208 0 2 0 2.0653086019862643 11.874831443374458 8.454167493969607 0 -1 0
1186 0 1 0 11.107707610161604 1.2132904099335393 5.748744374798487 -1 -2 0
397 0 1 0 0.10934118469883963 -3.5252879936458563 13.715299985853026 1 2 0
1273 0 1 0 11.99375309502959 -1.2721423663861127 6.223863371881547 1 3 0
260 0 2 0 9.045473621206707 3.5319719917101424 6.892024948250281 0 2 0
1274 0 2 0 12.800153972233884 -0.7980752558565927 6.553371311791314 1 3 0
556 0 1 0 5.540427822365534 0.48759190313347567 5.360796895313551 -1 -1 0
336 0 2 0 0.052583234718111604 -0.7603097482305179 7.7269552637585015 -4 -3 0
453 0 2 0 -1.9893826400579746 9.098402454299677 2.248178384154448 0 -2 0
2183 0 2 0 0.26054925422041514 8.301470913951007 9.457948951654403 1 -1 1
1728 0 2 0 -7.83595925799047 16.683384013822987 6.488497891301723 0 -1 0
1031 0 2 0 1.0461677178634143 16.742732847657994 7.729305281670765 4 -1 0
665 0 2 0 -1.750259068655459 7.5770086968185915 9.385481303142837 0 0 0
2567 0 2 0 1.355873151237325 9.842355753626817 8.312655096153307 2 0 1
866 0 2 0 7.60173383275291 13.33768796399285 8.477389018384951 -1 -1 1
2341 0 1 0 2.875562447505791 14.981765368033514 12.229867204327942 2 -2 0
1305 0 2 0 14.191443079901104 -1.506481664382607 13.25932532023301 -1 1 0
1495 0 1 0 2.3294316261213566 13.951577232421696 4.654679492977001 -2 -1 0
1139 0 2 0 -2.6782669119356526 18.986081130338597 3.6217307900833475 -2 0 0
1629 0 2 0 3.7533756894175427 9.126109839711072 10.256286311499107 3 2 0
232 0 1 0 3.969568649750191 13.26798015776546 2.5177887668222128 -2 0 0