LAMMPS data file via write_data, version 23 Jun 2022, timestep = 166098000

2592 atoms
2 atom types

0 31.216999 xlo xhi
0 21.524542 ylo yhi
-0.843210226957769 32.63892927861029 zlo zhi
-9.212092 0.777082928515972 -11.277553118965038 xy xz yz

Masses

1 1.008
2 15.999

Atoms # full

574 0 1 0 7.931874496932914 7.1223867387512 4.185701861925356 0 -1 0
748 0 1 0 -5.170331017119155 17.060660056076586 0.24498120103163656 0 -2 0
498 0 2 0 -1.2008724347253554 15.952263796303424 4.241557455984442 0 -3 0
1677 0 2 0 8.096398946087776 14.959870900555433 0.6569321572095261 -2 -2 0
1481 0 2 0 5.108017107189134 -1.492234014376287 6.629924942791993 2 4 0
2558 0 2 0 6.1397795865654485 12.814380073932885 9.067310256362953 2 3 0
4 0 1 0 7.692286886674719 0.9105369060419939 13.131444476174941 -6 -7 0
335 0 2 0 2.9250199715982403 2.7574112790984073 3.239407576869344 -2 -5 0
65 0 2 0 10.50150978083454 2.7063296686218026 15.352432423739621 3 1 0
27 0 2 0 9.752700845715554 8.636188873021542 3.32354237717347 2 1 0
600 0 2 0 -0.5436442387329437 13.46286833868324 13.084783210181758 -1 -7 0
1434 0 2 0 5.104074744556105 9.164480682512538 -0.4921418734729171 1 -2 0
1255 0 1 0 11.089424330570063 7.480518915699922 4.547327662625608 -5 -6 0
1341 0 2 0 10.391234663308294 1.8881946258176507 0.9286048566290706 0 1 0
785 0 2 0 -3.2446977194112603 13.429669630629409 6.2174259172485415 4 -1 0
687 0 2 0 -3.6347020835149118 8.073931104567151 12.008341607895089 -1 -2 0
2479 0 1 0 -0.4814961342332708 8.427619509721719 9.01784481576878 -4 -1 1
77 0 2 0 3.988039091742318 9.24415549839378 12.638214134032694 6 0 0
127 0 1 0 4.751329477600776 17.459787172055577 10.816001164853494 0 0 0
545 0 2 0 -2.863790567565053 9.001852621528613 3.813877846382689 2 1 0
535 0 1 0 8.10682613308444 7.432335308227851 15.426720358510043 -3 -5 0
1489 0 1 0 13.158200487945413 2.5715288024471623 10.011530046626387 2 -5 0
248 0 2 0 2.480367444567502 -0.6689955202715878 11.480723326716147 3 -1 0
1372 0 1 0 7.44438466997654 13.633860987384889 10.12330558625828 0 -1 0
1233 0 2 0 4.609672277515885 8.543286488195848 4.235538329806712 -5 -4 0
138 0 2 0 -5.082037445648211 20.376471535703097 2.3419050363678204 3 0 0
743 0 2 0 2.3523464273309895 0.7576938067119476 6.872263627762693 0 1 0
1326 0 2 0 8.872137645589216 -4.14717594948528 14.798958300700212 0 0 0
225 0 2 0 -6.027297063738275 17.463602916760117 10.583215583357381 -4 -7 0
370 0 1 0 8.786499253870666 2.7011769369209926 0.2774588380332139 -1 4 0
686 0 2 0 -4.102485221607049 7.005168340593045 13.007783529679486 -1 -2 0
1220 0 2 0 3.339865817692742 19.933635949149046 2.7900471063696366 -4 -2 0
1001 0 2 0 7.725264369736943 -1.6471750512880963 10.908941338361862 4 2 0
481 0 1 0 -2.714519552173295 13.763239947305513 11.232849070689182 1 1 0
2449 0 1 0 0.7579162387259942 2.3453464838568236 0.042571826292535864 2 4 0
332 0 2 0 10.884285125836172 6.014996668225743 13.362635909891457 -2 -1 0
99 0 2 0 4.238860987365072 3.6355425583509406 11.956802133617085 0 0 0
617 0 2 0 11.170394727798074 -4.120549447265856 12.846745463371182 4 0 0
586 0 1 0 -0.10549378900131418 6.759895805825426 15.881311244613162 1 3 0
258 0 2 0 -6.1303817008890125 15.501529561247427 3.1012170276142 3 1 0
779 0 2 0 7.108384198235013 -0.2723545686975428 7.397158635606516 2 5 0
950 0 2 0 -5.411822393840742 13.618180245787245 1.0750972081988734 1 2 0
2589 0 2 0 11.081981906320863 6.425752426645257 7.5863315572703005 0 0 1
1086 0 2 0 -5.397350611739266 11.584876763391717 11.209693481080652 -1 2 0
1156 0 1 0 -0.5207294032212808 0.9502694505095413 11.801155921666624 -1 6 0
735 0 2 0 0.46508664419464885 9.572289380524984 4.605984618844369 -2 -2 0
2438 0 2 0 -4.700528914992445 12.055982275103487 -0.38805588813785996 -2 1 1
780 0 2 0 6.1185971321516295 -0.6911667701306916 8.6379363903247 2 5 0
647 0 2 0 -0.26855884333108426 -0.535996923991422 9.13712783211584 4 2 1
1639 0 1 0 9.817215989207368 6.009276838804162 10.414578845514239 0 0 0
390 0 2 0 6.060713135060673 15.685019046197665 0.07768094432432227 -3 -1 0
2588 0 2 0 10.97934326843918 7.920637625025558 7.6191263417088635 0 0 0
806 0 2 0 1.940363161679025 9.381849357362828 2.7359770233142036 1 0 0
914 0 2 0 6.864161676551028 -2.7683739579814146 7.389004420914889 -1 2 0
1484 0 2 0 6.23086493991352 7.8972112431132615 15.343584196844198 3 0 0
1063 0 1 0 9.228472258952134 0.8153316067851022 9.14641900757231 0 2 0
842 0 2 0 -3.569572975271616 7.304360273622323 9.410242572205226 1 0 0
228 0 2 0 -4.146517654577409 18.422076068301422 3.2946920989055295 1 -1 0
73 0 1 0 -0.8546670131786052 3.722312404145212 4.2396027181225975 2 2 0
1548 0 2 0 -6.513530103925516 17.51032878990238 1.3557108564775726 0 2 0
805 0 1 0 1.4579787480712059 8.640603162608432 3.23029963463693 1 0 0
1505 0 2 0 6.1919089602622215 9.842588734438388 3.2902836767748065 -1 -1 0
1096 0 1 0 2.1220678332070575 8.58873776620871 -0.5542708795859856 1 0 0
1722 0 2 0 1.357509384426806 14.51564710637436 3.0676090531286726 -2 -1 0
22 0 1 0 1.6343925827369703 7.405692081675468 13.85946973993293 3 2 0
1185 0 2 0 1.668560761841165 15.188673399301434 15.474099313032799 -1 1 0
1552 0 1 0 6.955068979773378 4.2156105961247246 4.8777558254177436 -1 3 0
1078 0 1 0 4.843592140732738 7.887525597358293 11.59983100396474 2 0 0
371 0 2 0 8.834070245013981 3.5498309759983186 -0.1378234548287368 -2 4 1
453 0 2 0 -5.528163768595204 14.009033987654808 8.647611950324066 0 -5 0
119 0 2 0 0.6483495868697532 5.490686681051789 13.821742407859297 0 -1 0
537 0 2 0 9.024256844475541 7.440139666375448 15.013563288936645 -3 -5 0
746 0 2 0 -1.045520769938289 8.732495990536144 1.0361153463317812 -1 -1 0
26 0 2 0 10.248496679070708 9.757364237119587 2.4333061724506875 1 1 0
605 0 2 0 5.016001168184918 11.410086825259363 15.087859739717802 -1 -4 0
97 0 1 0 4.161537119203505 2.680383116678372 11.646471230058705 0 0 0
334 0 1 0 2.2089409119734618 3.276870299538026 3.5774509083683403 -2 -5 0
364 0 1 0 7.066708448789579 5.227322509626573 8.63628892133345 -1 -4 0
203 0 2 0 -4.668701281580871 13.481928354356356 3.867436796410332 0 4 0
333 0 2 0 10.42146064468744 7.36650887743671 12.759764000054021 -2 -1 0
496 0 1 0 -1.4291435525143064 16.591615957058323 3.529602545521522 0 -3 0
1232 0 2 0 4.799289286182532 8.179285493457401 2.789826089017286 -5 -4 0
128 0 2 0 3.9501257408427355 17.348415397265363 11.367016353051648 0 0 0
2459 0 2 0 -2.9794870542632665 10.698462833620706 12.518223692810025 2 2 1
202 0 1 0 -4.0907652809270285 12.81452464759072 4.171971740994916 0 4 0
85 0 1 0 4.460942526307157 14.481469197214835 4.406599240767994 2 0 0
2451 0 2 0 1.5711866574006856 1.8837194623725233 0.3378581200254165 2 4 1
915 0 2 0 -2.8620103799965158 17.45043573077973 6.611519621185101 -1 1 0
957 0 2 0 7.496440971647447 -0.3192994506605034 1.5809271035667947 2 3 0
205 0 1 0 5.796809358476388 -2.0148039471379673 12.917821287690476 2 4 0
956 0 2 0 6.7133125971033785 0.8902338531245982 1.0444937595823003 2 3 0
52 0 1 0 5.686757059080112 17.171562447935365 3.0361821381466867 4 1 0
1225 0 1 0 3.749879104178858 7.351171054811241 1.4540100485432208 -2 1 0
1110 0 2 0 8.908767764731225 6.186188857888845 2.9335095315688617 -1 2 0
1067 0 2 0 0.8033467446991189 7.96962300689288 12.225733472522576 -2 -1 0
683 0 2 0 10.131154052627915 -0.496442356746874 1.5329987413507693 -2 -2 0
669 0 2 0 -2.195486646642516 10.59098788853224 -0.05971190639320023 -1 -2 0
651 0 2 0 7.1628756114774 10.349748691064217 11.980654112010644 2 2 0
1637 0 2 0 5.382477668615034 0.7333186590584893 5.65282077319036 2 0 0
383 0 2 0 -3.8226923150281715 10.194815604018375 1.1418428855658838 3 -1 0
727 0 1 0 6.369329532223523 13.086471877313425 2.2960614947684794 0 3 0
1576 0 1 0 6.551282435799388 -3.1834620649994605 10.493246294681342 3 3 0
916 0 1 0 11.84290066828992 6.6585245239786195 0.7724673945215721 4 -1 0
638 0 2 0 -3.3190648347467144 6.9035175848807375 5.546260496442866 0 0 0
2580 0 2 0 13.60793891667484 -0.794940220693173 8.53254176119022 1 4 1
220 0 1 0 8.796154401335828 3.087065629995488 7.796206640276555 3 3 0
2403 0 2 0 1.510629377368852 17.08624174448529 0.8290435670374348 0 -4 0
1243 0 1 0 5.585329632665605 1.649964340010408 -0.35272052012762534 2 -4 0
1032 0 2 0 5.207057030162353 10.983621244618616 4.995716649578832 3 -3 0
339 0 2 0 -0.7990997214568119 3.553566232464672 7.624287583773285 -1 1 0
1553 0 2 0 7.410215430056911 4.98197821129108 4.587009513020282 -1 3 0
352 0 1 0 -7.1121691863405045 17.050603642878894 6.859474894623856 2 -2 0
1279 0 1 0 2.7998299931352792 -0.3728796220161126 3.3638025753768517 -2 1 0
553 0 1 0 0.28303881773701556 11.136929197585037 11.448488656994947 1 1 0
1680 0 2 0 1.9205124409665075 11.94644525889069 6.960205982368137 0 -1 0
102 0 2 0 2.1633006448874648 13.716103274343691 1.0065615076152765 -2 1 0
816 0 2 0 12.847943039029646 -0.0077268142027788755 5.2792625401642645 -3 0 0
561 0 2 0 2.3238403628076036 6.01752057573544 9.944665844796697 -1 -1 0
484 0 1 0 5.367819708794708 14.102202026257554 12.540576727021168 5 8 0
1263 0 2 0 -1.886086047025734 12.499355802387926 1.8734269292245957 -1 3 0
42 0 2 0 2.9951498123259515 4.147022340058465 15.572469623423746 -4 -1 0
2485 0 1 0 7.016184321881588 16.13640450818498 12.23886007603082 1 3 0
784 0 1 0 -2.706762056862075 13.941848425984407 6.8578123013518315 4 -1 0
331 0 1 0 10.24814585849675 6.71697236646597 13.43443566946786 -2 -1 0
1408 0 1 0 4.125934904293762 -2.745270092526978 9.360822249571966 5 3 0
577 0 1 0 3.537430290064798 10.799613746065132 2.2034065298759686 -3 -8 0
2413 0 1 0 2.884166492560947 7.748369371949309 5.3970259020510705 -1 2 1
95 0 2 0 8.197381187344156 -1.6179310231673574 4.040379258756963 1 1 0
656 0 2 0 11.274099933821333 4.581397841876402 5.795432110256463 -6 1 0
256 0 1 0 -5.7962812211481625 15.301090508483037 3.993137559639984 3 1 0
319 0 1 0 5.937610962765201 2.849263658177607 14.98057337472545 0 0 0
1418 0 2 0 -0.2149612537810346 16.009628353469573 11.682657988896176 2 4 0
1162 0 1 0 1.0856105494607986 10.953605981086762 8.144599973696476 -2 3 0
924 0 2 0 11.806025848939592 -0.33157631490755257 15.3194819653706 -2 0 0
143 0 2 0 1.1693348998450568 5.2270706420806725 0.6225185374007991 3 -4 0
2278 0 1 0 5.958396166530134 11.242574987103026 13.145046327671963 3 3 1
1226 0 2 0 3.0946818328846386 6.759799727393386 1.9169239713827526 -2 1 0
1065 0 2 0 8.60201825439919 0.17238878105384536 9.531988117011966 0 2 0
1066 0 1 0 0.9618517120222618 8.339632533196408 11.299344903945999 -2 -1 0
159 0 2 0 -1.021869273451441 6.524291429609776 0.9350999575371919 1 0 0
87 0 2 0 4.1545766087105855 13.686544646649516 4.991161073611796 2 0 0
91 0 1 0 -0.7412659543626552 0.24594010818877665 5.520907149162784 4 7 0
396 0 2 0 10.107775811072393 -1.9151690332374423 7.388281153448853 -1 -6 0
960 0 2 0 13.879456928721284 -2.765677952295686 7.516357486101938 2 5 0
1577 0 2 0 5.916851902361608 -3.238722969695385 9.7934709437499 3 3 0
479 0 2 0 8.88779623360438 7.105018742424102 7.037082820592112 4 4 0
1432 0 1 0 5.261495774294313 9.60475871409854 0.32495968182122015 1 -2 0
620 0 2 0 6.363208376188436 15.852195824613684 8.776453881431395 1 0 0
836 0 2 0 5.834291434339613 8.8814290273328 8.460909282457898 3 1 0
1079 0 2 0 4.473265200008924 7.488518973108846 10.789318918482492 2 0 0
585 0 2 0 8.06393892565462 8.288343134097023 1.8709568135527288 0 3 0
1485 0 2 0 5.980684791565593 8.68736042562412 14.066003731059139 3 0 0
1337 0 2 0 -2.0279149181663865 9.348012828632807 14.732169487589335 0 2 0
1678 0 1 0 2.428287364733009 12.439984940135178 6.312489526256808 0 -1 0
204 0 2 0 -3.2928739206603157 12.830955084932148 3.6248675875991303 0 4 0
14 0 2 0 -1.0236307083157508 14.405394757212008 5.9181588659300095 0 0 0
920 0 2 0 1.7885569738744052 17.935544468991523 8.21365357586416 -1 -7 0
2365 0 1 0 -2.1188079882219264 12.267508714236827 -0.2365384283623212 1 2 0
344 0 2 0 0.069638575081367 7.337972217319754 7.525275039327445 3 -4 0
139 0 1 0 0.9034368250186653 1.8001019971828187 14.969843486770653 1 3 0
36 0 2 0 -3.114619960419913 10.172348629421135 5.983629300637563 0 0 0
284 0 2 0 13.708292263691048 1.5518943911787138 8.954511635331292 0 1 0
1254 0 2 0 14.641940833481259 -3.4377506748991458 14.708932894369509 0 5 0
495 0 2 0 10.79296322365322 0.5909958069405339 10.570748358444868 1 -2 0
1340 0 2 0 11.732863623448468 1.6510545874649187 1.6899088764523968 0 1 0
1728 0 2 0 6.181705427881959 5.159869458172032 1.1594295639544923 -1 0 0
185 0 2 0 5.270547677544374 2.4601551704305926 2.637785741158061 -4 -6 0
679 0 1 0 1.1036336427623483 16.208680289655785 10.304467793734885 -2 -2 0
964 0 1 0 -4.257440912969116 10.186138772041788 7.36656873602351 0 0 0
2556 0 2 0 1.4663173757437171 -0.32334959294311716 13.754527069512665 0 -1 1
451 0 1 0 -6.146448074940825 13.251048575545664 8.486985417359497 0 -5 0
778 0 1 0 6.538718922505567 -1.022978121298805 7.784151649135801 2 5 0
25 0 1 0 9.441288056690196 9.23929447819309 2.659356434141957 2 1 0
1381 0 1 0 3.3660652130293713 0.22115318176523768 15.732945504183867 -1 -1 0
2487 0 2 0 6.259226178055186 16.709929240113972 11.907504479946239 1 3 1
521 0 2 0 1.567318940725015 4.849154278197773 2.904312841159965 1 -2 0
1183 0 1 0 2.374987368383965 14.99385378428651 14.839619209835472 0 1 0
136 0 1 0 -4.33042472204525 19.91372066151189 1.9699040709219235 3 0 0
320 0 2 0 6.489490963773863 3.386992976885101 14.453423890764704 0 0 0
1347 0 2 0 12.417563386899307 2.7959917595414137 6.246519990112683 -2 -3 0
1024 0 1 0 -7.859973112235634 20.309838824283386 0.6291109028418245 2 -4 0
1373 0 2 0 7.768874146490636 13.81086561142018 11.083053668460202 0 -1 0
94 0 1 0 7.285570758095364 -1.6411135267819126 4.0959607102967555 1 1 0
477 0 2 0 3.968201991409505 14.717673876797432 8.286693109648722 -2 -2 0
857 0 2 0 2.0364624744593094 10.381688833109166 15.645442742333508 -2 2 0
2480 0 2 0 0.017763046465925664 8.527864572233703 9.840203788248571 -4 -1 1
76 0 1 0 3.661345827637593 10.160241503594506 12.489270058085856 6 0 0
100 0 1 0 3.030975595210673 13.293828212476198 0.9300698958451505 -2 1 0
1261 0 1 0 -1.7844754892188752 12.884059367086662 2.7448257616493 -1 3 0
559 0 1 0 3.016390101545146 6.668954503908448 9.873398912095203 -1 -1 0
6 0 2 0 8.360037915795026 1.1104490133364973 13.819156537847837 -6 -7 0
1098 0 2 0 2.5614986687419705 8.16723571967842 0.22893669620582102 1 0 0
379 0 1 0 8.0677824449004 4.386199531193602 13.524042881683574 5 1 0
1688 0 2 0 -2.4527820554386173 10.382781439011051 10.197788025891283 0 0 0
1531 0 1 0 -1.417911310914361 3.398681645109483 12.790320201082865 3 1 0
51 0 2 0 12.177431691328511 1.7113540477093956 -0.2941094493693934 -1 -3 0
169 0 1 0 -1.0680477920208782 16.083078265085668 8.692505526893818 5 1 0
1641 0 2 0 9.096922807947417 6.280418788171168 11.031582050605554 0 0 0
2242 0 1 0 8.95414450715193 5.34932968790876 -0.50764887064033 0 0 1
598 0 1 0 -1.3799498163214423 13.450971390737571 13.593668109679985 -1 -7 0
1230 0 2 0 7.349026931131352 1.7238449064979724 11.678626742231819 -3 0 0
1506 0 2 0 7.722473257826171 10.031629678595566 2.939534324886654 -1 -1 0
579 0 2 0 3.394405989876435 11.75016417686222 1.9111950669640714 -3 -8 0
1125 0 2 0 5.4123517396676295 14.658573049603485 14.35094627454337 -2 1 0
662 0 2 0 1.280701813676572 7.256362849942647 14.781874683036476 3 1 0
231 0 2 0 15.133910813303437 -2.022509441592729 5.56068070649858 -1 -2 0
621 0 2 0 5.727416125295162 14.670582397243445 9.595997005454855 1 0 0
400 0 1 0 3.1759500932518923 14.450327684978578 10.83577858925918 -1 0 0
1124 0 2 0 5.0296148316872635 13.617177377637372 15.583153813658306 -2 2 0
408 0 2 0 0.4914267557613195 -3.6498738254733847 10.13824206208948 -3 -2 0
2475 0 2 0 2.514253370974493 15.953896509906105 7.2550483179575895 2 -4 0
74 0 2 0 -1.7227130684546281 3.7908572444229627 4.6500576981186645 2 2 0
361 0 1 0 8.321878042053536 12.040407814082455 14.684624990135392 4 4 0
677 0 2 0 1.5484838492321977 2.1080676863166294 9.626821213478648 3 -3 0
587 0 2 0 -0.9111239937117835 7.195550176700904 15.52151059281396 1 3 0
151 0 1 0 2.348996332594747 -3.262241625784684 13.59938091594307 4 3 0
257 0 2 0 -5.230165553038295 16.011407884702894 4.396982149419913 3 1 0
1257 0 2 0 10.753037084768248 6.655050956085114 4.897838437742042 -5 -6 0
1662 0 2 0 3.046079611384559 11.88981138545021 -0.22531595021979844 -1 -4 0
2578 0 1 0 13.52964127926025 -1.7205343651226093 8.852763954518991 1 4 1
575 0 2 0 6.997634343259734 7.31252005637017 4.061743883245933 0 -1 0
1035 0 2 0 1.3434098678927402 17.500756490147552 3.101865780481851 3 -1 0
1253 0 2 0 13.084404455083831 -3.328767836332899 14.451040693940193 0 5 0
868 0 1 0 10.516721586647632 3.4507317836732363 10.01326859453926 -1 2 0
1382 0 2 0 3.831882866987759 0.3279423190382973 14.91485600710335 -1 -1 0
2243 0 2 0 9.048340987105242 5.8224055401650485 0.3045002510695971 0 0 1
260 0 2 0 9.76037676661358 2.2504175288523385 3.3612539657717937 2 1 0
369 0 2 0 -6.119469239207729 13.986009098258943 12.298768350016909 -1 2 0
1047 0 2 0 -0.18476857355164472 19.137220218357335 -0.1857523577783936 -3 -4 0
478 0 1 0 7.9337123290919145 7.307414894111239 6.876419704198131 4 4 0
1064 0 2 0 8.825046390879212 1.5900341350214071 9.468484334878172 0 2 0
493 0 1 0 10.6722084970576 0.29155865440205275 11.49931720098963 1 -2 0
2511 0 2 0 1.1921625595550427 12.834250251194266 4.5495827736649685 1 -3 0
1525 0 1 0 2.3602793545578145 2.33049942469147 7.926571811071483 2 1 0
699 0 2 0 3.2163931133268684 19.993418878356046 0.275833168366894 -3 0 0
560 0 2 0 3.22297944497587 7.009477875876556 8.983177801548864 -1 -1 0
1281 0 2 0 2.4764728488787155 -1.0896109479172313 3.9726738699353668 -2 1 0
546 0 2 0 -3.3583048465039567 7.943208360619391 2.7374843189833955 2 1 0
519 0 2 0 12.907420987307239 -1.341403407080883 13.72523915585707 0 -3 0
1190 0 2 0 6.869471324780823 3.651338671138322 3.0124437568402698 1 0 0
947 0 2 0 0.11540076145129813 5.2389661010279 10.06825070379714 6 7 0
1130 0 2 0 -1.405037214369162 7.098018465868776 9.868160236336564 -1 -3 0
1554 0 2 0 6.03208780224838 4.472344590419915 4.750858672584597 -1 3 0
345 0 2 0 -0.17616235512257175 6.941639971751192 6.0885414774046795 3 -4 0
494 0 2 0 9.869729156679979 -0.25940859553806694 11.44244430817201 1 -2 0
336 0 2 0 1.47363456195753 2.6678802114505857 3.5072146692353963 -2 -5 0
29 0 2 0 -1.346259489309564 11.719079131378013 14.3196282615561 5 3 0
2306 0 2 0 -2.5766638374725086 15.777652593647163 1.8799138449151012 0 -1 0
13 0 1 0 -0.4536897852602476 15.130196422207117 5.7160621521554 0 0 0
206 0 2 0 5.639228224266805 -2.6113452862947466 13.715741658420008 2 4 0
880 0 1 0 3.938868670676152 4.79346544948811 5.134383209765239 -1 3 0
633 0 2 0 11.023046993104439 -1.5568538043926357 4.614975862549326 0 -3 0
476 0 2 0 3.084523929142169 13.708393630795012 7.543014658991417 -2 -2 0
1093 0 1 0 4.626918721554488 15.593014148372284 1.1412822872479298 -3 2 0
1252 0 1 0 13.81374895098408 -2.912633817848251 14.898744255792275 0 5 0
78 0 2 0 2.8764833056882 10.212596970737135 13.077607358605695 6 0 0
524 0 2 0 -0.7308812988464904 5.519318292182453 4.253722656364343 0 0 0
944 0 2 0 5.1067471222110905 1.570490733244457 7.925121960496298 1 5 0
858 0 2 0 1.6077623402197354 9.323602071231885 14.690061413612142 -2 2 0
814 0 1 0 13.512231989061005 0.6752175840296535 5.500958606521122 -3 0 0
93 0 2 0 -0.5079866912667124 0.808139654898127 4.747146031713695 4 7 0
1433 0 2 0 6.153470055189406 9.36084463257894 0.5291719557944214 1 -2 0
955 0 1 0 7.031930675456733 0.5120814705307155 1.8700938910823148 2 3 0
882 0 2 0 3.629915249517568 5.69445431281239 5.2044660932054 -1 3 0
1219 0 1 0 3.9541936119736247 19.706710060070662 2.0768265781453876 -4 -2 0
807 0 2 0 0.6085707459172748 8.403401385816545 2.7855920456977588 1 0 0
141 0 2 0 1.667462668412103 2.349817169402411 14.660521434056141 1 3 0
160 0 1 0 5.6886839308304555 -3.6048321437123025 15.367240144101395 1 5 0
140 0 2 0 0.25257862620159355 2.5130571602880885 15.232884151993844 1 3 0
368 0 2 0 -5.66607812955328 14.835349981851891 13.420097026969417 -1 2 0
367 0 1 0 -5.6883918514526135 13.907667535700476 13.148452815793828 -1 2 0
353 0 2 0 -7.660542842022905 16.285241755672608 6.770600598447998 2 -2 0
1221 0 2 0 4.112551299896336 18.717649235150105 2.049457253912535 -4 -1 0
313 0 1 0 -1.0385470481364978 13.017814756625434 9.240346725951092 3 2 0
1157 0 2 0 -0.9719452657385903 1.7030315519501 12.186754325567218 -1 6 0
1025 0 2 0 -7.719686255935355 19.42960041219154 1.1174924088391134 2 -4 0
2587 0 1 0 10.470691504935916 7.09921506407786 7.89173583129428 0 0 1
1721 0 2 0 2.647768540218983 14.858398604230045 3.744000904939191 -2 -1 0
1129 0 1 0 -1.9836466252965272 6.414670248420622 10.1664662804059 -1 -3 0
603 0 2 0 13.79098437802838 -0.29342787257106295 1.1158831978860597 -4 -8 0
480 0 2 0 7.6959792374814215 7.932852875157586 7.644585013506763 4 4 0
283 0 1 0 14.065523689896372 0.8816157714710449 8.286300176690352 0 1 0
162 0 2 0 5.174274960601565 -4.429896567295139 15.358836482598441 1 5 0
698 0 2 0 2.8559962288049157 18.71323724889049 -0.41934716495061264 -3 0 0
1284 0 2 0 3.1844502606040646 17.063124448216062 3.851828117779448 3 3 0
1490 0 2 0 12.237216842934188 2.9023838659219794 10.160491732157372 2 -5 0
818 0 2 0 6.142114090303551 4.6872670909600505 -0.7476566224539825 -1 0 0
1026 0 2 0 -8.651582529977796 20.79683263800411 0.9295073697145129 2 -4 0
28 0 1 0 -1.2393007378420724 10.955914316101072 14.88039782038636 5 3 0
863 0 2 0 2.7140059475300315 0.1123747961258515 0.23415063524144708 0 -5 0
1277 0 2 0 1.331101068556403 0.6565083056557519 3.0219223144751592 -5 -5 0
678 0 2 0 0.7563565155920235 1.7828520567885793 11.001988686408998 3 -3 0
1679 0 2 0 2.9236774379848205 11.838581707924376 5.7359169927002664 0 -1 0
2292 0 2 0 4.306793020128965 0.21253082095278053 10.030664904431703 4 4 1
1231 0 1 0 5.2913128403918925 8.51591820418345 3.5379308865876347 -5 -4 0
157 0 1 0 -1.7740988563859625 5.953176810661316 0.8098982469379763 1 0 0
1409 0 2 0 3.504937436495045 -2.0496679173787613 9.567670030518572 5 3 0
1209 0 2 0 -4.9857522432759565 10.741359158783734 13.798771390566523 0 -4 0
337 0 1 0 -1.6866120822890591 3.445751813489303 7.829198108096042 -1 1 0
1158 0 2 0 -1.106093347885921 0.39258126963226037 11.306195701089854 -1 6 0
1533 0 2 0 -2.1071339470160138 3.383548868141956 13.473227462135918 3 1 0
747 0 2 0 0.2959240353990741 8.420999763825149 0.25985512163029445 -1 -1 0
2280 0 2 0 5.031158912396622 11.059801894569922 12.9308468223836 3 3 1
227 0 2 0 -4.4195960126215885 18.011794531228457 4.8654172443791825 1 -1 0
744 0 2 0 1.130856052263584 0.10595618714397048 6.19225920107294 0 1 0
473 0 2 0 -0.40021199327760265 -2.065754821293955 13.352090982645796 -1 3 0
486 0 2 0 4.503971229641515 14.145580086073146 12.125885133036528 5 8 0
1169 0 2 0 6.985789890811059 15.811850172001845 6.009761050290389 1 2 0
2545 0 1 0 -0.7165593111229315 15.766993475293441 -0.7036233584588512 3 -1 0
321 0 2 0 5.053416934801217 3.3241895465344493 14.855940855799084 0 0 0
1417 0 1 0 -1.0421052894216243 15.925991850860935 12.24215658147042 2 4 0
1497 0 2 0 10.291640453021298 1.7933859993901615 12.257650820168703 2 -2 0
137 0 2 0 -3.496275232898436 20.42344779791863 2.0208467982106053 3 0 0
1205 0 2 0 -2.1860277279211675 14.417509238985541 14.966922972357972 -2 3 0
1661 0 2 0 2.565247147386415 10.467673948552637 -0.4687800725068308 -1 -4 0
815 0 2 0 14.345559177128278 0.4923001128492632 5.000187413744233 -3 0 0
835 0 1 0 6.764582770730852 9.116354159681366 8.356852712569994 3 1 0
1496 0 2 0 10.501325448719244 3.156640329000161 11.973504650125236 2 -2 0
285 0 2 0 13.857109388186096 1.1125060312976598 7.381941205125791 0 1 0
584 0 2 0 8.369824526491238 8.226749582046867 0.36055063488613714 0 3 0
1109 0 2 0 9.678293953936587 4.8319120105776046 2.7372888006052136 -1 2 0
1629 0 2 0 5.522362641616336 11.4837132169187 0.013498449330876405 1 -2 0
1211 0 2 0 11.414236314765054 1.120935134412259 6.442092580396165 0 -1 0
786 0 2 0 -2.606325116820306 13.43614023078038 7.691681066230595 4 -1 0
381 0 2 0 8.613785637006282 4.824432319870852 14.13714978940663 5 1 0
1280 0 2 0 3.5276993719307908 -0.08238361500175517 3.934607851610851 -2 1 0
372 0 2 0 8.418793334072092 2.1127975029037684 -0.40588133886162653 -1 4 0
406 0 1 0 1.2035056499181227 -3.349652626594899 9.6124163673523 -3 -2 0
1168 0 1 0 6.109632682756596 16.181102572158608 5.873733696445618 1 2 0
354 0 2 0 -7.192341141321276 17.292011356252505 7.834707845179736 2 -2 0
2547 0 2 0 -1.5871369705114395 15.777781362371295 -0.2675938165095265 3 -1 0
1041 0 2 0 4.185474324174011 11.28912420807627 9.502940596901874 -1 -5 0
170 0 2 0 -1.3862341963354967 16.70895861759 8.00924890404455 5 1 0
226 0 1 0 -3.930849431389244 17.798921282408863 4.020137555007625 1 -1 0
101 0 2 0 3.6959574407987104 13.998874168760281 1.177423932045203 -2 1 0
1167 0 2 0 3.740246577705751 8.38553159058381 7.396823109294212 2 -5 0
869 0 2 0 10.142210738393606 4.382587222908008 10.26041216743255 -1 2 0
742 0 1 0 2.0412291849899487 -0.06420854183610247 6.486717967220028 0 1 0
233 0 2 0 9.260696224343546 -2.144775489522721 13.25286439942731 -4 0 0
2481 0 2 0 -1.1886576669105986 9.07484631921357 8.94229770818851 -4 -1 1
618 0 2 0 2.65215627320444 16.19486646495372 13.520608771998848 4 -1 0
1151 0 2 0 10.076030838909363 0.7773412964580757 15.724072549376238 -3 4 0
1034 0 2 0 -0.165275935643513 17.340513145406657 2.726678378883478 2 -1 0
1262 0 2 0 -0.921129220885696 12.673711968388508 3.207763459995477 -1 3 0
2554 0 1 0 1.2264519068321253 -0.8130606545643784 12.947903198526785 0 -1 1
1425 0 2 0 11.57543834548806 3.818024101904358 13.468141698281425 3 7 0
68 0 2 0 13.635401408979677 1.9365810525521567 2.507899126131907 0 4 0
872 0 2 0 6.9609905152435925 10.257730866217614 6.89852120891767 3 1 0
919 0 1 0 10.830655345396721 -2.925415608355166 8.861065246087955 -1 -6 0
973 0 1 0 -4.504778466098167 16.361638654848527 6.251712003887381 4 0 0
2184 0 2 0 -3.7127367818842902 15.914551840772784 9.329848431922283 1 -1 0
47 0 2 0 8.518339953104357 0.8843103564479657 4.84963503939603 3 3 0
422 0 2 0 4.631114166726128 6.055665387239232 14.2876633284414 2 -1 0
2450 0 2 0 0.4908871380559576 1.867211291645351 -0.7653483061168145 2 4 0
1546 0 1 0 -7.2801254553397685 17.693270884348664 1.9146730248409143 0 2 0
458 0 2 0 13.186014088824201 0.7954345089592305 11.609101943806657 0 -3 0
948 0 2 0 1.0281872940552224 3.955953713973616 10.284988037874811 6 7 0
1601 0 2 0 -5.5594240342116805 9.201291446204293 15.437935690176428 -1 0 0
518 0 2 0 11.74170692366834 -0.5476999699383596 13.122899336837841 0 -3 0
53 0 2 0 6.397981350127416 17.65366205106053 2.7008808283465457 4 1 0
601 0 1 0 14.478424294991042 0.22653233702204134 0.6693662273356882 -4 -8 0
41 0 2 0 3.018480799315405 4.1572740589243935 14.025687612454924 -4 -1 0
1095 0 2 0 4.7950084752075455 16.020840458120645 1.9918364662677996 -2 2 1
407 0 2 0 1.0085699872288278 -2.4809259225924523 9.334777030150242 -3 -2 0
1268 0 2 0 -7.078751685189915 18.138696115473053 3.7275587059042765 2 0 0
1184 0 2 0 3.2570747402314164 14.923342830810281 15.340527092243825 0 1 0
24 0 2 0 2.5118524100611617 6.947334573814172 13.984584265142177 3 2 0
54 0 2 0 5.774488678733404 17.072875485619164 3.9990295003953067 4 1 0
2510 0 2 0 0.4663870821594541 11.478240318137013 4.814357271043181 1 -2 0
2331 0 2 0 0.11721842908672728 14.988589653647303 0.8439362415155383 0 2 0
2555 0 2 0 0.6548708578056915 -0.1894487395022928 12.498096766682686 0 -1 1
918 0 2 0 11.532249046674604 7.150653353656791 -0.0014540448126114658 4 -1 0
514 0 1 0 4.83377927518593 0.5502090935261768 13.488185150385027 5 5 0
655 0 1 0 10.37361310519861 4.782801492632263 5.548795648908441 -6 1 0
1164 0 2 0 1.5951944216277587 10.702178453631353 8.9220262665028 -2 3 0
1640 0 2 0 9.576033891960169 6.580316055193052 9.682960614832984 0 0 0
1189 0 1 0 6.840367952869998 3.7026204568709566 2.040840124286126 1 0 0
1256 0 2 0 11.36933042920913 7.884770728374063 5.382907026037526 -5 -6 0
1269 0 2 0 -7.128535870192321 18.402670344190746 5.305468904514006 2 0 0
1123 0 1 0 5.074873911320044 14.572362105232823 15.292552187504313 -2 1 0
153 0 2 0 2.800034992428834 -3.8064284298706728 12.945293549349108 4 3 0
1324 0 1 0 8.23813621460654 -4.851332737967219 14.907495863368853 0 0 0
578 0 2 0 3.873936649592879 10.300335188690433 1.423081088752756 -3 -8 0
366 0 2 0 7.246624091577055 6.015076812319462 8.030978811444099 -1 -4 0
2460 0 2 0 -1.4862849427917835 10.405725644649682 12.045824584546233 2 2 1
482 0 2 0 -3.2350618396975808 14.37794509038223 10.699392846560318 1 1 0
632 0 2 0 10.763962008557288 -0.11127024184196799 4.093896082986114 0 -3 0
452 0 2 0 -6.0173511596843765 13.100271530828604 7.540698014303583 0 -5 0
1170 0 2 0 5.734442155663067 16.832559630895528 6.550173933942802 1 2 0
1483 0 1 0 5.520022650071088 8.028832674820174 14.681893865834454 3 0 0
862 0 1 0 3.187544006972966 0.9027398892069122 0.6100902198615086 0 -5 0
1516 0 1 0 8.051271176561322 0.6327323212043843 6.490343205518988 0 1 0
129 0 2 0 4.821963223110927 16.726455257304835 10.215778470464567 0 0 0
871 0 1 0 6.498258687902994 10.893864310812972 6.357142120342517 3 1 0
1305 0 2 0 4.007791386127862 4.863387727358952 8.7974202627823 0 0 0
2307 0 2 0 -3.736461797352059 16.081212701043622 1.0521645753306608 0 -1 1
943 0 1 0 4.862921124960847 1.8790134287674336 7.030462530675313 1 5 0
46 0 1 0 8.954577751347038 0.7273409135260926 3.9736183782087515 3 3 0
2183 0 2 0 -4.94402662473126 15.76269885822825 10.342554469127467 1 -1 1
247 0 1 0 2.8439151374929277 -0.7412142062436828 10.58047326224913 3 -1 0
1274 0 2 0 14.935226385278613 -2.613620424146223 11.19340045601087 -1 5 0
86 0 2 0 5.038455535501311 15.017933900663472 4.972032443425459 2 0 0
1040 0 2 0 3.3422868985762784 10.751661829504512 10.735290380448758 -1 -5 0
1520 0 2 0 -5.741953162818802 12.391690269266334 5.277622702714885 2 5 0
1283 0 2 0 2.4463368888443093 17.184363581743455 5.046223295882949 3 3 0
221 0 2 0 8.031425469147129 3.7304947792581897 7.783734133467457 3 3 0
1208 0 2 0 -4.712435749222724 12.180737364582379 13.434757289035938 0 -3 0