LAMMPS (23 Jun 2022)
include procedure.lmp
echo both
include		in.partitions
variable        pid world 0
include		in.temp
variable	temperature equal 275
variable        tempDamp equal 0.100 # this is 0.1 ps
include		in.pressure
variable        pressure equal 3039.75
variable        pressureDamp equal 1.0 #this is 1ps

variable	barostat string	   tri
variable	direction string   z
variable	direction_x_bool equal 0
variable	direction_y_bool equal 0
variable	direction_z_bool equal 1

include		in.seed
variable        seed world 745823

units           metal
atom_style	full
box tilt large
read_restart 	restart.lmp.${pid}
read_restart 	restart.lmp.0
Reading restart file ...
  restart file = 23 Jun 2022, LAMMPS = 23 Jun 2022
  restoring atom style full from restart
  triclinic box = (0 0 -0.76144246) to (31.216999 21.524542 32.557161) with tilt (-9.212092 0.77328745 -11.222471)
WARNING: Triclinic box skew is large (../domain.cpp:224)
  2 by 1 by 2 MPI processor grid
Summary of lammps deepmd module ...
  >>> Info of deepmd-kit:
  installed to:       /u/sigbjobo/software/DEEPMD_FROM_SOURCE/deepmd-kit/install
  source:             v2.1.3
  source branch:       master
  source commit:      5a32c49
  source commit at:   2022-07-01 09:52:58 +0800
  surpport model ver.:1.1 
  build float prec:   double
  build with tf inc:  /u/sigbjobo/software/DEEPMD_FROM_SOURCE/tensorflow/install/include;/u/sigbjobo/software/DEEPMD_FROM_SOURCE/tensorflow/install/include
  build with tf lib:  /u/sigbjobo/software/DEEPMD_FROM_SOURCE/tensorflow/install/lib/libtensorflow_cc.so;/u/sigbjobo/software/DEEPMD_FROM_SOURCE/tensorflow/install/lib/libtensorflow_framework.so
  set tf intra_op_parallelism_threads: 0
  set tf inter_op_parallelism_threads: 0
  >>> Info of lammps module:
  use deepmd-kit at:  /u/sigbjobo/software/DEEPMD_FROM_SOURCE/deepmd-kit/install
  source:             v2.1.3
  source branch:      master
  source commit:      5a32c49
  source commit at:   2022-07-01 09:52:58 +0800
  build float prec:   double
  build with tf inc:  /u/sigbjobo/software/DEEPMD_FROM_SOURCE/tensorflow/install/include;/u/sigbjobo/software/DEEPMD_FROM_SOURCE/tensorflow/install/include
  build with tf lib:  /u/sigbjobo/software/DEEPMD_FROM_SOURCE/tensorflow/install/lib/libtensorflow_cc.so;/u/sigbjobo/software/DEEPMD_FROM_SOURCE/tensorflow/install/lib/libtensorflow_framework.so
  restoring pair style deepmd from restart
  2592 atoms
Finding 1-2 1-3 1-4 neighbors ...
  special bond factors lj:    0        0        0       
  special bond factors coul:  0        0        0       
     0 = max # of 1-2 neighbors
     0 = max # of 1-3 neighbors
     0 = max # of 1-4 neighbors
     1 = max # of special neighbors
  special bonds CPU = 0.000 seconds
  read_restart CPU = 0.038 seconds
include 	in.setup
variable	out_freq equal 2000
variable	out_freq2 equal 2000

timestep        0.0005

neigh_modify    delay 7 every 1

include         in.deepmd
# This is deepMD model

# create groups ###
#group ox type 2
#group hy type 1

mass 2 15.999
mass 1 1.008

pair_style      deepmd ../graph.pb
pair_coeff      * *

bond_style      none
angle_style     none
dihedral_style  none
improper_style  none
neigh_modify exclude none


neighbor        2.0 bin
neigh_modify    every 50 delay 0 check no

thermo          ${out_freq}
thermo          2000
thermo_style 	custom step temp pe etotal epair emol press lx ly lz vol pxx pyy pzz pxy pxz pyz

restart 	${out_freq} restart.lmp.${pid} restart2.lmp.${pid}
restart 	2000 restart.lmp.${pid} restart2.lmp.${pid}
restart 	2000 restart.lmp.0 restart2.lmp.${pid}
restart 	2000 restart.lmp.0 restart2.lmp.0


timer           timeout 23:50:00 every 1000
New timer settings: style=normal  mode=nosync  timeout=23:50:00


# Set number of time steps
variable 	nsteps_wall		equal	 6000000
variable 	nsteps_enhanced_coex    equal	100000000

variable     nsteps_enhanced_coex_upto equal (${nsteps_wall}+${nsteps_enhanced_coex})
variable     nsteps_enhanced_coex_upto equal (6000000+${nsteps_enhanced_coex})
variable     nsteps_enhanced_coex_upto equal (6000000+100000000)


# Set temperature for first step
if "$(step) < 1  " then    "velocity 	all create ${temperature} ${seed} dist gaussian"


# Always run thermo and barostat


######################################
# Run simulation with wall potential #
######################################
if " $(step) < ${nsteps_wall} " then    "fix             3 all plumed plumedfile plumed.equil.dat outfile plumed.equil.out"   "fix             1 all nph ${direction} ${pressure} ${pressure} ${pressureDamp}"   "fix             2 all temp/csvr ${temperature} ${temperature} ${tempDamp} ${seed}"   "run             ${nsteps_wall} upto"
if " $(step) == ${nsteps_wall} " then    "unfix 3"   "unfix 1"   "unfix 2"


############################
# Run enhanced coesistence #
############################
if "$(step) == ${nsteps_wall}" then    "fix             3 all plumed plumedfile plumed.start.dat outfile plumed.out" else    "fix             3 all plumed plumedfile plumed.dat outfile plumed.out"
fix             3 all plumed plumedfile plumed.dat outfile plumed.out

if "$(step) < ${nsteps_enhanced_coex_upto} && $(step) >= ${nsteps_wall} " then    "include         in.dump"    "fix             1 all nph ${direction} ${pressure} ${pressure} ${pressureDamp}"   "fix             2 all temp/csvr ${temperature} ${temperature} ${tempDamp} ${seed}"   "run             ${nsteps_enhanced_coex_upto} upto"    "unfix 3"   "unfix 1"   "unfix 2"
include         in.dump
dump            myDump all atom ${out_freq2} dump.water.${pid}
dump            myDump all atom 2000 dump.water.${pid}
dump            myDump all atom 2000 dump.water.0
dump            myDump2 all dcd ${out_freq2} dump.${pid}.dcd
dump            myDump2 all dcd 2000 dump.${pid}.dcd
dump            myDump2 all dcd 2000 dump.0.dcd
dump_modify     myDump append yes
dump_modify     myDump2 append yes

fix             1 all nph ${direction} ${pressure} ${pressure} ${pressureDamp}
fix             1 all nph z ${pressure} ${pressure} ${pressureDamp}
fix             1 all nph z 3039.75 ${pressure} ${pressureDamp}
fix             1 all nph z 3039.75 3039.75 ${pressureDamp}
fix             1 all nph z 3039.75 3039.75 1
fix             2 all temp/csvr ${temperature} ${temperature} ${tempDamp} ${seed}
fix             2 all temp/csvr 275 ${temperature} ${tempDamp} ${seed}
fix             2 all temp/csvr 275 275 ${tempDamp} ${seed}
fix             2 all temp/csvr 275 275 0.1 ${seed}
fix             2 all temp/csvr 275 275 0.1 745823
run             ${nsteps_enhanced_coex_upto} upto
run             106000000 upto

CITE-CITE-CITE-CITE-CITE-CITE-CITE-CITE-CITE-CITE-CITE-CITE-CITE

Your simulation uses code contributions which should be cited:

- USER-DEEPMD package:

@article{Wang_ComputPhysCommun_2018_v228_p178,
  author = {Wang, Han and Zhang, Linfeng and Han, Jiequn and E, Weinan},
  doi = {10.1016/j.cpc.2018.03.016},
  url = {https://doi.org/10.1016/j.cpc.2018.03.016},
  year = 2018,
  month = {jul},
  publisher = {Elsevier {BV}},
  volume = 228,
  journal = {Comput. Phys. Commun.},
  title = {{DeePMD-kit: A deep learning package for many-body potential energy representation and molecular dynamics}},
  pages = {178--184}
}

CITE-CITE-CITE-CITE-CITE-CITE-CITE-CITE-CITE-CITE-CITE-CITE-CITE

Generated 0 of 1 mixed pair_coeff terms from geometric mixing rule
Neighbor list info ...
  update every 50 steps, delay 0 steps, check no
  max neighbors/atom: 2000, page size: 100000
  master list distance cutoff = 8
  ghost atom cutoff = 8
  binsize = 4, bins = 11 9 9
  1 neighbor lists, perpetual/occasional/extra = 1 0 0
  (1) pair deepmd, perpetual
      attributes: full, newton on
      pair build: full/bin
      stencil: full/bin/3d
      bin: standard
Per MPI rank memory allocation (min/avg/max) = 6.231 | 6.232 | 6.233 Mbytes
   Step          Temp          PotEng         TotEng         E_pair         E_mol          Press            Lx             Ly             Lz           Volume          Pxx            Pyy            Pzz            Pxy            Pxz            Pyz      
  88621000   282.0702      -400.2724      -305.80341     -400.2724       0              3648.1656      31.216999      21.524542      33.318604      22387.823      2818.1999      2509.2696      5617.0272     -457.19106      1168.4758      336.59279    
  88622000   276.63454     -399.70294     -307.05442     -399.70285      0              3178.73        31.216999      21.524542      33.685777      22634.538      2172.3737      3908.4751      3455.3412     -171.46928     -786.63677      1503.1408    
  88624000   280.81052     -402.06074     -308.01364     -401.99156      0              1289.7907      31.216999      21.524542      33.77795       22696.472     -1694.6066      2027.2142      3536.7645      381.37082      1418.106      -77.943238    
  88626000   276.01864     -400.19066     -307.74842     -400.18099      0              2459.3836      31.216999      21.524542      33.535891      22533.825      1834.2323      1306.6331      4237.2854     -727.98224      258.44494      94.232569    
  88628000   281.72036     -401.62552     -307.2737      -401.53838      0              4691.6085      31.216999      21.524542      33.538066      22535.286      5928.6568      3559.8773      4586.2915      843.57184      233.56367     -706.41796    
  88630000   275.50629     -396.8         -304.52935     -396.8559       0              3224.9532      31.216999      21.524542      33.573474      22559.078      3536.2771      1903.8166      4234.766      -433.76431      923.94649     -1513.3921    
  88632000   279.86205     -399.27062     -305.54117     -399.23344      0              2524.6941      31.216999      21.524542      33.708782      22649.996      3339.2777      2944.7064      1290.0982      591.2874      -29.617024      339.16352    
  88634000   278.55339     -397.59194     -304.30078     -397.61307      0              1889.9749      31.216999      21.524542      33.766035      22688.466      1308.4792      960.82395      3400.6214      952.31755      186.79802     -158.19242    
  88636000   278.9993      -400.13731     -306.6968      -400.17189      0              4935.3993      31.216999      21.524542      33.616724      22588.139      5097.5551      5569.2757      4139.367       819.32302      1.5795844      157.64011    
  88638000   275.91844     -400.12036     -307.71168     -400.1292       0              2951.2767      31.216999      21.524542      33.344537      22405.248      2145.2602      3723.8875      2984.6824      1974.5084      890.25062     -1866.9537    
  88640000   273.48455     -399.3042      -307.71065     -399.30193      0              2022.413       31.216999      21.524542      33.411857      22450.483      2380.5069      1368.162       2318.5701      408.57005     -1443.8083      547.05311    
  88642000   269.80552     -401.95938     -311.598       -401.9436       0              2642.1828      31.216999      21.524542      33.438082      22468.104      3185.9891      1458.0203      3282.539       308.85726     -336.14617      177.71261    
  88644000   271.12673     -401.943       -311.13913     -401.78331      0              1365.1105      31.216999      21.524542      33.252196      22343.202      1208.9982      1611.3574      1274.9759     -76.118965      1184.1447      664.01672    
  88646000   282.50439     -396.34397     -301.72957     -396.31096      0              3783.6895      31.216999      21.524542      33.36138       22416.566      5060.8939      2476.9307      3813.2439      1968.9444     -55.725236     -263.41192    
  88648000   276.9187      -397.65246     -304.90877     -397.54148      0              2503.7935      31.216999      21.524542      33.362639      22417.412      4109.4264     -274.21294      3676.1671      262.69491     -362.72427      246.4272     
  88650000   271.01209     -399.59588     -308.8304      -399.56972      0              5055.4102      31.216999      21.524542      33.380423      22429.361      4667.191       4954.0062      5545.0334      306.81359     -1229.3501     -1040.0823    
  88652000   279.38002     -397.63794     -304.06993     -397.66341      0              3633.9119      31.216999      21.524542      33.669926      22623.887      1756.1025      3268.666       5876.9671      1579.2065      404.31182     -948.27643    
  88654000   278.28304     -398.8891      -305.68848     -398.91495      0              774.04823      31.216999      21.524542      33.627187      22595.17       1595.0042      1032.837      -305.69657     -206.13926      1354.508      -247.60146    
  88656000   275.29264     -401.6636      -309.46451     -401.65218      0              1553.1008      31.216999      21.524542      33.397658      22440.942      2526.1105      2485.3205     -352.12861      1591.4403     -1412.8703     -951.62212    
  88658000   271.34134     -399.97548     -309.09973     -399.93842      0              5011.1415      31.216999      21.524542      33.46406       22485.56       4337.184       3165.4101      7530.8304      143.92817      787.30342      123.73291    
  88660000   275.17106     -399.67117     -307.51279     -399.64554      0              3312.0904      31.216999      21.524542      33.551235      22544.135      1641.3174      2321.6265      5973.3272     -945.78103      470.03822      494.95234    
  88662000   275.9354      -401.58653     -309.17216     -401.61654      0             -22.086234      31.216999      21.524542      33.534667      22533.003     -731.45885      87.175698      578.02445      196.49824     -695.96055     -280.07453    
  88664000   275.68174     -398.36712     -306.03772     -398.35922      0              4000.6516      31.216999      21.524542      33.26315       22350.562      4283.5466      5988.1812      1730.2271     -396.67126     -14.409518     -1367.4526    
  88666000   274.93478     -400.86416     -308.78492     -400.86285      0              3076.6372      31.216999      21.524542      33.447202      22474.232      2175.9036      2205.1458      4848.8623      139.59704     -1426.8076      430.05641    
  88668000   280.04092     -399.04357     -305.25422     -399.03839      0              2748.6784      31.216999      21.524542      33.545921      22540.564      2472.8022      3825.602       1947.6311     -467.56839     -938.43969     -964.50033    
  88670000   272.52508     -394.79299     -303.52079     -394.80505      0              3226.3815      31.216999      21.524542      33.553752      22545.827      2065.2343      4353.5587      3260.3515      1707.8185     -1948.5598      24.581573    
  88672000   284.36899     -397.02848     -301.7896      -397.03355      0              4734.2676      31.216999      21.524542      33.65014       22610.593      4608.2709      3794.8331      5799.6988      357.10725     -266.85437     -292.23099    
  88674000   275.1772      -399.05874     -306.89831     -399.11868      0              1098.9105      31.216999      21.524542      33.639274      22603.292      2379.8619      419.46698      497.40272     -125.2792      -1396.7334     -2336.6       
  88676000   278.91559     -398.37543     -304.96297     -398.36815      0              3722.0776      31.216999      21.524542      33.737697      22669.425      4935.2948      1551.1175      4679.8204     -383.29895      11.969894     -1085.59      
  88678000   270.80029     -400.50548     -309.81093     -400.56809      0              1990.7015      31.216999      21.524542      33.713546      22653.197      2167.5143      2233.297       1571.2932     -815.65326     -2972.8497     -1355.1716    
  88680000   271.99512     -397.6216      -306.52689     -397.65431      0              2705.4146      31.216999      21.524542      33.45035       22476.347      2215.3945      1472.6129      4428.2365     -488.20396     -351.80702      521.72175    
  88682000   274.02531     -400.23749     -308.46284     -400.18442      0              5339.7053      31.216999      21.524542      33.279266      22361.39       5923.5239      4543.7345      5551.8574      79.526819     -1749.0753      68.117269    
  88684000   281.38076     -395.70202     -301.46393     -395.7225       0              3545.9066      31.216999      21.524542      33.66404       22619.933      3162.13        5691.1148      1784.475      -1047.4512     -643.73971     -969.19591    
  88686000   270.75302     -401.82585     -311.14713     -401.80805      0              4582.8038      31.216999      21.524542      33.310679      22382.498      4114.9983      4576.2753      5057.1377      544.8337      -162.2035      -99.340542    
  88688000   279.77749     -400.47159     -306.77046     -400.44918      0              2898.1414      31.216999      21.524542      33.366948      22420.307      3416.8515      2636.6496      2640.923       1099.6606     -1111.4823      1202.2484    
  88690000   273.53066     -401.79304     -310.18406     -401.78028      0              3527.1619      31.216999      21.524542      33.379192      22428.534      3422.6289      3590.1311      3568.7256      1734.271      -313.10759     -294.88457    
  88692000   268.83245     -399.6298      -309.59431     -399.58927      0              3203.3787      31.216999      21.524542      33.44548       22473.075      4788.1101      2481.4711      2340.5548      19.294174     -1142.5416      1278.6169    
  88694000   278.47135     -402.27034     -309.00665     -402.26773      0              2224.8953      31.216999      21.524542      33.460601      22483.235      1132.7116      1860.1801      3681.7943     -735.95106      437.96258      946.83439    
  88696000   277.02857     -400.53509     -307.75461     -400.51366      0              3509.4776      31.216999      21.524542      33.583488      22565.807      2315.5572      3866.914       4345.9617      287.43416      53.059574     -202.41551    
  88698000   267.84631     -402.45463     -312.74941     -402.37636      0              3931.0652      31.216999      21.524542      33.537929      22535.195      3711.2783      2962.5851      5119.3323      210.91747      785.3756       182.70087    
  88700000   270.92669     -403.03459     -312.29771     -402.97906      0              2749.5115      31.216999      21.524542      33.540253      22536.756      4188.813       2139.3563      1920.3651     -709.85606     -388.52539      1525.3953    
  88702000   270.0849      -400.56632     -310.11137     -400.60632      0              1448.8734      31.216999      21.524542      33.535025      22533.243      2174.581       2325.2535     -153.21417      333.92714      1408.6291      101.08746    
  88704000   278.52342     -400.36894     -307.08782     -400.38706      0              516.19546      31.216999      21.524542      33.505219      22513.216      609.62962      701.76526      237.19149      291.10769     -2840.9203      16.086502    
  88706000   276.81829     -402.52272     -309.81266     -402.46919      0              5412.507       31.216999      21.524542      33.53484       22533.119      4957.851       5469.4014      5810.2686     -153.75348      1416.1502     -1667.9344    
  88708000   272.00125     -400.69234     -309.59558     -400.72724      0              4106.9739      31.216999      21.524542      33.44632       22473.639      5452.0088      3300.0777      3568.835       1121.0716     -1368.0652     -1759.3457    
  88710000   265.43537     -403.0312      -314.13344     -402.97208      0              2130.5678      31.216999      21.524542      33.435745      22466.534      1457.5322      2451.8593      2482.3119     -19.606519     -418.31437     -70.912258    
  88712000   273.37568     -401.18768     -309.6306      -401.20694      0              2796.2714      31.216999      21.524542      33.639005      22603.11       3057.7599      3428.0879      1902.9664      1162.5173      457.86076     -207.52202    
  88714000   272.67756     -399.19972     -307.87645     -399.17254      0              3104.5334      31.216999      21.524542      33.772136      22692.566      2508.1168      3397.7063      3407.7771      1331.625       447.21031      372.17016    
  88716000   270.92208     -403.10027     -312.36494     -402.98777      0              4341.1979      31.216999      21.524542      33.56295       22552.007      4406.9064      3683.533       4933.1544     -376.46008     -255.13859      1146.1819    
  88718000   271.12759     -401.68437     -310.8802      -401.68281      0              2050.731       31.216999      21.524542      33.40741       22447.495     -438.38934      1944.4266      4646.1558      1021.8113      368.62764     -708.88553    
  88720000   273.33955     -401.6299      -310.08492     -401.49011      0              3584.231       31.216999      21.524542      33.249635      22341.481      3791.607       3912.7575      3048.3286      364.4521      -155.1701       47.258715    
  88722000   280.68664     -402.95086     -308.94524     -402.85514      0              2301.4866      31.216999      21.524542      33.238798      22334.199      2522.0504      2248.0705      2134.3389     -1572.1207      262.75748     -3118.559     
  88724000   277.39287     -403.46183     -310.55934     -403.35633      0              2627.5053      31.216999      21.524542      33.389868      22435.708      3839.9186      2105.0372      1937.5603      1395.7733     -1548.4621     -248.46666    
  88726000   274.38059     -402.26501     -310.37137     -402.11947      0              3464.7904      31.216999      21.524542      33.593004      22572.201      5454.7335      1960.2281      2979.4096     -468.90719      56.448168     -1276.0151    
  88728000   276.28744     -401.23222     -308.69996     -401.20489      0              706.47695      31.216999      21.524542      33.492541      22504.697      757.21808     -910.24605      2272.4588     -1856.3142     -484.34961      417.81722    
  88730000   278.53995     -401.16855     -307.88189     -401.11715      0              3890.2374      31.216999      21.524542      33.483626      22498.707      4231.7443      4122.0565      3316.9115     -1394.4833     -524.82432     -662.74024    
  88732000   273.78376     -401.30599     -309.61224     -401.22995      0              4146.4368      31.216999      21.524542      33.422797      22457.834      3280.1436      5270.5072      3888.6596     -601.90455     -329.29551     -2643.6756    
  88734000   276.31498     -402.27338     -309.73189     -402.13613      0              1457.9857      31.216999      21.524542      33.608315      22582.489      1516.3155      2089.7771      767.86463      344.17768     -345.84962     -1275.0353    
  88736000   278.23704     -401.02833     -307.84312     -400.92355      0              3815.0441      31.216999      21.524542      33.434889      22465.958      3860.1212      4813.8018      2771.2092     -666.85078      761.46242     -1.5581874    
  88738000   269.42182     -401.09162     -310.85874     -401.0259       0              3736.0795      31.216999      21.524542      33.460009      22482.837      2012.3315      5287.9696      3907.9374     -713.26297      1295.2845      296.91825    
  88740000   277.96444     -401.57671     -308.4828      -401.35833      0              1171.2465      31.216999      21.524542      33.473691      22492.031      843.53428      2100.4201      569.78521     -790.87609     -1422.1827     -394.03204    
  88742000   272.38376     -401.00984     -309.78497     -400.80151      0              4550.8238      31.216999      21.524542      33.457194      22480.946      5857.2807      2247.1704      5548.0204      1058.4489     -558.50196     -1741.8326    
  88744000   270.58592     -401.65594     -311.03319     -401.45538      0              1011.0799      31.216999      21.524542      33.609158      22583.055      4043.4568     -1182.8411      172.62396     -93.253788     -265.2581       449.03698    
  88746000   279.42696     -399.95013     -306.3664      -399.75166      0              1147.1072      31.216999      21.524542      33.667214      22622.065      2803.0166      248.15738      390.14756     -1851.3526      440.03333     -487.88471    
  88748000   277.7171      -402.89631     -309.88524     -402.70832      0              1910.5788      31.216999      21.524542      33.550403      22543.576      1117.7799      2326.524       2287.4325      215.6225       1350.4411     -245.10963    
  88750000   281.58155     -403.75229     -309.44696     -403.54107      0              2989.5232      31.216999      21.524542      33.66673       22621.74       2680.3331      3595.9778      2692.2586     -1886.7234      662.26231      659.18716    
  88752000   268.83811     -402.65495     -312.61756     -402.55387      0              2955.7476      31.216999      21.524542      33.433483      22465.014      1655.401       3048.0144      4163.8274      671.81276      437.97107      65.274116    
  88754000   275.75065     -398.81911     -306.46663     -398.66702      0              2315.8291      31.216999      21.524542      33.715372      22654.424      3265.9034      2032.4041      1649.1799     -1476.4668      1247.9522      1055.7145    
  88756000   269.71993     -401.40046     -311.06774     -401.33305      0              1465.0292      31.216999      21.524542      33.585926      22567.445      1779.7373      945.72473      1669.6254      367.62636     -625.48278      246.62345    
  88758000   279.94499     -403.11109     -309.35386     -402.99767      0              1384.8905      31.216999      21.524542      33.732741      22666.095      2870.4907     -290.05423      1574.2348     -580.23236     -502.62352     -1345.1057    
  88760000   267.37947     -405.75029     -316.20142     -405.51002      0              3296.5433      31.216999      21.524542      33.558193      22548.81       3384.1805      1703.2836      4802.1657      300.93304     -1031.7825     -643.84167    
  88762000   277.27539     -403.97043     -311.10729     -403.82703      0              2929.9668      31.216999      21.524542      33.644054      22606.503      4796.2449     -176.58407      4170.2396      613.55615     -377.00589      684.60217    
  88764000   275.53692     -401.89781     -309.6169      -401.8125       0              3427.9995      31.216999      21.524542      33.74892       22676.966      4494.1277      2779.3017      3010.5691      261.62445     -791.12561     -1126.9739    
  88766000   270.86577     -400.05494     -309.33846     -399.94589      0              674.61088      31.216999      21.524542      33.773971      22693.799      1357.5295     -125.55404      791.85717      905.17928     -1755.0994      618.53402    
  88768000   273.63287     -403.07199     -311.42877     -402.90852      0              3776.2859      31.216999      21.524542      33.638422      22602.719      4009.0454      3438.6112      3881.201      -655.50894      979.92619      193.61997    
  88770000   279.46495     -398.44824     -304.85179     -398.31613      0              3108.2638      31.216999      21.524542      33.664179      22620.026      3502.2957      2795.0568      3027.4389     -1242.4753      902.59596     -170.0848     
  88772000   269.71329     -400.75663     -310.42613     -400.61707      0              1800.8229      31.216999      21.524542      33.801286      22712.153      1510.0495      1404.7848      2487.6344      480.36014      90.889443     -33.824112    
  88774000   271.55861     -401.74337     -310.79485     -401.65514      0              4262.3084      31.216999      21.524542      33.457859      22481.393      5108.6346      3622.383       4055.9075     -557.68913      556.60017      929.91218    
  88776000   276.41588     -401.64217     -309.06689     -401.49481      0              1708.4785      31.216999      21.524542      33.438599      22468.452      1614.372      -900.04946      4411.1129      1615.0524      126.73461      717.30365    
  88778000   275.27828     -403.61372     -311.41943     -403.48146      0              4520.0254      31.216999      21.524542      33.640335      22604.005      2852.5318      4986.61        5720.9345      776.81278      1220.1429      832.73679    
  88780000   273.38469     -399.447       -307.8869      -399.37522      0              1095.5652      31.216999      21.524542      33.693107      22639.463      291.79901      419.18892      2575.7077     -311.20812      474.66524     -101.0793     
  88782000   278.52811     -403.34232     -310.05962     -403.27099      0              1268.4849      31.216999      21.524542      33.798532      22710.302      1054.1571      1863.1628      888.13483      873.62622      537.82884     -2111.3403    
  88784000   273.13959     -402.78182     -311.30381     -402.71107      0              4434.6828      31.216999      21.524542      33.665144      22620.675      4783.0564      4422.7226      4098.2694     -569.42172     -718.47864     -848.29096    
  88786000   270.04741     -397.23258     -306.79018     -397.16435      0              2586.0992      31.216999      21.524542      33.621231      22591.168      4276.1602      2303.6422      1178.4953      363.32416     -1244.9039     -106.39329    
  88788000   267.97356     -405.39477     -315.64693     -405.16734      0              1735.4656      31.216999      21.524542      33.600667      22577.35       2228.284       2529.0471      449.06568      87.652068     -1583.4984      1813.4967    
  88790000   278.87584     -403.19984     -309.80068     -403.14699      0              3092.8546      31.216999      21.524542      33.69712       22642.16       3819.4106      2725.7379      2733.4151     -930.13674     -1767.218       879.94736    
  88792000   269.81423     -404.26248     -313.89817     -404.09652      0              395.96818      31.216999      21.524542      33.365668      22419.447      89.534796      222.5165       875.85324      379.77649      32.464733      963.52575    
  88794000   283.19975     -404.26014     -309.41286     -404.11588      0              4201.1936      31.216999      21.524542      33.485224      22499.78       3507.2781      5615.1767      3481.1261     -152.45198     -240.40776     -424.03913    
  88796000   276.26796     -402.8911      -310.36536     -402.78822      0              1905.293       31.216999      21.524542      33.747967      22676.325      599.24868      2488.3511      2628.2794     -534.87368     -898.48396      2537.7749    
  88798000   272.56957     -403.54534     -312.25824     -403.30067      0              3456.4373      31.216999      21.524542      33.530403      22530.137      4241.9871      4681.5783      1445.7465      1704.3452     -1163.4677      318.34966    
  88800000   269.93705     -403.3575      -312.95206     -403.2407       0              2920.6905      31.216999      21.524542      33.595641      22573.973      4087.0062      1829.6548      2845.4106     -264.2756      -917.28616     -215.31918    
  88802000   273.08721     -403.68817     -312.22771     -403.58507      0              2394.3645      31.216999      21.524542      33.624085      22593.086      2859.8428      3302.5789      1020.6719     -274.24387     -38.915872     -352.37072    
  88804000   274.80748     -401.35721     -309.32061     -401.21612      0              3459.7819      31.216999      21.524542      33.466776      22487.385      3016.6843      2924.5231      4438.1384      552.35412      1534.8307     -1742.6653    
  88806000   271.0921      -402.30618     -311.5139      -402.11156      0              2726.5704      31.216999      21.524542      33.559335      22549.578      4294.0186      1335.2161      2550.4766     -1920.2289      604.95423      765.23583    
  88808000   276.65385     -404.69323     -312.03825     -404.46638      0              5212.0958      31.216999      21.524542      33.608391      22582.54       6669.6969      3909.7058      5056.8846     -196.72332     -1502.8925     -1163.0959    
  88810000   268.15956     -403.38945     -313.57931     -403.23093      0              4458.1416      31.216999      21.524542      33.416876      22453.855      3740.0199      4078.937       5555.468      -499.43471      1272.6527     -476.62919    
  88812000   274.7729      -399.73606     -307.71104     -399.58726      0              2944.3401      31.216999      21.524542      33.586516      22567.842      1215.8796      4936.9012      2680.2394      645.46173     -411.55451     -1310.1146    
  88814000   274.76006     -401.66157     -309.64085     -401.48669      0              4569.5771      31.216999      21.524542      33.61326       22585.812      3700.9288      4900.6501      5107.1524      1933.5901     -84.682468      1598.1207    
  88816000   270.60153     -399.36701     -308.73903     -399.27897      0              2511.2011      31.216999      21.524542      33.699946      22644.059      4873.5837      2662.4536     -2.4340809     -945.60974     -1411.2573     -441.97444    
  88818000   270.89046     -400.09524     -309.3705      -399.9547       0              1258.9951      31.216999      21.524542      33.555261      22546.84       1860.9077      2484.2337     -568.1562       469.1009       685.436        1052.0567    
  88820000   272.77093     -400.11392     -308.75938     -400.01585      0              1754.5735      31.216999      21.524542      33.595833      22574.102      2588.743       1340.213       1334.7645      263.11183      557.38792     -2199.5396    
  88822000   276.99148     -403.10236     -310.33431     -402.9269       0              2909.2622      31.216999      21.524542      33.577878      22562.038      3382.804       1460.3184      3884.6642     -1207.5948      1605.3956     -196.32282    
  88824000   263.01612     -403.17227     -315.08474     -403.00343      0              3256.0082      31.216999      21.524542      33.671219      22624.756      5002.0764      81.817655      4684.1305     -146.23752      356.98176      1500.6905    
  88826000   278.22688     -405.10402     -311.92221     -404.88337      0              2860.1252      31.216999      21.524542      33.540354      22536.824      4133.8596      2056.182       2390.3341      478.23075      758.96247     -1376.1441    
  88828000   274.38554     -401.19576     -309.30047     -401.02185      0              535.73828      31.216999      21.524542      33.745844      22674.899      796.82314      808.03945      2.3522491     -454.00383      397.70728     -189.64869    
  88830000   273.78059     -401.76435     -310.07166     -401.69836      0              1655.1578      31.216999      21.524542      33.780127      22697.935     -789.60177      1642.0058      4113.0695     -442.58948      1682.0584     -1480.4475    
  88832000   270.7955      -401.4756      -310.78266     -401.28252      0              2253.5999      31.216999      21.524542      33.662621      22618.979      2714.228       1143.3582      2903.2135      7.3633166      3462.2962      2153.9538    
  88834000   271.11156     -399.51133     -308.71253     -399.30033      0              3115.1462      31.216999      21.524542      33.678812      22629.858      3436.6802      2504.8211      3403.9372     -1687.8133      2322.6555     -1988.3714    
  88836000   266.79363     -405.55769     -316.20503     -405.34404      0              3407.1297      31.216999      21.524542      33.330777      22396.003      4885.2984      4589.5634      746.52725     -1044.8359     -506.86313     -1378.3046    
  88838000   276.70688     -401.01425     -308.34151     -400.8733       0              1973.5222      31.216999      21.524542      33.702676      22645.893      2544.8256      3101.0005      274.74057      1789.8768     -261.91863     -2650.8353    
  88840000   273.44728     -401.10453     -309.52347     -400.90519      0              1833.87        31.216999      21.524542      33.541914      22537.872      67.120032      3753.9591      1680.5309     -2619.7182      2136.6796     -1108.8597    
  88842000   277.07348     -403.82326     -311.02774     -403.59603      0              3633.9992      31.216999      21.524542      33.364365      22418.572      2686.7622      2429.6997      5785.5357      1158.6526     -253.71384      195.0604     
  88844000   271.77815     -400.72461     -309.70257     -400.5012       0              1564.869       31.216999      21.524542      33.818537      22723.744      293.79117      1285.735       3115.0807     -476.78833     -399.53712     -174.62241    
  88846000   267.60098     -398.00975     -308.3867      -397.89856      0              2902.2012      31.216999      21.524542      33.573778      22559.282      2870.9103      3875.3657      1960.3276     -175.22219      1763.8909     -855.13958    
  88848000   272.63178     -399.51321     -308.20527     -399.23151      0              2870.4738      31.216999      21.524542      33.373286      22424.565      2469.216       2159.2895      3982.916       589.27424      1085.0486      214.92623    
  88850000   279.94305     -401.58328     -307.8267      -401.42202      0              3639.9227      31.216999      21.524542      33.7058        22647.992      2707.7544      3154.6586      5057.3552      983.18867     -718.25712      170.28233    
  88852000   276.15024     -398.90973     -306.42342     -398.77         0             -213.94348      31.216999      21.524542      33.554178      22546.112      828.4214      -758.3211      -711.93075      1805.5893      1127.0336     -815.07473    
  88854000   277.7003      -402.4077      -309.40225     -402.14288      0              1839.8714      31.216999      21.524542      33.314142      22384.825      947.68171      1619.251       2952.6814     -323.79302      181.13437     -1628.2747    
  88856000   273.56339     -403.50629     -311.88634     -403.36612      0              2822.278       31.216999      21.524542      33.427667      22461.106      3741.9813      3292.4759      1432.3767      15.435231      358.1084       1861.5047    
  88858000   272.81441     -402.0051      -310.636       -401.81287      0              4235.9702      31.216999      21.524542      33.464596      22485.92       4313.0278      5690.0626      2704.8203      361.20624      472.83224     -895.27587    
  88860000   269.13248     -401.0494      -310.91342     -400.9292       0              2166.26        31.216999      21.524542      33.621338      22591.24       1753.8356      2128.4491      2616.4955      486.69882     -1663.8832      309.92284    
  88862000   272.43161     -399.38019     -308.13929     -399.26166      0              2377.41        31.216999      21.524542      33.518046      22521.835      4070.1916      2291.4752      770.56313      558.58617      124.30938      691.20825    
  88864000   276.06094     -399.32896     -306.87255     -399.11533      0              4822.7662      31.216999      21.524542      33.523382      22525.42       5043.7894      6102.2073      3322.3019      200.73811     -801.28625     -1438.7101    
  88866000   285.22835     -399.3463      -303.81961     -399.26083      0              4074.4263      31.216999      21.524542      33.572484      22558.413      4809.4229      4515.764       2898.092      -5.4881331     -892.85646      680.39006    
  88868000   278.66909     -400.13509     -306.80518     -399.86395      0              6833.4056      31.216999      21.524542      33.103267      22243.132      6313.6287      7882.1278      6304.4604      1058.1656     -116.66511      2142.1133    
  88870000   271.12628     -401.96748     -311.16375     -401.68037      0              3078.4096      31.216999      21.524542      33.239992      22335.001      2932.3135      1585.6191      4717.2961      520.96241     -729.11665      667.33943    
  88872000   282.5694      -399.67846     -305.04228     -399.47139      0              2825.0695      31.216999      21.524542      33.489561      22502.694      3454.1796      3306.7168      1714.312      -1411.1647      334.29403     -56.640389    
  88874000   277.75875     -403.12693     -310.1019      -402.87821      0              3621.9561      31.216999      21.524542      33.211328      22315.741      5058.5881      1444.1509      4363.1292      469.04893      2308.0375     -1181.8279    
  88876000   281.70786     -403.85096     -309.50333     -403.5684       0              2915.8847      31.216999      21.524542      33.280308      22362.091      3254.2605      2991.0777      2502.3158      56.3457       -1625.4088      12.286179    
  88878000   271.26439     -401.187       -310.33702     -400.88646      0              3831.4664      31.216999      21.524542      33.249262      22341.23       5363.8645      1774.6002      4355.9344     -1069.2755      88.739093      938.08547    
  88880000   267.36946     -402.96161     -313.41609     -402.63792      0              3221.2543      31.216999      21.524542      33.143443      22270.127      1517.0291      4550.3335      3596.4001      1288.1452      1216.8995     -1002.0931    
  88882000   272.2119      -403.20584     -312.03853     -402.84586      0              3840.613       31.216999      21.524542      33.292318      22370.161      3776.1585      3192.2719      4553.4085     -740.2401       35.682236      1296.7015    
  88884000   284.27344     -402.03001     -306.82313     -401.66412      0              3643.1429      31.216999      21.524542      33.350074      22408.969      4556.2824      2442.5381      3930.6082      1081.099      -713.64608      1207.837     
  88886000   272.65865     -402.26598     -310.94904     -401.97245      0              2406.3381      31.216999      21.524542      33.511797      22517.636      3100.447       3702.1669      416.40034      964.28177     -1928.5388     -962.36342    
  88888000   278.02492     -399.64051     -306.52634     -399.35253      0              1987.308       31.216999      21.524542      33.483542      22498.65       1749.5592      2629.3943      1582.9705      642.87682      1967.0244      419.51512    
  88890000   275.33089     -403.81139     -311.59948     -403.4747       0              64.707269      31.216999      21.524542      33.512634      22518.198      1108.0429     -585.21331     -328.70783     -1834.1094     -1320.5595      43.313242    
  88892000   274.54792     -404.95027     -313.00059     -404.61281      0              3257.4725      31.216999      21.524542      33.376914      22427.004      3382.3535      3923.6811      2466.3828      658.6932      -225.99391     -882.98701    
  88894000   279.43125     -402.68255     -309.09738     -402.33839      0              3679.5731      31.216999      21.524542      33.443942      22472.042      2476.5263      4658.7491      3903.4437      516.10002      773.2085       53.721751    
  88896000   277.30777     -402.22172     -309.34773     -401.89957      0              2430.5438      31.216999      21.524542      33.45939       22482.422      1958.291       3545.2732      1788.0674     -606.04539      98.716071     -1273.1493    
  88898000   275.49829     -402.6758      -310.40783     -402.31021      0              3577.2707      31.216999      21.524542      33.404038      22445.229      4697.1269      3843.2715      2191.4137      65.348821     -920.84276      453.968      
  88900000   277.22109     -400.86015     -308.01519     -400.55161      0              3645.3745      31.216999      21.524542      33.45167       22477.234      3315.2091      4850.9842      2769.9303      404.03855      423.77001      170.6724     
  88902000   275.4572      -400.93856     -308.68435     -400.67007      0              3776.9057      31.216999      21.524542      33.574091      22559.493      5586.1176      3207.4341      2537.1655      1379.778       118.611       -452.35668    
  88904000   272.58496     -401.43188     -310.13962     -401.18068      0              3207.1593      31.216999      21.524542      33.473292      22491.763      2503.669       3685.811       3431.9978      1191.0334     -1617.4945     -800.08303    
  88906000   274.10205     -402.81961     -311.01926     -402.58761      0              2128.8242      31.216999      21.524542      33.666559      22621.625      2928.4377      2306.0949      1151.94        210.76822      232.88908      870.76863    
  88908000   274.655       -405.50392     -313.51838     -405.20875      0              1686.2997      31.216999      21.524542      33.740674      22671.425      2759.6189      2261.1086      38.171643      306.4951      -549.68277      179.74135    
  88910000   275.35437     -401.62097     -309.4012      -401.29365      0              3202.4741      31.216999      21.524542      33.635402      22600.69       3344.2348      3925.3755      2337.8119     -959.10455     -652.88206     -850.04884    
  88912000   278.28321     -402.34427     -309.1436      -402.11338      0              4537.8941      31.216999      21.524542      33.536518      22534.246      4971.7618      4556.0215      4085.8989     -50.987267      436.37153     -146.07772    
  88914000   274.53592     -406.83615     -314.89049     -406.45529      0              4954.6139      31.216999      21.524542      33.34698       22406.89       4442.1282      4630.0338      5791.6799     -115.78347      1221.5065     -1477.2414    
  88916000   282.25619     -402.95302     -308.42174     -402.59085      0              3433.7424      31.216999      21.524542      33.52525       22526.675      2698.2351      3570.9914      4032.0006      974.90994      1094.0281      1143.928     
  88918000   273.99341     -406.50048     -314.73651     -406.15194      0              2369.9988      31.216999      21.524542      33.360468      22415.953      543.84089      4981.3996      1584.7559      827.29106      2164.5364     -517.47587    
  88920000   271.18599     -405.04833     -314.22461     -404.72291      0              2067.1717      31.216999      21.524542      33.358166      22414.406      1800.6729      1577.5576      2823.2845     -331.92937     -1474.7704      540.68954    
  88922000   280.93853     -406.3686      -312.27863     -405.98377      0              5149.7401      31.216999      21.524542      33.356067      22412.996      5647.2106      4156.2004      5645.8095     -386.14404      137.71609      616.37166    
  88924000   271.54542     -404.31884     -313.37474     -403.97599      0              4964.4171      31.216999      21.524542      33.174107      22290.731      5803.9334      3948.8826      5140.4354     -356.95491     -522.90672      569.27142    
  88926000   274.83314     -404.49717     -312.45197     -404.1195       0              4113.0049      31.216999      21.524542      33.203753      22310.651      4924.4135      4638.6097      2775.9915      122.44789     -1139.6626     -234.68072    
  88928000   280.41714     -404.41148     -310.49612     -404.02266      0              3684.362       31.216999      21.524542      33.563254      22552.211      3730.5516      3840.2744      3482.2601      1734.8172     -1420.65       -278.56662    
  88930000   273.40001     -403.49414     -311.92891     -403.1431       0              4479.9277      31.216999      21.524542      33.295268      22372.143      5193.4813      3982.1414      4264.1606     -1581.9425      1340.8626     -484.62426    
  88932000   279.72051     -403.65648     -309.97444     -403.31418      0              5007.4389      31.216999      21.524542      33.309539      22381.732      3639.7861      6198.1486      5184.3821      514.32456      543.82458      1249.5449    
  88934000   269.62495     -402.70252     -312.40161     -402.34417      0              4208.4429      31.216999      21.524542      33.481341      22497.171      4470.5022      4437.468       3717.3585      231.09222     -530.89632      359.40152    
  88936000   273.94739     -401.98646     -310.23791     -401.69164      0              4112.8014      31.216999      21.524542      33.577167      22561.56       4962.1442      5561.1575      1815.1024      437.59075     -408.50099      1581.9453    
  88938000   275.13409     -403.91506     -311.76907     -403.5862       0              1785.1942      31.216999      21.524542      33.646009      22607.817      1536.8225      1436.0633      2382.6968      588.60494      1646.7344      393.09584    
  88940000   274.34826     -400.40638     -308.52357     -400.1497       0              2920.0875      31.216999      21.524542      33.643114      22605.872      3340.233       4379.1928      1040.8368     -14.270261     -830.21732     -574.0323     
  88942000   279.94724     -406.25501     -312.49703     -406.02961      0              4680.0336      31.216999      21.524542      33.628449      22596.018      2397.9036      6728.7589      4913.4383      405.26554     -1021.3252     -407.52361    
  88944000   281.07076     -403.85059     -309.71633     -403.66233      0              2598.485       31.216999      21.524542      33.50896       22515.729      2278.5746      3299.2719      2217.6084     -26.292764     -1429.3603     -40.283454    
  88946000   281.1577      -402.26632     -308.10295     -402.10052      0              3118.8733      31.216999      21.524542      33.650862      22611.078      3974.8311      1574.7623      3807.0264      1515.975      -955.09342     -71.713903    
  88948000   277.8224      -403.80009     -310.75375     -403.60451      0              4295.8624      31.216999      21.524542      33.846957      22742.84       3955.5629      4753.6912      4178.3331      612.41905      132.98655     -504.74593    
  88950000   275.10453     -403.37209     -311.23599     -403.24286      0              3294.8629      31.216999      21.524542      33.626518      22594.72       3073.7508      3761.2548      3049.583       1769.9933     -1356.5988      484.37638    
  88952000   272.34318     -403.19994     -311.98866     -402.91844      0              2651.9142      31.216999      21.524542      33.486961      22500.948      2709.6964      4320.3634      925.68263     -858.00605      757.15719     -757.06459    
  88954000   279.1332      -402.00893     -308.52358     -401.86474      0              3716.6038      31.216999      21.524542      33.65148       22611.493      3967.1225      4267.5796      2915.1092      767.67424      331.04213     -110.11264    
  88956000   275.5111      -405.65802     -313.38576     -405.4213       0              3204.359       31.216999      21.524542      33.525532      22526.864      3682.0158      2870.8007      3060.2604     -757.89334      535.63422     -836.01925    
  88958000   277.84746     -403.67408     -310.61935     -403.45456      0              2228.4743      31.216999      21.524542      33.56719       22554.856      1988.3425      2374.573       2322.5072      27.559413      1017.6328      29.614901    
  88960000   278.2339      -401.79615     -308.61199     -401.61245      0              4374.1475      31.216999      21.524542      33.462547      22484.543      4222.6476      4078.0503      4821.7445      876.75623     -526.79949      2104.3084    
  88962000   279.35616     -402.89212     -309.3321      -402.70557      0              3356.2901      31.216999      21.524542      33.409632      22448.988      2602.7258      3149.4141      4316.7304      1508.3629      0.374564       97.719227    
  88964000   273.82773     -401.88034     -310.17187     -401.82561      0              3058.04        31.216999      21.524542      33.443602      22471.813      3720.9836      2741.4533      2711.6832     -1017.7913      44.647467      98.573001    
  88966000   274.2368      -401.09062     -309.24514     -400.92205      0              4454.982       31.216999      21.524542      33.512938      22518.402      5898.2589      4391.2893      3075.3978     -203.1539       1976.5038      250.01853    
  88968000   275.18569     -402.90762     -310.74435     -402.79749      0              5355.6037      31.216999      21.524542      33.454965      22479.449      2899.2617      7497.3501      5670.1993      872.09596      425.26897     -78.86774     
  88970000   269.2925      -402.69114     -312.50157     -402.56257      0              5069.799       31.216999      21.524542      33.503924      22512.346      5110.8945      5518.4187      4580.0839      591.72567      1329.56       -303.89576    
  88972000   276.86349     -400.55598     -307.83079     -400.3348       0              2387.1444      31.216999      21.524542      33.815659      22721.81       1407.1776      4763.697       990.55853      502.7039       326.70879      1077.1816    
  88974000   266.77768     -403.08518     -313.73785     -402.94252      0              1568.9345      31.216999      21.524542      33.636316      22601.304      2299.0235      1795.07        612.71008      250.51033     -853.06716     -243.96461    
  88976000   275.82462     -401.25884     -308.88158     -401.06096      0              1440.6744      31.216999      21.524542      33.566473      22554.374      1634.3597      2139.4615      548.20207     -927.53297      2085.2536      1093.2684    
  88978000   272.17545     -400.68555     -309.53044     -400.56238      0              2457.1383      31.216999      21.524542      33.641566      22604.832      1897.8562      1473.9554      3999.6034      1091.0558      60.234014      2103.1739    
  88980000   279.46855     -403.96067     -310.36301     -403.77591      0              1864.6023      31.216999      21.524542      33.416448      22453.567      643.33923      1491.4501      3459.0175     -208.03673     -141.15879      2743.2172    
  88982000   276.89646     -404.05596     -311.31973     -403.8862       0              4120.41        31.216999      21.524542      33.454552      22479.171      5607.0899      2415.698       4338.4422      38.121389     -1379.5472      565.43927    
  88984000   275.46112     -402.35753     -310.10201     -402.23814      0              3064.1053      31.216999      21.524542      33.38966       22435.568      3856.4673      3154.7471      2181.1015      1977.2086      914.07293      645.92802    
  88986000   277.11946     -401.19631     -308.38539     -401.02747      0              4934.2773      31.216999      21.524542      33.343124      22404.299      4635.6341      5455.5419      4711.656       1263.3804     -151.04117     -1937.0778    
  88988000   275.26058     -403.83417     -311.64582     -403.65862      0              1652.6651      31.216999      21.524542      33.483058      22498.325      2239.1561      1879.7678      839.07129      843.97774     -660.02033     -195.33943    
  88990000   273.86966     -400.3895      -308.66698     -400.27085      0              1176.1309      31.216999      21.524542      33.617515      22588.671      53.377762      1689.7381      1785.277      -245.18698      704.29231     -1148.3737    
  88992000   268.56458     -403.38113     -313.43535     -403.21467      0              1687.8945      31.216999      21.524542      33.778319      22696.72       1661.6415      978.07295      2423.9692      705.74789     -1169.5867      903.62266    
  88994000   269.52945     -404.61118     -314.34226     -404.44654      0              3331.8507      31.216999      21.524542      33.463593      22485.246      3354.9774      4458.0267      2182.5481     -131.54158     -515.0067      -494.58566    
  88996000   272.79978     -398.52766     -307.16346     -398.40352      0              2906.0532      31.216999      21.524542      33.499499      22509.372      2099.0525      4094.0613      2525.0458      68.427872      221.883        511.09655    
  88998000   276.68084     -404.59429     -311.93027     -404.48217      0              1846.1542      31.216999      21.524542      33.63267       22598.854      2912.7027      860.95025      1764.8097     -1070.3848     -931.46705     -244.31923    
  89000000   269.86974     -399.64196     -309.25906     -399.53157      0              2367.7988      31.216999      21.524542      33.609211      22583.091      2650.2807      2490.1807      1962.935       276.61748     -3155.5467      962.07451    
  89002000   277.25589     -402.53696     -309.68035     -402.37333      0              5296.4041      31.216999      21.524542      33.671092      22624.671      5771.2798      5924.256       4193.6767     -1700.601      -37.132215     -1850.3633    
  89004000   277.1846      -398.03792     -305.20518     -397.96818      0              2256.4058      31.216999      21.524542      33.679722      22630.47       3200.2312      1432.5431      2136.4431     -1129.4624      1264.4849     -1250.678     
  89006000   268.49811     -400.47039     -310.54687     -400.33707      0              2227.6667      31.216999      21.524542      33.547616      22541.704      4566.1521      632.38718      1484.4608     -507.9469      -581.64477     -450.74169    
  89008000   276.67526     -401.03254     -308.37039     -400.86937      0              3137.9208      31.216999      21.524542      33.463492      22485.178      3205.9595      4225.209       1982.5938      20.240563      1351.868      -145.73118    
  89010000   271.95136     -403.21822     -312.13817     -403.04767      0              3005.499       31.216999      21.524542      33.283782      22364.425      2594.3262      3710.3188      2711.852      -79.358013      973.50549      156.19704    
  89012000   278.3355      -402.59417     -309.37598     -402.37916      0              5088.6643      31.216999      21.524542      33.182797      22296.57       5462.3975      3667.9023      6135.693      -2225.0227      26.262037      145.8195     
  89014000   273.84245     -399.80953     -308.09612     -399.66498      0              2480.0388      31.216999      21.524542      33.36228       22417.171      3104.4566      2882.2798      1453.3801      667.87055     -257.58986     -21.5253      
  89016000   273.92767     -401.23704     -309.49509     -401.03464      0              1903.4214      31.216999      21.524542      33.260158      22348.551      2307.6706      3515.7895     -113.19588     -1429.825      -562.71778      754.28147    
  89018000   270.98676     -401.74213     -310.98513     -401.46232      0              3152.2029      31.216999      21.524542      33.079851      22227.398      5055.7081      688.74912      3712.1516     -161.28903     -686.31132     -759.67018    
  89020000   262.01232     -402.43908     -314.68774     -402.2251       0              1595.0086      31.216999      21.524542      33.32936       22395.05       1223.9895      297.30628      3263.7301     -389.5322      -331.10725     -690.04056    
  89022000   274.43196     -401.30401     -309.39317     -401.16373      0              3641.6938      31.216999      21.524542      33.27329       22357.375      2496.5002      2855.513       5573.0683      583.06645      1046.1165      1501.2593    
  89024000   273.82468     -401.04432     -309.33687     -400.92049      0              2972.4212      31.216999      21.524542      33.567288      22554.922      3421.2504      2499.2487      2996.7644      235.65117     -948.75728      243.78859    
  89026000   277.58513     -402.10753     -309.14065     -401.96042      0              3005.356       31.216999      21.524542      33.629144      22596.485      2739.4903      3159.4279      3117.1498     -253.39405      633.53209      157.26091    
  89028000   275.16814     -401.7236      -309.56621     -401.579        0              5649.1178      31.216999      21.524542      33.395092      22439.218      5392.3863      5909.0232      5645.9438      1089.7929      784.56788     -576.32208    
  89030000   283.73578     -401.05288     -306.02607     -400.89497      0              1651.0698      31.216999      21.524542      33.368737      22421.509      2578.2875      244.67664      2130.2452      1586.1343     -517.59929      1725.3637    
  89032000   279.09852     -399.60018     -306.12645     -399.42651      0              4047.9809      31.216999      21.524542      33.513936      22519.073      5096.1737      3043.5981      4004.171      -10.467886     -964.42467     -1414.3461    
  89034000   276.21586     -406.13261     -313.62432     -405.9992       0              3549.7287      31.216999      21.524542      33.285715      22365.724      3842.547       2897.9024      3908.7368     -190.03035     -81.291748     -694.82942    
  89036000   270.74285     -402.04953     -311.37422     -401.88013      0              2154.5898      31.216999      21.524542      33.403967      22445.181      3538.3076      505.34352      2420.1182      2173.8619      10.397729      1501.9419    
  89038000   273.50393     -401.15675     -309.55671     -400.95232      0              4056.6911      31.216999      21.524542      33.211535      22315.88       4183.3162      2731.2824      5255.4748     -100.23919      439.63848     -748.38426    
  89040000   276.69298     -398.75053     -306.08244     -398.60325      0              3156.233       31.216999      21.524542      33.353971      22411.587      3717.0355      2397.6701      3353.9934      233.2106       396.48891     -2520.947     
  89042000   277.20612     -400.53759     -307.69764     -400.31854      0              3123.3947      31.216999      21.524542      33.454229      22478.954      3321.0131      2528.5925      3520.5786      393.62747      854.97211     -416.23712    
  89044000   280.30804     -400.37252     -306.4937      -400.12666      0              2544.1441      31.216999      21.524542      33.336647      22399.947      1380.5229      2845.9138      3405.9955      1076.9349     -887.08392      1617.2934    
  89046000   274.06014     -398.85121     -307.0649      -398.63274      0              4192.3174      31.216999      21.524542      33.287111      22366.662      3738.6018      1453.3838      7384.9665      498.67703     -175.29763      680.08524    
  89048000   271.20188     -401.80997     -310.98093     -401.70518      0              3499.6395      31.216999      21.524542      33.381608      22430.157      2639.4097      3685.6489      4173.8599      1137.8289     -616.74652     -473.11021    
  89050000   281.30221     -404.16928     -309.9575      -403.92765      0              4244.6655      31.216999      21.524542      33.335946      22399.476      5054.566       1041.4647      6637.9659     -1249.2093      896.30368      894.55107    
  89052000   278.40392     -403.04703     -309.80593     -402.87807      0              4877.8335      31.216999      21.524542      33.248219      22340.53       5613.0376      5173.0566      3847.4063      1385.6453     -837.21658      2.6204035    
  89054000   277.33411     -402.10808     -309.22527     -401.87075      0              3631.8612      31.216999      21.524542      33.287428      22366.875      2051.8653      4676.5406      4167.1777      488.48862      1840.6752     -699.08743    
  89056000   277.00269     -402.82642     -310.05461     -402.62324      0              1929.3674      31.216999      21.524542      33.684329      22633.565      2147.5475      1721.0727      1919.4819     -293.79304      1812.6454      71.269435    
  89058000   270.64526     -402.74553     -312.1029      -402.49325      0              4297.5186      31.216999      21.524542      33.494592      22506.075      5503.1391      4197.3985      3192.0183      14.759713      673.70702      695.72113    
  89060000   283.09986     -402.64212     -307.82828     -402.42863      0              2632.3189      31.216999      21.524542      33.496455      22507.327      2993.8824      2282.4215      2620.6527     -458.24864     -21.324311      268.41999    
  89062000   272.67529     -405.29452     -313.97201     -405.12765      0              4175.7085      31.216999      21.524542      33.583668      22565.928      5694.1052      2944.4603      3888.5599      29.833427     -138.75375      1246.0998    
  89064000   274.71989     -401.72923     -309.72196     -401.53089      0              4271.5088      31.216999      21.524542      33.799165      22710.727      4292.4414      4858.27        3663.8151      637.99821      1974.0499     -1292.9585    
  89066000   277.19632     -405.13888     -312.30222     -404.91638      0              4632.5161      31.216999      21.524542      33.355928      22412.902      4789.0929      3473.8279      5634.6273     -680.33356      661.58635     -932.44329    
  89068000   276.15215     -400.98304     -308.49609     -400.83386      0              3587.9779      31.216999      21.524542      33.380745      22429.577      1891.4515      4458.0068      4414.4753     -2277.6863      392.85695      364.86513    
  89070000   270.20303     -402.00973     -311.51521     -401.73678      0              2128.4407      31.216999      21.524542      33.498716      22508.846      1905.848       1525.7688      2953.7053      88.607091      1003.6383     -1068.9719    
  89072000   267.05712     -404.16153     -314.72062     -404.04181      0              2544.2044      31.216999      21.524542      33.865779      22755.487      3077.2484      2387.126       2168.2387     -1893.9584      399.31393      1069.6739    
  89074000   272.59194     -403.56499     -312.2704      -403.37815      0              673.2805       31.216999      21.524542      33.751062      22678.406     -1772.1769      2063.0003      1729.0181      488.53836      804.65774      1622.671     
  89076000   283.26518     -401.69037     -306.82116     -401.51951      0              3535.5997      31.216999      21.524542      33.499184      22509.161      3251.461       3292.5565      4062.7816     -786.56129      1921.0751      335.04091    
  89078000   273.36177     -405.49447     -313.94205     -405.34294      0              1677.5163      31.216999      21.524542      33.664313      22620.116      319.28421      2355.4279      2357.8366      541.534       -786.72933     -762.38941    
  89080000   273.75        -403.89464     -312.2122      -403.71156      0              4512.5178      31.216999      21.524542      33.751608      22678.772      6034.7083      3839.3764      3663.4689      1018.4011     -1117.9667      405.25999    
  89082000   277.59411     -401.54675     -308.57686     -401.41472      0              1171.9129      31.216999      21.524542      33.723557      22659.924      2689.8374     -810.5039       1636.4052     -381.78285     -1260.6794     -388.82297    
  89084000   268.23746     -397.80748     -307.97125     -397.65135      0              1751.5989      31.216999      21.524542      33.592895      22572.128      84.533607      3459.9102      1710.3529     -759.80205      329.35962      1259.0793    
  89086000   273.79535     -400.70631     -309.00867     -400.62098      0              1576.8054      31.216999      21.524542      33.691338      22638.275      651.98492      2382.5415      1695.8898     -621.40863     -68.842167      1196.589     
  89088000   282.90492     -398.80875     -304.06021     -398.78476      0              2763.8278      31.216999      21.524542      33.770864      22691.711      3089.6362      3281.6895      1920.1576     -414.49112      85.156165     -1303.405     
  89090000   278.15653     -400.48801     -307.32976     -400.37834      0              4400.661       31.216999      21.524542      33.603886      22579.513      3235.0159      4942.5834      5024.3837      919.26656     -600.03136     -492.80091    
  89092000   277.21546     -400.04113     -307.19806     -399.90697      0              4964.6743      31.216999      21.524542      33.596832      22574.773      3812.7958      4949.4888      6131.7383      598.56541      667.57782      670.57716    
  89094000   272.45503     -400.82008     -309.57134     -400.75468      0              1362.7639      31.216999      21.524542      33.682223      22632.15       1515.8958      901.73072      1670.6651      1506.0707      133.49363      465.90688    
  89096000   270.3394      -399.55355     -309.01336     -399.54333      0              2957.3786      31.216999      21.524542      33.890059      22771.802      3403.4922      3382.9722      2085.6714      615.90907     -836.8001      -1823.2837    
  89098000   273.82767     -400.3555      -308.64704     -400.33493      0              3382.6921      31.216999      21.524542      33.630465      22597.373      6314.4975      1400.3188      2433.2599      529.86943     -734.24395     -796.6572     
  89100000   275.37995     -403.46775     -311.23942     -403.31752      0              3064.6379      31.216999      21.524542      33.30138       22376.249      2617.2306      2339.1307      4237.5525      757.00215      103.32916      590.53009    
  89102000   266.36898     -402.57776     -313.36732     -402.47284      0              2165.1194      31.216999      21.524542      33.531421      22530.822      3848.6265      1665.447       981.28482     -874.37897     -5.3468726      1291.2116    
  89104000   270.24638     -402.66637     -312.15733     -402.53918      0              3042.0015      31.216999      21.524542      33.278156      22360.645      3510.0818      1204.1297      4411.7928      122.06101      870.33086     -840.10928    
  89106000   278.25318     -400.62757     -307.43695     -400.55416      0              3742.0466      31.216999      21.524542      33.225741      22325.425      1323.5825      4196.3897      5706.1676      737.04192      296.95319     -189.81147    
  89108000   274.1091      -403.49944     -311.69673     -403.42786      0              4850.0773      31.216999      21.524542      33.172447      22289.616      6943.3089      5590.2646      2016.6585      628.3793       78.181539     -843.0468     
  89110000   271.94039     -401.28551     -310.20912     -401.1816       0              3415.0859      31.216999      21.524542      33.179112      22294.094      4794.5863      1877.2603      3573.4112     -734.8069       281.28045     -1168.7312    
  89112000   277.6089      -399.41365     -306.43881     -399.31548      0              4145.5505      31.216999      21.524542      33.299973      22375.304      3550.431       2892.4985      5993.7219      106.18161      413.13388      898.16197    
  89114000   270.34598     -402.06071     -311.51832     -401.93395      0              4646.3901      31.216999      21.524542      33.289448      22368.232      4365.9196      5303.8628      4269.3879      798.44432      694.62984     -752.04826    
  89116000   272.94802     -400.43297     -309.01912     -400.33467      0              2887.634       31.216999      21.524542      33.20851       22313.847      4804.659       1216.2719      2641.971      -470.83748     -341.72915      971.22252    
  89118000   267.23141     -400.88739     -311.38811     -400.76139      0              3218.049       31.216999      21.524542      33.395402      22439.426      3007.6696      4519.3553      2127.122      -712.43445      1331.1181     -1148.8667    
  89120000   284.31845     -402.64041     -307.41846     -402.55124      0              1736.7733      31.216999      21.524542      33.468859      22488.784      2813.122       707.56419      1689.6338     -708.73996      132.76709      584.06778    
  89122000   281.32322     -399.60295     -305.38414     -399.61462      0              1541.5352      31.216999      21.524542      33.577837      22562.01       1944.7589      1817.0192      862.82737     -159.23123      2736.6669     -235.35352    
  89124000   271.74954     -399.80903     -308.79657     -399.79811      0              1173.3876      31.216999      21.524542      33.658782      22616.4        1402.2765      2402.6242     -284.7379       783.69775     -2.4160869      392.36541    
  89126000   274.73304     -401.14528     -309.1336      -401.10844      0              1393.1883      31.216999      21.524542      33.765581      22688.161      1491.5358      3767.4513     -1079.4221     -602.23357     -2158.8723     -954.84417    
  89128000   271.06954     -402.36834     -311.58361     -402.3666       0              3559.7146      31.216999      21.524542      33.611486      22584.62       5640.0117      3446.9056      1592.2264     -838.10788     -919.89009      251.05686    
  89130000   281.45966     -400.97004     -306.70553     -400.91563      0              2846.2159      31.216999      21.524542      33.770821      22691.682      1324.6202      4090.3121      3123.7153      2820.1003     -2481.8528      175.44044    
  89132000   276.0773      -403.01332     -310.55144     -402.91886      0              2949.6084      31.216999      21.524542      33.638295      22602.633      3164.3713      3321.0935      2363.3603      704.32956     -232.99486     -1666.5662    
  89134000   278.48        -402.91444     -309.64786     -402.81         0              3350.0244      31.216999      21.524542      33.341754      22403.378      5155.072       554.9599       4340.0413     -953.818       -818.26189      1138.6509    
  89136000   266.80636     -400.96385     -311.60692     -400.86335      0              3302.4679      31.216999      21.524542      33.365059      22419.037      4823.1942      2421.4813      2662.7282     -392.12073     -2223.8594     -451.24325    
  89138000   271.25543     -399.3158      -308.46882     -399.24821      0              4764.075       31.216999      21.524542      33.639718      22603.59       3547.3049      4566.2352      6178.6848      1350.065      -1265.098       1915.7912    
  89140000   274.48348     -400.07054     -308.14245     -400.02594      0              3538.4996      31.216999      21.524542      33.677806      22629.182      3155.0414      3618.4235      3842.0337     -63.019414     -447.43415      954.89923    
  89142000   276.81365     -400.27603     -307.56753     -400.21515      0              3087.6208      31.216999      21.524542      33.399992      22442.51       2147.523       4446.675       2668.6645     -529.94109     -222.99894      644.3663     
  89144000   269.9934      -397.81522     -307.39091     -397.83261      0              2293.336       31.216999      21.524542      33.640825      22604.334      1348.7163      2702.3543      2828.9374      1036.5379     -682.64195     -544.25793    
  89146000   274.24928     -402.72785     -310.87819     -402.59205      0              2797.4219      31.216999      21.524542      33.566635      22554.483      4057.8787      3080.1646      1254.2224     -214.07082     -309.23722     -1084.4208    
  89148000   273.05096     -399.14317     -307.69485     -399.10892      0              3073.3596      31.216999      21.524542      33.676851      22628.541      3063.7324      2160.0153      3996.3311      186.98134      143.35168      39.92619     
  89150000   271.09517     -401.2038      -310.4105      -401.13856      0              3617.5386      31.216999      21.524542      33.450079      22476.165      3417.2546      2716.8606      4718.5005      325.88049      25.440384     -469.99614    
  89152000   275.21496     -400.3718      -308.19872     -400.28831      0              2359.8383      31.216999      21.524542      33.689632      22637.129      2922.4651      346.43927      3810.6105     -609.58417     -557.78068      426.14115    
  89154000   265.71656     -403.15364     -314.1617      -403.08038      0              2313.6806      31.216999      21.524542      33.411011      22449.914      1736.0959      1897.0264      3307.9196      450.32696      2337.4156      1316.4517    
  89156000   275.11026     -402.35949     -310.22147     -402.3192       0              2986.8486      31.216999      21.524542      33.517069      22521.178      3476.1093      3420.3776      2064.0589     -1294.7781      44.598884     -107.41049    
  89158000   276.17866     -398.14018     -305.64435     -398.1337       0              1282.5311      31.216999      21.524542      33.676624      22628.388      1720.3716      1089.5796      1037.6422      1340.9407      961.80629      554.18502    
  89160000   275.45827     -398.67032     -306.41575     -398.58346      0              3574.3783      31.216999      21.524542      33.490203      22503.126      3673.1797      1054.7063      5995.2489      1805.5304     -468.95104      767.45892    
  89162000   277.17402     -399.6534      -306.82421     -399.60034      0              2421.3887      31.216999      21.524542      33.52859       22528.92       1478.3399      357.05051      5428.7758      10.600019      957.22781      1361.389     
  89164000   275.98193     -403.8731      -311.44316     -403.76872      0              2260.9799      31.216999      21.524542      33.203676      22310.599      1952.3103      1822.9034      3007.7261      213.7451      -237.01681      313.10365    
  89166000   275.29979     -398.15137     -305.94988     -398.13203      0              3420.4914      31.216999      21.524542      33.408841      22448.456      2828.6403      2776.7931      4656.0409     -29.778752     -1401.4729      413.09639    
  89168000   277.30158     -399.23727     -306.36536     -399.12169      0              4594.1076      31.216999      21.524542      33.236687      22332.78       4173.8084      5360.6041      4247.9103      723.36176      697.89305     -865.12655    
  89170000   274.51641     -397.32676     -305.38763     -397.2258       0              3925.0324      31.216999      21.524542      33.400589      22442.912      6051.7352      2739.8979      2983.4639      1949.3341      590.7193       873.1829     
  89172000   277.58279     -399.82445     -306.85836     -399.76446      0              2592.3282      31.216999      21.524542      33.401984      22443.849      3722.3098      1769.6233      2285.0515     -1177.5753      1573.8943     -84.437723    
  89174000   273.56703     -400.66986     -309.04869     -400.49725      0              3285.9597      31.216999      21.524542      33.329606      22395.215      3325.9002      2126.7038      4405.2751      52.957402      800.49148     -293.99169    
  89176000   271.44533     -398.87267     -307.96209     -398.79274      0              3932.5905      31.216999      21.524542      33.462448      22484.476      3804.1029      2749.6531      5244.0154      34.436209     -793.41954     -1874.5815    
  89178000   271.92738     -397.20171     -306.12968     -397.1104       0              1736.6584      31.216999      21.524542      33.389425      22435.41       1740.9621      1069.8553      2399.1577      535.17056     -1615.7771     -879.60016    
  89180000   272.13897     -402.01322     -310.87033     -401.95573      0              2322.0405      31.216999      21.524542      33.430792      22463.206      1045.111       3676.3375      2244.6731     -844.05741      631.75595      1548.3511    
  89182000   278.07092     -400.01337     -306.8838      -399.86906      0              1386.4495      31.216999      21.524542      33.363263      22417.831      914.46821      769.13139      2475.7489     -663.2216       62.640739     -32.011013    
  89184000   279.2073      -399.54349     -306.03332     -399.48624      0              3671.6279      31.216999      21.524542      33.354704      22412.08       4732.5454      4594.0002      1688.3383      2472.6936     -397.00271     -354.64869    
  89186000   278.9564      -400.25403     -306.82789     -400.25312      0              3394.4319      31.216999      21.524542      33.302337      22376.893      4116.9063      4423.6663      1642.7232      1139.6815      266.99391     -812.40546    
  89188000   276.28511     -400.64091     -308.10942     -400.65431      0              4348.2665      31.216999      21.524542      33.394216      22438.629      4270.4223      5651.1776      3123.1998      446.28159     -1418.2124     -1379.0149    
[...]
  96120000   278.05195     -405.14461     -312.02138     -404.79478      0              2931.4421      31.216999      21.524542      33.450029      22476.132      4481.386       3046.5683      1266.372      -1258.1744     -847.29468     -1642.2988    
  96122000   281.05292     -404.15572     -310.02743     -403.89709      0              3301.1127      31.216999      21.524542      33.390214      22435.94       4217.1533      2239.4068      3446.778       1134.756       794.07585     -72.198624    
  96124000   272.70072     -400.63453     -309.30351     -400.25297      0              2767.2675      31.216999      21.524542      33.314558      22385.104      2433.4667      2905.4256      2962.9103      538.8556       25.769936      1040.0968    
  96126000   270.3686      -401.55983     -311.00986     -401.20587      0              4465.0156      31.216999      21.524542      33.33539       22399.102      5935.204       4458.4744      3001.3684     -2813.2338     -335.41665      92.519875    
  96128000   280.26285     -401.58175     -307.71807     -401.26865      0              1676.4074      31.216999      21.524542      33.700394      22644.36       988.99594      3311.4867      728.73972     -723.02071     -1124.0552     -1612.4811    
  96130000   277.99501     -401.45243     -308.34828     -401.14875      0              3364.278       31.216999      21.524542      33.661583      22618.282      4214.1409      3579.2932      2299.3999      1539.078      -1432.8924     -344.0101     
  96132000   276.82772     -403.16175     -310.44854     -402.85657      0              1556.7036      31.216999      21.524542      33.663298      22619.434      317.01392      1484.6744      2868.4224     -1704.1787      894.1408      -1141.4733    
  96134000   282.49142     -400.72638     -306.11632     -400.4144       0              2385.1125      31.216999      21.524542      33.50155       22510.75       2891.6269      2836.2883      1427.4223     -347.71261     -8.1325873      1682.4887    
  96136000   276.90617     -403.37794     -310.63845     -403.06878      0              3798.9091      31.216999      21.524542      33.526858      22527.756      3478.6932      3396.6256      4521.4083      1657.6939     -2123.2774      1010.4478    
  96138000   274.77749     -404.63465     -312.60808     -404.33427      0              2390.8214      31.216999      21.524542      33.617783      22588.851      2681.7433      1850.5943      2640.1267      167.30658     -893.47885      474.74558    
  96140000   278.38673     -404.76688     -311.53153     -404.47925      0              2607.8539      31.216999      21.524542      33.539162      22536.023      1280.641       4236.2563      2306.6645     -1112.4742      280.2205      -644.28418    
  96142000   270.29924     -402.60464     -312.0779      -402.32028      0              4903.0398      31.216999      21.524542      33.48104       22496.969      4333.0074      6716.3023      3659.8098      1500.4618      421.96213     -1097.7336    
  96144000   276.75386     -403.2257      -310.53722     -402.94636      0              5255.2174      31.216999      21.524542      33.439084      22468.777      5108.3697      5611.7002      5045.5821      892.64666      4.9825094     -417.73669    
  96146000   280.54168     -405.57049     -311.61342     -405.20368      0              3335.218       31.216999      21.524542      33.440564      22469.772      3177.4618      3674.817       3153.3753      2209.9091      574.46519     -155.85904    
  96148000   278.02857     -403.78965     -310.67426     -403.40693      0              3283.7241      31.216999      21.524542      33.52718       22527.972      4178.5207      2755.2404      2917.4112      1605.6432     -758.32401      1986.6454    
  96150000   270.05027     -402.35353     -311.91018     -401.99241      0              3193.5477      31.216999      21.524542      33.521361      22524.062      3162.5757      3626.4584      2791.609       963.85781      1399.5046     -947.81474    
  96152000   278.22565     -405.38741     -312.20601     -405.02347      0              2905.8235      31.216999      21.524542      33.376405      22426.661      3924.2494      3043.3903      1749.8308     -1308.0615      183.0616       634.66609    
  96154000   271.11747     -407.13156     -316.33078     -406.74988      0              5025.077       31.216999      21.524542      33.34753       22407.259      3837.7611      4860.641       6376.8291     -1211.6059      2821.8631      1315.5623    
  96156000   271.91233     -406.09626     -315.02927     -405.71711      0              1954.7208      31.216999      21.524542      33.565179      22553.505      1598.1059      3324.3943      941.66211      1047.8271     -468.69396     -1719.4034    
  96158000   279.33606     -400.88832     -307.33503     -400.54366      0              3609.2613      31.216999      21.524542      33.634045      22599.778      3412.3681      4472.58        2942.8359      248.71972      57.586171      854.70519    
  96160000   266.31339     -405.75407     -316.56224     -405.37121      0              1986.0365      31.216999      21.524542      33.316317      22386.286      568.2716       3497.5199      1892.3182      221.91995     -854.42472      613.96916    
  96162000   284.2689      -403.61818     -308.41282     -403.25533      0              4044.6136      31.216999      21.524542      33.429727      22462.49       3943.4658      3281.4266      4908.9483     -257.08094     -1207.2525      21.214667    
  96164000   272.47612     -406.57859     -315.32279     -406.21645      0              2805.1002      31.216999      21.524542      33.459273      22482.343      3779.5395      2150.8791      2484.8821      128.95202     -179.54549     -526.99619    
  96166000   279.01529     -409.11025     -315.6644      -408.80449      0              3712.7912      31.216999      21.524542      33.541245      22537.423      3297.2999      3934.6272      3906.4465      882.57688     -589.00738     -1576.1217    
  96168000   277.07192     -405.31277     -312.51777     -405.01071      0              2325.2519      31.216999      21.524542      33.513535      22518.804      2820.0242      694.65585      3461.0758      1588.3962     -1248.902       221.78476    
  96170000   274.44653     -403.54483     -311.62911     -403.2291       0              2927.9632      31.216999      21.524542      33.560012      22550.033      1973.3644      2747.7986      4062.7266     -788.02236      793.51631     -253.17375    
  96172000   277.69894     -405.83709     -312.8321      -405.45838      0              2414.0783      31.216999      21.524542      33.642787      22605.652      4332.804      -789.61013      3699.0411     -1389.8561     -1501.6394     -141.48512    
  96174000   270.43744     -404.21735     -313.64433     -403.86025      0              3211.3847      31.216999      21.524542      33.704438      22647.077      2497.9059      3003.0491      4133.199      -254.39073     -171.40505      361.49497    
  96176000   272.32226     -406.09807     -314.8938      -405.7141       0              3809.9679      31.216999      21.524542      33.352342      22410.492      3802.8221      2790.8174      4836.2641     -144.72602      22.799041     -1058.7236    
  96178000   273.52036     -404.39892     -312.79339     -404.0442       0              4094.321       31.216999      21.524542      33.638655      22602.875      3086.253       4208.1971      4988.513      -3675.8679      946.0922       1247.0521    
  96180000   275.1594      -404.08751     -311.93304     -403.7336       0              2771.1243      31.216999      21.524542      33.406939      22447.178      2816.5054      2405.759       3091.1086     -433.76911      53.318755      805.03722    
  96182000   280.52536     -407.00024     -313.04864     -406.63173      0              4523.594       31.216999      21.524542      33.685378      22634.27       3696.6899      4698.6878      5175.4043     -1025.775       788.82284     -1228.0542    
  96184000   277.85037     -405.6329      -312.57719     -405.29129      0              2561.8865      31.216999      21.524542      33.690074      22637.426      3899.523       2889.1372      896.99933     -28.498062      5.0474102      1669.2248    
  96186000   288.2023      -405.03269     -308.50999     -404.68327      0              883.12427      31.216999      21.524542      33.530156      22529.972      1445.9733     -769.85958      1973.2591      919.50042      135.78293      10.760625    
  96188000   273.94388     -405.39153     -313.64416     -405.01417      0              2657.5017      31.216999      21.524542      33.613741      22586.135      3412.1721      1031.2968      3529.0363      621.62219      72.161424     -553.4509     
  96190000   283.53441     -405.05643     -310.09706     -404.67277      0              2744.3964      31.216999      21.524542      33.71154       22651.849      4832.9322      1330.3559      2069.9012      126.53169     -78.635755     -264.28746    
  96192000   273.53922     -401.30354     -309.69169     -401.0024       0              3988.2003      31.216999      21.524542      33.596498      22574.549      4166.8221      4828.2427      2969.5361     -613.36095     -13.08154      -288.36978    
  96194000   275.56093     -405.71353     -313.42458     -405.33202      0              3634.0343      31.216999      21.524542      33.480081      22496.325      2388.2158      4150.5834      4363.3037     -216.00652      1351.2525      3.8954645    
  96196000   278.26991     -402.00823     -308.81201     -401.644        0              3716.7919      31.216999      21.524542      33.551167      22544.089      3602.274       4062.8049      3485.2968     -1597.1344     -1123.1475     -170.54592    
  96198000   274.16822     -400.56838     -308.74587     -400.2882       0              2005.9496      31.216999      21.524542      33.550993      22543.972      953.41702      1776.1656      3288.266       455.47315     -464.75697      203.01777    
  96200000   276.3826      -403.13616     -310.57202     -402.79662      0              3663.3619      31.216999      21.524542      33.489512      22502.661      2945.4159      4379.447       3665.2227      129.35936      936.49875     -1675.0102    
  96202000   270.91049     -405.0234      -314.29195     -404.68217      0              1665.2898      31.216999      21.524542      33.603892      22579.517      2134.5661      203.78669      2657.5167     -116.72048     -566.45439      501.29062    
  96204000   273.224       -400.65616     -309.14988     -400.32872      0              2310.3042      31.216999      21.524542      33.780429      22698.138      748.77369      4418.5498      1763.589      -1572.3626      963.19922     -2536.3744    
  96206000   270.86805     -401.81388     -311.09664     -401.45225      0              4012.8845      31.216999      21.524542      33.615344      22587.212      4250.962       5022.3253      2765.3664      2102.8172     -622.27756     -406.39033    
  96208000   277.93461     -404.07069     -310.98677     -403.74242      0              2217.0508      31.216999      21.524542      33.488045      22501.676      2418.222       3239.7611      993.16915      2123.5529      15.875086     -506.21168    
  96210000   284.45092     -401.33117     -306.06485     -401.00391      0              4385.91        31.216999      21.524542      33.590117      22570.261      4579.6247      4668.1593      3909.946      -536.2052      -506.15509      96.27905     
  96212000   275.33011     -404.48195     -312.27031     -404.11935      0              3522.7283      31.216999      21.524542      33.457339      22481.043      4043.6079      3844.2564      2680.3207     -2228.4307     -1725.6242     -1228.9989    
  96214000   280.49364     -406.43922     -312.49824     -406.06022      0              2723.8977      31.216999      21.524542      33.482671      22498.065      1823.5098      4014.3729      2333.8104      190.2461      -730.76104     -631.05579    
  96216000   279.35035     -404.66988     -311.11181     -404.33907      0              5841.729       31.216999      21.524542      33.198015      22306.795      5673.2779      6435.6926      5416.2167      995.09942     -656.16598      300.85922    
  96218000   268.11193     -405.47124     -315.67705     -405.16163      0              2236.9891      31.216999      21.524542      33.411342      22450.136      2028.369       3139.0284      1543.5699      1149.7337      637.28749      313.16594    
  96220000   276.4382      -400.7171      -308.13435     -400.41117      0              2901.9861      31.216999      21.524542      33.504276      22512.582      2864.3217      3026.2779      2815.3588     -19.630863      438.7281      -161.56487    
  96222000   276.01536     -403.82593     -311.38479     -403.52444      0              3077.3627      31.216999      21.524542      33.566816      22554.604      3403.8533      1273.4271      4554.8076     -654.87935     -260.76812      1160.2219    
  96224000   274.83833     -405.86684     -313.8199      -405.54096      0              3067.1018      31.216999      21.524542      33.529577      22529.582      4545.1373      2269.5291      2386.639      -1171.8536      157.57833      280.89962    
  96226000   277.70291     -405.03248     -312.02615     -404.70591      0              876.74223      31.216999      21.524542      33.580272      22563.646      607.27316      1959.6284      63.32518       1130.8968      23.306098     -451.06896    
  96228000   270.5883      -404.47837     -313.85482     -404.10946      0              3934.1405      31.216999      21.524542      33.524903      22526.442      5591.7399      3458.2062      2752.4756     -722.37034      361.89976      710.48493    
  96230000   269.84207     -405.39778     -315.02415     -405.09366      0              4457.043       31.216999      21.524542      33.358125      22414.378      4195.3383      3992.0052      5183.7854     -857.76656     -615.21364      462.26342    
  96232000   266.61652     -404.83828     -315.54493     -404.4748       0              3714.5078      31.216999      21.524542      33.228013      22326.952      2445.319       4124.2712      4573.9332      1258.1575      1784.1569     -513.23419    
  96234000   274.52201     -405.72236     -313.78136     -405.47296      0              3168.3433      31.216999      21.524542      33.539551      22536.284      771.13118      4670.2509      4063.6478     -465.9769       739.34829     -185.91411    
  96236000   272.06629     -404.85759     -313.73905     -404.55013      0              2133.0085      31.216999      21.524542      33.50066       22510.152      965.83104      1331.6127      4101.5819      725.70625      228.16627      636.60659    
  96238000   270.50742     -404.14056     -313.54409     -403.79939      0              2316.1622      31.216999      21.524542      33.620045      22590.371      2690.5059      1996.5151      2261.4656      2186.0458     -637.38039      48.157279    
  96240000   272.27301     -400.45595     -309.26817     -400.15187      0              1661.8384      31.216999      21.524542      33.44092       22470.011      165.13012      2912.3889      1907.996      -743.41224      114.01471     -1304.111     
  96242000   277.45904     -404.2981      -311.37345     -404.02439      0              2892.2132      31.216999      21.524542      33.515486      22520.114      3492.4448      1464.8006      3719.3942      916.96204      357.98601      879.6249     
  96244000   278.62279     -403.85166     -310.53726     -403.54023      0              1727.3115      31.216999      21.524542      33.790261      22704.744      309.3697       2832.5541      2040.0106     -1404.5853      693.46649     -32.035635    
  96246000   277.43403     -403.46759     -310.55131     -403.11998      0              3024.5876      31.216999      21.524542      33.509126      22515.841      2456.117       2487.2176      4130.428       598.84011     -1423.0319     -474.78231    
  96248000   274.91251     -404.37246     -312.30068     -404.00432      0              2794.2371      31.216999      21.524542      33.530134      22529.957      4001.5329      2363.1701      2018.0085     -1684.8671      611.44422     -830.09614    
  96250000   269.00126     -399.83351     -309.74148     -399.50823      0              2392.2074      31.216999      21.524542      33.567288      22554.922      1760.9276      2956.1191      2459.5755      9.4466659      1567.773      -1069.2529    
  96252000   281.35034     -408.28201     -314.05411     -407.93573      0              819.29074      31.216999      21.524542      33.636378      22601.345      509.55718      1786.4881      161.82693     -1114.4681      1766.8339     -1381.5103    
  96254000   275.52939     -405.41061     -313.13222     -405.13861      0              3206.6055      31.216999      21.524542      33.592998      22572.197      4324.7026      2692.6716      2602.4423     -58.810683     -465.03092     -1133.0051    
  96256000   272.63321     -403.61581     -312.30739     -403.3983       0              2105.4094      31.216999      21.524542      33.709501      22650.479      3050.2415      3032.2796      233.7069       382.11685      374.91235      401.2439     
  96258000   267.39044     -404.80887     -315.25633     -404.53013      0              3039.3048      31.216999      21.524542      33.82253       22726.427      3428.419       2932.886       2756.6094     -1121.9694      307.8797       84.413758    
  96260000   272.54848     -405.56272     -314.28268     -405.20767      0              3940.8299      31.216999      21.524542      33.433568      22465.071      4732.5903      3376.4512      3713.4484      605.27014     -1218.4073      638.54828    
  96262000   273.58278     -403.26398     -311.63754     -402.92445      0              3027.5576      31.216999      21.524542      33.408403      22448.162      3136.4501      2808.0848      3138.1379     -67.189841     -506.54929      1834.662     
WARNING: Wall time limit reached (../timer.cpp:193)
Loop time of 85797 on 4 procs for 7641000 steps with 2592 atoms

Performance: 3.847 ns/day, 6.238 hours/ns, 89.059 timesteps/s
1453.8% CPU use with 4 MPI tasks x no OpenMP threads

MPI task timing breakdown:
Section |  min time  |  avg time  |  max time  |%varavg| %total
---------------------------------------------------------------
Pair    | 21437      | 21538      | 21671      |  67.5 | 25.10
Bond    | 0.74597    | 0.78342    | 0.81595    |   2.8 |  0.00
Neigh   | 638.06     | 649.41     | 660.17     |  39.4 |  0.76
Comm    | 2542.8     | 2680       | 2790.5     | 202.5 |  3.12
Output  | 5573.4     | 5573.5     | 5573.6     |   0.1 |  6.50
Modify  | 55330      | 55335      | 55340      |   1.6 | 64.50
Other   |            | 20.8       |            |       |  0.02

Nlocal:            648 ave         663 max         627 min
Histogram: 1 0 0 1 0 0 0 0 0 2
Nghost:           4154 ave        4177 max        4138 min
Histogram: 2 0 0 0 0 1 0 0 0 1
Neighs:              0 ave           0 max           0 min
Histogram: 4 0 0 0 0 0 0 0 0 0
FullNghs:       160277 ave      167034 max      151647 min
Histogram: 1 0 1 0 0 0 0 0 0 2

Total # of neighbors = 641108
Ave neighs/atom = 247.34105
Ave special neighs/atom = 0
Neighbor list builds = 152820
Dangerous builds not checked
unfix 3
unfix 1
unfix 2


# Finalize simulation
write_restart	restart.lmp.${pid}
write_restart	restart.lmp.0
System init for write_restart ...
Generated 0 of 1 mixed pair_coeff terms from geometric mixing rule
write_data	data.final.${pid} nocoeff
write_data	data.final.0 nocoeff
System init for write_data ...
Generated 0 of 1 mixed pair_coeff terms from geometric mixing rule
Total wall time: 23:50:10
