LAMMPS (23 Jun 2022)
include procedure.lmp
echo both
include		in.partitions
variable        pid world 0
include		in.temp
variable	temperature equal 275
variable        tempDamp equal 0.100 # this is 0.1 ps
include		in.pressure
variable        pressure equal 3039.75
variable        pressureDamp equal 1.0 #this is 1ps

variable	barostat string	   tri
variable	direction string   z
variable	direction_x_bool equal 0
variable	direction_y_bool equal 0
variable	direction_z_bool equal 1

include		in.seed
variable        seed world 745823

units           metal
atom_style	full
box tilt large
read_restart 	restart.lmp.${pid}
read_restart 	restart.lmp.0
Reading restart file ...
  restart file = 23 Jun 2022, LAMMPS = 23 Jun 2022
  restoring atom style full from restart
  triclinic box = (0 0 -0.97018325) to (31.216999 21.524542 32.765902) with tilt (-9.212092 0.78297673 -11.363088)
WARNING: Triclinic box skew is large (../domain.cpp:224)
  2 by 1 by 2 MPI processor grid
Summary of lammps deepmd module ...
  >>> Info of deepmd-kit:
  installed to:       /u/sigbjobo/software/DEEPMD_FROM_SOURCE/deepmd-kit/install
  source:             v2.1.3
  source branch:       master
  source commit:      5a32c49
  source commit at:   2022-07-01 09:52:58 +0800
  surpport model ver.:1.1 
  build float prec:   double
  build with tf inc:  /u/sigbjobo/software/DEEPMD_FROM_SOURCE/tensorflow/install/include;/u/sigbjobo/software/DEEPMD_FROM_SOURCE/tensorflow/install/include
  build with tf lib:  /u/sigbjobo/software/DEEPMD_FROM_SOURCE/tensorflow/install/lib/libtensorflow_cc.so;/u/sigbjobo/software/DEEPMD_FROM_SOURCE/tensorflow/install/lib/libtensorflow_framework.so
  set tf intra_op_parallelism_threads: 0
  set tf inter_op_parallelism_threads: 0
  >>> Info of lammps module:
  use deepmd-kit at:  /u/sigbjobo/software/DEEPMD_FROM_SOURCE/deepmd-kit/install
  source:             v2.1.3
  source branch:      master
  source commit:      5a32c49
  source commit at:   2022-07-01 09:52:58 +0800
  build float prec:   double
  build with tf inc:  /u/sigbjobo/software/DEEPMD_FROM_SOURCE/tensorflow/install/include;/u/sigbjobo/software/DEEPMD_FROM_SOURCE/tensorflow/install/include
  build with tf lib:  /u/sigbjobo/software/DEEPMD_FROM_SOURCE/tensorflow/install/lib/libtensorflow_cc.so;/u/sigbjobo/software/DEEPMD_FROM_SOURCE/tensorflow/install/lib/libtensorflow_framework.so
  restoring pair style deepmd from restart
  2592 atoms
Finding 1-2 1-3 1-4 neighbors ...
  special bond factors lj:    0        0        0       
  special bond factors coul:  0        0        0       
     0 = max # of 1-2 neighbors
     0 = max # of 1-3 neighbors
     0 = max # of 1-4 neighbors
     1 = max # of special neighbors
  special bonds CPU = 0.000 seconds
  read_restart CPU = 0.063 seconds
include 	in.setup
variable	out_freq equal 2000
variable	out_freq2 equal 2000

timestep        0.0005

neigh_modify    delay 7 every 1

include         in.deepmd
# This is deepMD model

# create groups ###
#group ox type 2
#group hy type 1

mass 2 15.999
mass 1 1.008

pair_style      deepmd ../graph.pb
pair_coeff      * *

bond_style      none
angle_style     none
dihedral_style  none
improper_style  none
neigh_modify exclude none


neighbor        2.0 bin
neigh_modify    every 50 delay 0 check no

thermo          ${out_freq}
thermo          2000
thermo_style 	custom step temp pe etotal epair emol press lx ly lz vol pxx pyy pzz pxy pxz pyz

restart 	${out_freq} restart.lmp.${pid} restart2.lmp.${pid}
restart 	2000 restart.lmp.${pid} restart2.lmp.${pid}
restart 	2000 restart.lmp.0 restart2.lmp.${pid}
restart 	2000 restart.lmp.0 restart2.lmp.0


timer           timeout 23:50:00 every 1000
New timer settings: style=normal  mode=nosync  timeout=23:50:00


# Set number of time steps
variable 	nsteps_wall		equal	 6000000
variable 	nsteps_enhanced_coex    equal	60000000

variable     nsteps_enhanced_coex_upto equal (${nsteps_wall}+${nsteps_enhanced_coex})
variable     nsteps_enhanced_coex_upto equal (6000000+${nsteps_enhanced_coex})
variable     nsteps_enhanced_coex_upto equal (6000000+60000000)


# Set temperature for first step
if "$(step) < 1  " then    "velocity 	all create ${temperature} ${seed} dist gaussian"


# Always run thermo and barostat


######################################
# Run simulation with wall potential #
######################################
if " $(step) < ${nsteps_wall} " then    "fix             3 all plumed plumedfile plumed.equil.dat outfile plumed.equil.out"   "fix             1 all nph ${direction} ${pressure} ${pressure} ${pressureDamp}"   "fix             2 all temp/csvr ${temperature} ${temperature} ${tempDamp} ${seed}"   "run             ${nsteps_wall} upto"
if " $(step) == ${nsteps_wall} " then    "unfix 3"   "unfix 1"   "unfix 2"


############################
# Run enhanced coesistence #
############################
if "$(step) == ${nsteps_wall}" then    "fix             3 all plumed plumedfile plumed.start.dat outfile plumed.out" else    "fix             3 all plumed plumedfile plumed.dat outfile plumed.out"
fix             3 all plumed plumedfile plumed.dat outfile plumed.out

if "$(step) < ${nsteps_enhanced_coex_upto} && $(step) >= ${nsteps_wall} " then    "include         in.dump"    "fix             1 all nph ${direction} ${pressure} ${pressure} ${pressureDamp}"   "fix             2 all temp/csvr ${temperature} ${temperature} ${tempDamp} ${seed}"   "run             ${nsteps_enhanced_coex_upto} upto"    "unfix 3"   "unfix 1"   "unfix 2"
include         in.dump
dump            myDump all atom ${out_freq2} dump.water.${pid}
dump            myDump all atom 2000 dump.water.${pid}
dump            myDump all atom 2000 dump.water.0
dump            myDump2 all dcd ${out_freq2} dump.${pid}.dcd
dump            myDump2 all dcd 2000 dump.${pid}.dcd
dump            myDump2 all dcd 2000 dump.0.dcd
dump_modify     myDump append yes
dump_modify     myDump2 append yes

fix             1 all nph ${direction} ${pressure} ${pressure} ${pressureDamp}
fix             1 all nph z ${pressure} ${pressure} ${pressureDamp}
fix             1 all nph z 3039.75 ${pressure} ${pressureDamp}
fix             1 all nph z 3039.75 3039.75 ${pressureDamp}
fix             1 all nph z 3039.75 3039.75 1
fix             2 all temp/csvr ${temperature} ${temperature} ${tempDamp} ${seed}
fix             2 all temp/csvr 275 ${temperature} ${tempDamp} ${seed}
fix             2 all temp/csvr 275 275 ${tempDamp} ${seed}
fix             2 all temp/csvr 275 275 0.1 ${seed}
fix             2 all temp/csvr 275 275 0.1 745823
run             ${nsteps_enhanced_coex_upto} upto
run             66000000 upto

CITE-CITE-CITE-CITE-CITE-CITE-CITE-CITE-CITE-CITE-CITE-CITE-CITE

Your simulation uses code contributions which should be cited:

- USER-DEEPMD package:

@article{Wang_ComputPhysCommun_2018_v228_p178,
  author = {Wang, Han and Zhang, Linfeng and Han, Jiequn and E, Weinan},
  doi = {10.1016/j.cpc.2018.03.016},
  url = {https://doi.org/10.1016/j.cpc.2018.03.016},
  year = 2018,
  month = {jul},
  publisher = {Elsevier {BV}},
  volume = 228,
  journal = {Comput. Phys. Commun.},
  title = {{DeePMD-kit: A deep learning package for many-body potential energy representation and molecular dynamics}},
  pages = {178--184}
}

CITE-CITE-CITE-CITE-CITE-CITE-CITE-CITE-CITE-CITE-CITE-CITE-CITE

Generated 0 of 1 mixed pair_coeff terms from geometric mixing rule
Neighbor list info ...
  update every 50 steps, delay 0 steps, check no
  max neighbors/atom: 2000, page size: 100000
  master list distance cutoff = 8
  ghost atom cutoff = 8
  binsize = 4, bins = 11 9 9
  1 neighbor lists, perpetual/occasional/extra = 1 0 0
  (1) pair deepmd, perpetual
      attributes: full, newton on
      pair build: full/bin
      stencil: full/bin/3d
      bin: standard
Per MPI rank memory allocation (min/avg/max) = 7.3 | 7.302 | 7.302 Mbytes
   Step          Temp          PotEng         TotEng         E_pair         E_mol          Press            Lx             Ly             Lz           Volume          Pxx            Pyy            Pzz            Pxy            Pxz            Pyz      
  26000000   272.71303     -396.55715     -305.222       -396.55715      0              3502.6054      31.216999      21.524542      33.736086      22668.342      4456.2844      2940.0602      3111.4716      159.51111      290.67122     -402.25267    
  26002000   279.64031     -399.33622     -305.68103     -398.78358      0              3970.7353      31.216999      21.524542      33.711134      22651.576      4203.697       3813.2528      3895.2561      578.2706      -165.97982      339.04394    
  26004000   270.40028     -398.88963     -308.32906     -398.38065      0              1324.2868      31.216999      21.524542      33.807932      22716.618      1496.9675      1641.6106      834.2822      -1905.4532     -300.09273     -1677.4353    
  26006000   273.95406     -399.6222      -307.87141     -399.08216      0              3439.9157      31.216999      21.524542      33.557857      22548.585      4830.2039      2058.4894      3431.0539     -401.0225       140.39815      57.906689    
  26008000   268.10547     -398.45844     -308.66643     -397.9256       0              3582.5378      31.216999      21.524542      33.567538      22555.09       5188.966       1964.2895      3594.3579     -536.74649     -2.0647841     -2972.5274    
  26010000   280.26884     -397.72991     -303.86422     -397.26827      0              2817.899       31.216999      21.524542      33.752886      22679.631      3254.3726      3442.1839      1757.1405     -199.86699      1362.4442      120.28389    
  26012000   278.09036     -397.83936     -304.70327     -397.41719      0              3470.9655      31.216999      21.524542      33.376839      22426.953      3705.3319      4203.6226      2503.942      -907.36687      531.80237     -795.46239    
  26014000   269.48591     -398.55932     -308.30497     -398.00745      0              4493.221       31.216999      21.524542      33.172007      22289.32       4462.5849      4764.2286      4252.8495     -835.23471      724.58953     -432.63972    
  26016000   276.55187     -399.26207     -306.64125     -398.82144      0              2934.0374      31.216999      21.524542      33.396362      22440.071      1618.5439      3250.7565      3932.8118     -1089.5097      929.01367      1365.0114    
  26018000   273.80129     -400.8697      -309.17008     -400.47903      0              2394.4655      31.216999      21.524542      33.604594      22579.989      2530.0963      2644.2261      2009.0742      192.65217     -453.71987     -402.87678    
  26020000   272.64033     -400.91486     -309.60406     -400.58653      0              3571.6474      31.216999      21.524542      33.612277      22585.151      4036.3255      3381.0151      3297.6015     -1463.9119     -371.78658     -322.1698     
  26022000   273.58143     -400.23247     -308.60649     -399.74446      0              2283.5596      31.216999      21.524542      33.67617       22628.083      2880.5409      2351.3777      1618.7601     -419.97792      2.5556275     -252.62881    
  26024000   279.77601     -399.3132      -305.61256     -398.89969      0              4011.5846      31.216999      21.524542      33.734253      22667.111      1689.7917      6947.5113      3397.4509      2299.5671      1678.1369     -393.21107    
  26026000   277.77735     -394.75941     -301.72815     -394.48323      0              3227.5494      31.216999      21.524542      33.721709      22658.682      1491.3251      4525.8403      3665.483       528.2528       977.42674      1512.038     
  26028000   272.1523      -399.77264     -308.62528     -399.24943      0              1234.3787      31.216999      21.524542      33.697194      22642.21       1391.3146      1479.1324      832.68913      477.03223      415.20398      327.91282    
  26030000   288.49095     -397.72047     -301.10109     -397.36961      0              3686.7403      31.216999      21.524542      33.622725      22592.172      2762.5259      4621.8423      3675.8527     -117.65692      71.938903      94.200641    
  26032000   272.13269     -398.19947     -307.05869     -397.74764      0              961.91384      31.216999      21.524542      33.423401      22458.24       1474.7213      148.5125       1262.5077     -385.19094     -688.87255      272.4269     
  26034000   271.53972     -401.04027     -310.09808     -400.51142      0              2485.5494      31.216999      21.524542      33.710491      22651.144      2482.3556      2359.8274      2614.4652      990.06701      1178.3974      441.46361    
  26036000   274.04793     -401.13881     -309.35658     -400.58732      0              2142.2063      31.216999      21.524542      33.347578      22407.292      1700.5789      2202.8182      2523.2217      1495.5463      2002.195       1175.6352    
  26038000   275.78955     -396.52336     -304.15784     -396.17963      0              1932.6842      31.216999      21.524542      33.752411      22679.312      1153.6839      2849.639       1794.7298      29.466098     -927.73807      326.31507    
  26040000   277.03752     -402.61023     -309.82675     -402.08558      0              2522.4556      31.216999      21.524542      33.493127      22505.091      2635.8696      2464.1993      2467.2978      19.7291       -2144.761      -455.58597    
  26042000   274.05609     -399.30139     -307.51643     -398.82361      0              2979.019       31.216999      21.524542      33.66102       22617.903      2289.7419      3088.2439      3559.0712      534.88337      1390.7945      74.397655    
  26044000   271.44809     -399.79798     -308.88647     -399.40376      0              1125.9754      31.216999      21.524542      33.774235      22693.976      1893.2838      2459.8774     -975.23502      1329.1048      809.33858     -442.56923    
  26046000   279.4659      -402.1279      -308.53113     -401.69143      0              3591.2896      31.216999      21.524542      33.450181      22476.234      2724.1808      2343.0201      5706.6679     -481.78078     -409.41358      589.81835    
  26048000   271.47896     -400.62294     -309.7011      -400.31612      0              2361.5447      31.216999      21.524542      33.711997      22652.156      2183.6007      3734.3134      1166.72        320.45168     -1483.5021      1900.0284    
  26050000   283.35172     -400.36178     -305.4636      -399.8191       0              3099.495       31.216999      21.524542      33.46802       22488.221      2728.0968      2633.3056      3937.0827      2507.2395      1100.6521      562.78963    
  26052000   279.02557     -403.14717     -309.69786     -402.59476      0              2393.8695      31.216999      21.524542      33.642401      22605.393      3114.4496      1613.1662      2453.9925      1387.3051     -675.07363      336.44354    
  26054000   284.36604     -401.39789     -306.16        -401.0146       0              2471.3833      31.216999      21.524542      33.584253      22566.321      2364.2607      552.17499      4497.7142      1130.9718     -915.36568      1194.1461    
  26056000   275.26855     -399.24838     -307.05735     -398.79875      0              1230.3912      31.216999      21.524542      33.510306      22516.634      343.49623      152.15745      3195.5199     -672.87617      151.42278      117.54123    
  26058000   271.48512     -399.46175     -308.53784     -399.18932      0              1974.886       31.216999      21.524542      33.657018      22615.214      2390.6746      1511.6834      2022.3        -1501.4479      1351.9116     -336.84158    
  26060000   273.35375     -400.9455      -309.39576     -400.72586      0              3560.2537      31.216999      21.524542      33.514521      22519.466      2365.3764      1971.1398      6344.2449      636.87511      236.47497     -144.69889    
  26062000   279.2521      -399.72216     -306.19699     -399.49323      0              2678.1761      31.216999      21.524542      33.56751       22555.071      2062.548       2657.6477      3314.3327      1315.5655      1169.2857      957.53623    
  26064000   283.75783     -398.68761     -303.65342     -398.44609      0              4778.2         31.216999      21.524542      33.598547      22575.925      2380.9188      5906.4345      6047.2467      543.75889      2585.3259      639.31032    
  26066000   280.07683     -397.75802     -303.95664     -397.38523      0              3734.2339      31.216999      21.524542      33.449887      22476.036      4292.9565      3920.2841      2989.4612     -1662.2406     -833.27893      208.08551    
  26068000   271.51168     -401.15755     -310.22475     -400.8649       0              3391.9051      31.216999      21.524542      33.538791      22535.774      5664.5084      2463.6129      2047.5941     -1114.4133      42.356195     -353.11602    
  26070000   270.74865     -400.53321     -309.85595     -400.11391      0              1815.6054      31.216999      21.524542      33.457679      22481.272      3161.0054      1684.0623      601.74861      925.1137       356.07484      2067.4824    
  26072000   283.57567     -399.80823     -304.83504     -399.34488      0              3062.7911      31.216999      21.524542      33.603179      22579.038      3072.715       2056.2205      4059.4379      1337.2957      2250.1563      526.04115    
  26074000   267.20434     -397.52662     -308.03641     -397.06913      0              4389.3124      31.216999      21.524542      33.545679      22540.402      3536.2349      5096.5282      4535.1739      1042.0142      113.20368     -48.286918    
  26076000   270.79842     -401.50588     -310.81196     -400.96236      0              3256.0633      31.216999      21.524542      33.515259      22519.962      3823.9267      2339.6398      3604.6232      122.91411     -1714.9927     -57.504468    
  26078000   281.60027     -400.71022     -306.39862     -400.30816      0              1522.7338      31.216999      21.524542      33.630853      22597.633      3280.8038      2102.5231     -815.12542     -484.38967      1130.5491     -757.53501    
  26080000   274.54084     -400.80072     -308.85342     -400.25905      0              3945.687       31.216999      21.524542      33.588436      22569.132      5393.1881      4142.884       2300.989      -1026.2648     -61.07438       664.58332    
  26082000   265.54512     -400.47415     -311.53963     -400.04854      0              3507.7778      31.216999      21.524542      33.402812      22444.405      2235.4998      4761.8322      3526.0014      278.47777     -17.285205      811.22152    
  26084000   277.02834     -401.45452     -308.67412     -400.9328       0              2887.2667      31.216999      21.524542      33.219401      22321.166      973.57571      3358.0318      4330.1925      356.08691     -2133.3006      478.09673    
  26086000   277.98397     -403.52303     -310.42257     -403.0678       0              3709.9148      31.216999      21.524542      33.433609      22465.098      4265.2585      4494.0913      2370.3945      1803.0151     -1823.9565     -1035.91      
  26088000   274.97301     -401.89        -309.79796     -401.44336      0              2412.311       31.216999      21.524542      33.526937      22527.808      1620.3654      2553.1792      3063.3885     -655.34355      310.79044     -885.92973    
  26090000   273.06587     -406.00061     -314.5473      -405.63574      0              3166.8651      31.216999      21.524542      33.294679      22371.747      1841.1783      4927.388       2732.029       456.61469      1296.209      -1964.4064    
  26092000   285.67098     -402.86651     -307.19157     -402.55664      0              4135.4988      31.216999      21.524542      33.314268      22384.909      4466.4952      3072.4923      4867.5089      478.25002      420.45507      1799.4998    
  26094000   276.92506     -404.40537     -311.65956     -404.09079      0              2893.2265      31.216999      21.524542      33.2509        22342.331      4019.3646      881.22982      3779.085      -109.12486     -1868.79        117.21755    
  26096000   272.46308     -402.19536     -310.94392     -401.93421      0              4269.2381      31.216999      21.524542      33.086019      22231.542      5119.3298      2977.7142      4710.6703      1269.7144     -1623.8061      9.5919086    
  26098000   275.78509     -402.91343     -310.54941     -402.5363       0              6125.1915      31.216999      21.524542      33.24745       22340.012      5906.1476      6749.8976      5719.5293     -13.790714     -638.96915      661.23504    
  26100000   272.42706     -398.4581      -307.21873     -398.18261      0              4875.7927      31.216999      21.524542      33.435482      22466.357      5975.8956      6345.2655      2306.2171      461.49944     -1125.0597     -547.06301    
  26102000   277.48659     -399.24164     -306.30776     -398.96462      0              3003.2565      31.216999      21.524542      33.399477      22442.164      3250.8853      3668.9098      2089.9744      555.21646     -1352.1382     -1609.7895    
  26104000   272.56378     -399.76955     -308.48438     -399.56641      0              2268.514       31.216999      21.524542      33.610312      22583.831     -74.502957      2869.7695      4010.2755     -654.10892      559.05921      1653.0986    
  26106000   283.49817     -400.96217     -306.01493     -400.75883      0              3702.8712      31.216999      21.524542      33.564791      22553.244      2600.7163      5177.7983      3330.0988     -924.0523       479.87954     -1168.4697    
  26108000   276.08817     -397.27411     -304.80858     -397.08599      0              4374.3559      31.216999      21.524542      33.776395      22695.428      5049.8451      4042.6962      4030.5262     -258.00928     -445.76294     -952.85004    
  26110000   282.66575     -401.28274     -306.61429     -401.14092      0              2399.981       31.216999      21.524542      33.296386      22372.894      2830.0329      1177.5739      3192.3362      222.20252     -943.67148     -326.83051    
  26112000   273.4076      -401.74125     -310.17348     -401.50225      0              3784.5086      31.216999      21.524542      33.48508       22499.684      3958.7207      5036.0519      2358.7532     -745.96028      1406.9214      459.77406    
  26114000   272.87402     -400.03996     -308.65089     -399.83286      0              3158.0218      31.216999      21.524542      33.582012      22564.815      3780.6386      1830.9049      3862.5218     -880.956       -257.59386      842.60193    
  26116000   276.32131     -403.66369     -311.12009     -403.39438      0              2565.5926      31.216999      21.524542      33.211072      22315.569      1976.3729      2785.7712      2934.6336     -859.04338     -778.64833     -1461.4393    
  26118000   273.37672     -401.53545     -309.97802     -401.39338      0              3890.0933      31.216999      21.524542      33.427755      22461.165      4884.2962      3142.2672      3643.7165     -1610.1347     -454.34148     -2151.2116    
  26120000   272.48707     -398.94781     -307.68834     -398.81866      0              3591.1699      31.216999      21.524542      33.516886      22521.055      4955.4195      3043.6165      2774.4738      475.55612      1691.9237     -820.81391    
  26122000   272.0995      -398.21066     -307.08099     -398.06694      0              3225.9412      31.216999      21.524542      33.808208      22716.803      4455.3973      2817.0763      2405.35       -361.01748     -228.32937      356.32387    
  26124000   277.97222     -399.24407     -306.14755     -399.17751      0              2581.594       31.216999      21.524542      33.783437      22700.159      2492.4805      2659.413       2592.8886      2017.5713      1019.4884     -2366.0748    
  26126000   271.872       -398.32099     -307.26751     -398.20363      0              2941.6142      31.216999      21.524542      33.66349       22619.563      4265.4041      2260.1656      2299.2728      1714.0222      1205.808      -223.30509    
  26128000   280.00253     -402.13405     -308.35755     -402.03895      0              3429.7644      31.216999      21.524542      33.63779       22602.294      2099.9455      2961.5064      5227.8412      1427.4256      153.79264      644.87291    
  26130000   274.88132     -401.59685     -309.53551     -401.55769      0              2693.7052      31.216999      21.524542      33.586981      22568.154      2499.3523      1007.4854      4574.278       51.96643       399.25493      1142.8499    
  26132000   272.50442     -401.02607     -309.76079     -400.9456       0              991.34021      31.216999      21.524542      33.590802      22570.722      1209.3184      1588.9087      175.79358     -2098.8488     -801.93532     -580.11878    
  26134000   273.81363     -399.96108     -308.25732     -399.90089      0              3433.8035      31.216999      21.524542      33.602481      22578.569      3903.511       3891.8898      2506.0096     -376.07556      351.73965      518.35754    
  26136000   269.47655     -401.29219     -311.04098     -401.26301      0              3542.9103      31.216999      21.524542      33.72174       22658.703      2378.6638      4465.141       3784.9261      359.68914      600.75018     -338.85494    
  26138000   277.59685     -401.13265     -308.16185     -401.13602      0              3155.4251      31.216999      21.524542      33.79313       22706.672      4285.7175      2111.7929      3068.765      -1076.5537      667.76067      591.25395    
  26140000   277.57864     -400.28103     -307.31632     -400.30616      0              3097.6417      31.216999      21.524542      33.793928      22707.208      3673.8762      1460.0281      4159.0206     -515.25769      735.34082      534.10415    
  26142000   278.7523      -404.8421      -311.48432     -404.47932      0              4055.6587      31.216999      21.524542      33.626937      22595.002      4581.4113      3790.2283      3795.3364      725.92148      26.341122     -1899.9994    
  26144000   281.38537     -403.44704     -309.20741     -403.11859      0              2102.8371      31.216999      21.524542      33.655739      22614.355      1697.8215     -84.896649      4695.5866     -473.69342     -505.69052      127.11195    
  26146000   279.08928     -404.85223     -311.3816      -404.46584      0              2174.7072      31.216999      21.524542      33.872817      22760.216      3888.9657      1816.645       818.51075     -7.4206295     -452.22252     -1029.8216    
  26148000   278.09208     -404.31096     -311.17429     -403.73468      0              1223.764       31.216999      21.524542      33.653555      22612.887      2404.8459      71.713709      1194.7325      1620.3063     -13.039751      6.8220252    
  26150000   276.36249     -404.56979     -312.01239     -404.24558      0              3235.7581      31.216999      21.524542      33.759966      22684.388      2808.5167      3092.9893      3805.7684      84.19936       254.03876      119.67742    
  26152000   277.51829     -403.66438     -310.71989     -403.421        0              1186.5386      31.216999      21.524542      33.741713      22672.123      1004.9064      2316.675       238.03446     -1347.4282      1862.0193     -613.62148    
  26154000   275.84487     -400.36956     -307.98552     -400.15486      0              1985.3858      31.216999      21.524542      33.734264      22667.118      2063.4223      2306.1262      1586.6089      2106.5295      438.48311     -171.97057    
  26156000   269.23438     -404.99282     -314.82272     -404.51315      0              3551.7899      31.216999      21.524542      33.631926      22598.354      3729.4283      5437.928       1488.0133      644.29729     -1189.9318     -906.48683    
  26158000   270.64703     -404.27746     -313.63424     -403.6877       0              1369.6399      31.216999      21.524542      33.635809      22600.963      1981.4305      155.94598      1971.5432      578.34367     -1338.3764      775.57709    
  26160000   270.15674     -400.47272     -309.99371     -399.92926      0              3394.0278      31.216999      21.524542      33.610488      22583.949      4422.1962      2696.031       3063.8563      1588.7797     -1225.9878     -1380.3173    
  26162000   277.67944     -403.9157      -310.91723     -403.40694      0              3696.3596      31.216999      21.524542      33.459797      22482.695      3717.4128      5300.3377      2071.3283      1132.0498      197.68555     -464.61769    
  26164000   272.00318     -400.78619     -309.68877     -400.42937      0              2290.5916      31.216999      21.524542      33.358479      22414.616      2667.3963      1839.4301      2364.9484      498.80259     -2218.454       221.87382    
  26166000   271.36951     -399.58609     -308.70091     -399.30679      0              2503.8466      31.216999      21.524542      33.687787      22635.889      2017.9707      2036.5297      3457.0393     -66.028598     -2193.5535     -890.72475    
  26168000   272.60612     -403.72164     -312.4223      -403.24819      0              2507.9207      31.216999      21.524542      33.681693      22631.794      3312.8364      2663.3178      1547.6079     -1706.2609      447.28443      723.15681    
  26170000   276.83035     -402.11053     -309.39644     -401.80831      0              2702.4667      31.216999      21.524542      33.46176       22484.014      3299.4607      1649.6518      3158.2877     -800.94771      51.227224      1369.6476    
  26172000   276.3175      -405.16294     -312.6206      -404.75666      0              830.56719      31.216999      21.524542      33.32227       22390.287      978.83656     -71.711865      1584.5769     -157.19817      846.70803     -915.75153    
  26174000   265.789       -404.3409      -315.3247      -403.89887      0              2101.3647      31.216999      21.524542      33.461117      22483.582      1844.8188      1959.4924      2499.7829      545.39492     -369.25326      267.08634    
  26176000   270.42247     -408.15729     -317.58928     -407.67968      0              1404.5136      31.216999      21.524542      33.332351      22397.06       452.51048      2634.9583      1126.0721      3120.2007     -2340.3546      1151.0508    
  26178000   279.52286     -404.20918     -310.59333     -403.9052       0              1928.1949      31.216999      21.524542      33.195317      22304.983      536.42567      3766.3932      1481.766       2044.1391      268.55091      124.58861    
  26180000   276.8634      -405.45615     -312.73098     -404.89064      0              2865.3675      31.216999      21.524542      33.320201      22388.896      3448.3529      3911.5902      1236.1593     -1595.7107     -58.894648     -407.82901    
  26182000   276.41359     -404.83312     -312.2586      -404.46688      0              2262.4133      31.216999      21.524542      33.434998      22466.032      1745.1535      2913.0805      2129.0059      118.95243      149.66287     -1196.0123    
  26184000   276.34324     -402.97322     -310.42226     -402.39779      0              958.98217      31.216999      21.524542      33.541603      22537.663      2559.6722     -759.14902      1076.4234      1939.9337      60.821026      183.68769    
  26186000   274.6367      -400.98503     -309.00562     -400.59924      0              1891.1353      31.216999      21.524542      33.49165       22504.098      3456.3878      1176.1734      1040.8448     -1203.3618     -9.8150382     -1465.0536    
  26188000   270.20796     -400.44718     -309.95101     -399.92078      0              4659.0926      31.216999      21.524542      33.311765      22383.228      3861.0719      3894.6968      6221.509      -597.38968      1826.0775      400.87202    
  26190000   276.33895     -399.14995     -306.60043     -398.74131      0              2498.4306      31.216999      21.524542      33.330563      22395.858      4497.8765     -772.86245      3770.2776     -1149.4589      1886.2488     -261.31815    
  26192000   277.74555     -401.60139     -308.58078     -401.41382      0              4677.9933      31.216999      21.524542      33.593849      22572.769      5160.3574      4546.9985      4326.6241      1303.4624      1091.1332      173.92523    
  26194000   273.08185     -402.23878     -310.78011     -402.00204      0              4316.4538      31.216999      21.524542      33.630848      22597.63       4908.6368      5559.2292      2481.4953      583.60486      1565.5266     -116.94766    
  26196000   276.33473     -400.30881     -307.76071     -400.11777      0              3520.5257      31.216999      21.524542      33.690537      22637.737      4479.6667      2136.259       3945.6514      273.31968      992.78742      1677.9236    
  26198000   274.99478     -401.33679     -309.23745     -401.18236      0              3205.5057      31.216999      21.524542      33.524102      22525.904      2874.6946      2560.2917      4181.5308      1232.7086      381.30875     -341.73464    
  26200000   280.32008     -402.97137     -309.08852     -402.79015      0             -28.333243      31.216999      21.524542      33.634174      22599.865      848.50223      976.06551     -1909.5675     -28.778945      215.26101     -43.375251    
  26202000   278.94626     -401.87871     -308.45597     -401.62533      0              2167.6669      31.216999      21.524542      33.503279      22511.912      1192.0044      3874.8629      1436.1333      1173.0337     -905.76096     -1555.6412    
  26204000   279.3098      -406.33334     -312.78884     -405.88324      0              3329.3971      31.216999      21.524542      33.201721      22309.286      4668.3244      3479.5203      1840.3466     -1370.5497     -980.62968     -19.251609    
  26206000   272.43538     -406.13795     -314.89579     -405.75255      0              3030.3951      31.216999      21.524542      33.410368      22449.482      1961.6578      3653.23        3476.2976      490.88269      704.86851      416.85362    
  26208000   276.94028     -404.36669     -311.61578     -404.03786      0              3052.5442      31.216999      21.524542      33.493807      22505.548      1901.6521      2160.5656      5095.4149      2094.6968      349.51125      2019.9327    
  26210000   277.61811     -401.30765     -308.32973     -401.17937      0              2133.6446      31.216999      21.524542      33.626432      22594.662      2346.6118      1743.1536      2311.1684      896.03308     -8.9419073     -183.34544    
  26212000   267.56114     -401.72054     -312.11083     -401.41381      0              3448.6536      31.216999      21.524542      33.326204      22392.93       3254.7267      3867.0769      3224.1573     -474.92266     -13.507691      307.03293    
  26214000   272.98732     -401.56431     -310.1373      -401.02616      0              3079.9067      31.216999      21.524542      33.293777      22371.141      4158.5778      2057.2441      3023.8982      800.76707     -525.77268      1485.147     
  26216000   272.58655     -405.06645     -313.77366     -404.5318       0              831.0137       31.216999      21.524542      33.430061      22462.715      254.78931      1680.7578      557.49402     -127.64562     -381.30265      909.19345    
  26218000   278.2104      -403.73797     -310.56168     -403.28102      0              3680.1835      31.216999      21.524542      33.364679      22418.783      3151.3033      3143.2718      4745.9753     -144.71074      517.59191     -410.32699    
  26220000   271.63655     -403.10666     -312.13204     -402.75984      0              1750.0465      31.216999      21.524542      33.447696      22474.564      2131.4593      3210.82       -92.139778      1652.5625     -1073.3696     -156.9201     
  26222000   269.70749     -406.27329     -315.94474     -405.69117      0              3974.0447      31.216999      21.524542      33.377067      22427.106      2927.3664      3048.7462      5946.0214      1906.3484     -212.24359     -202.70724    
  26224000   276.45564     -403.32116     -310.73257     -402.89208      0              2038.2424      31.216999      21.524542      33.38259       22430.818      1982.0679      2809.0787      1323.5806      300.6287       30.636541     -654.08161    
  26226000   273.41905     -404.90707     -313.33547     -404.35503      0              1682.6288      31.216999      21.524542      33.268409      22354.096      2305.9106      604.49065      2137.4851      96.227961      72.982382     -1506.9738    
  26228000   273.50417     -400.24779     -308.64768     -399.89741      0              2640.3062      31.216999      21.524542      33.383695      22431.56       1821.4022      1960.4297      4139.0867     -47.903797      1207.8807     -23.24026     
  26230000   273.69778     -403.14279     -311.47783     -402.89869      0              2827.8297      31.216999      21.524542      33.514629      22519.539      1335.6689      3680.2084      3467.6119      621.86399      610.96159     -660.90798    
  26232000   277.07295     -403.9128      -311.11746     -403.66602      0              410.10823      31.216999      21.524542      33.430666      22463.121     -81.366847      286.76968      1024.9219     -830.27086      601.18241     -190.50545    
  26234000   274.56551     -402.60054     -310.64497     -402.35461      0              2391.4391      31.216999      21.524542      33.469856      22489.454      816.12654      2120.5881      4237.6027     -1237.1664     -1039.2065      25.634078    
  26236000   274.09632     -406.48712     -314.68869     -405.98575      0              2962.0392      31.216999      21.524542      33.083131      22229.601      1540.5744      4568.5669      2776.9761      565.1436       948.06856      403.67598    
  26238000   275.10229     -404.55505     -312.41971     -404.05789      0              2752.7866      31.216999      21.524542      33.140606      22268.22       2429.0442      3161.0488      2668.2669      401.31146      2778.6994      494.05571    
  26240000   270.83275     -403.63959     -312.93417     -403.24002      0              2166.5257      31.216999      21.524542      33.586996      22568.164      517.52597      3196.3583      2785.6928     -207.83639      324.82474     -453.36266    
  26242000   283.00284     -402.7075      -307.92616     -402.40491      0              3400.6769      31.216999      21.524542      33.246899      22339.642      3301.4885      3465.7814      3434.7608     -1143.2092      1203.6624      397.05614    
  26244000   272.9497      -403.01477     -311.60036     -402.61378      0              2589.9551      31.216999      21.524542      33.351231      22409.746      2252.0685      2569.057       2948.7397      1721.5199      2240.8925      889.37104    
  26246000   273.84408     -400.80557     -309.09162     -400.61224      0              3350.0371      31.216999      21.524542      33.436541      22467.068      3980.1474      3136.0151      2933.9489      535.88663      9.9949389      1300.668     
  26248000   272.43629     -402.1257      -310.88323     -401.63631      0              2028.4998      31.216999      21.524542      33.410203      22449.371      1573.6553      2301.3696      2210.4744      1024.5019      954.83876     -960.4215     
  26250000   276.93561     -399.74904     -306.99969     -399.46178      0              4962.5263      31.216999      21.524542      33.400961      22443.161      3663.8869      5855.6785      5368.0136      2432.0785     -325.16184     -595.30746    
  26252000   273.27688     -403.96639     -312.4424      -403.72805      0              1564.2978      31.216999      21.524542      33.387223      22433.931      1117.9767      3258.3076      316.60916     -356.44193     -61.971869      614.61714    
  26254000   278.81325     -404.29318     -310.91499     -403.81277      0              4023.3603      31.216999      21.524542      33.634955      22600.39       2712.2101      4341.6794      5016.1913      908.54401      704.59576      101.72496    
  26256000   274.29504     -399.13753     -307.27255     -398.70364      0              3330.6498      31.216999      21.524542      33.50856       22515.461      2726.9315      3938.1284      3326.8893      988.14072      107.65705      1555.079     
  26258000   274.02907     -404.43161     -312.6557      -404.14702      0              2466.7056      31.216999      21.524542      33.479595      22495.998      1943.6808      1173.872       4282.564      -498.34918      157.36382      540.08056    
  26260000   270.84743     -405.82663     -315.11629     -405.38994      0              5163.7163      31.216999      21.524542      33.633523      22599.427      5382.35        4682.5295      5426.2693      267.51711      247.98566      1735.1727    
  26262000   276.36971     -402.46547     -309.90565     -402.07217      0              967.80636      31.216999      21.524542      33.582937      22565.437      821.75819      3405.6961     -1324.0352      1221.9365     -498.1449       146.78316    
  26264000   272.84701     -402.96389     -311.58387     -402.58287      0              1889.5616      31.216999      21.524542      33.384076      22431.816      2551.8148      2040.3119      1076.5582     -1316.8564     -1010.7719     -141.19775    
  26266000   271.30688     -403.63329     -312.76908     -403.26133      0              3674.5693      31.216999      21.524542      33.32533       22392.342      3047.2696      2247.203       5729.2352     -285.52061     -795.4118       1124.9071    
  26268000   274.04997     -404.96855     -313.18565     -404.61406      0              2689.9712      31.216999      21.524542      33.438464      22468.361      2064.6641      3768.6227      2236.6268      873.84476     -828.40977     -373.14798    
  26270000   274.62818     -402.93962     -310.96307     -402.61997      0              2739.3253      31.216999      21.524542      33.462727      22484.664      2870.8269      2400.8387      2946.3103     -1122.5634      1412.6186     -680.1021     
  26272000   276.16408     -400.69426     -308.20331     -400.4232       0              2835.2294      31.216999      21.524542      33.551453      22544.282      3918.6906      2956.1083      1630.8893     -167.79832      1142.5637     -892.02088    
  26274000   287.28952     -402.52641     -306.30941     -402.28113      0              2876.9599      31.216999      21.524542      33.438533      22468.407      1745.1952      2075.4762      4810.2084      1119.2932      253.31364     -827.78504    
  26276000   272.06215     -399.41851     -308.30135     -399.22141      0              4318.8143      31.216999      21.524542      33.544812      22539.82       3395.1616      5839.3676      3721.9137     -162.21753     -312.66055      570.40285    
  26278000   272.01916     -401.09489     -309.99213     -400.94843      0              2645.6314      31.216999      21.524542      33.554321      22546.209      2134.4243      2837.4953      2964.9747      817.90622      173.73455     -75.777752    
  26280000   286.18971     -402.50789     -306.65923     -402.21153      0              3012.3076      31.216999      21.524542      33.392289      22437.334      1867.878       4042.5611      3126.4836     -1189.6765      2776.4451     -598.81511    
  26282000   281.30465     -400.89586     -306.68326     -400.71923      0              2107.3701      31.216999      21.524542      33.49366       22505.449      693.51763      4405.3991      1223.1936     -522.22459      830.24834     -176.74313    
  26284000   280.61378     -401.74755     -307.76634     -401.57228      0              2695.7268      31.216999      21.524542      33.509899      22516.36       1640.7016      3170.0466      3276.4323     -722.29735      728.52087     -384.65837    
  26286000   271.38954     -403.17282     -312.28092     -403.00891      0              4167.1099      31.216999      21.524542      33.396476      22440.148      6366.3892      4763.7165      1371.2239      409.0278      -784.35847     -265.95166    
  26288000   269.89146     -405.79511     -315.40494     -405.5724       0              3160.4354      31.216999      21.524542      33.514594      22519.515      2669.1203      4147.3284      2664.8576      74.101712     -1183.0362      561.7266     
  26290000   276.42895     -402.97936     -310.3997      -402.78866      0              3432.3559      31.216999      21.524542      33.373152      22424.476      3439.7332      4754.11        2103.2245     -1142.3652     -1103.2068     -108.84725    
  26292000   275.46972     -402.09887     -309.84047     -401.75304      0              2405.8194      31.216999      21.524542      33.362023      22416.997      2272.3838      2573.4286      2371.6458      829.01406     -117.43297     -67.926217    
  26294000   275.8983      -402.63904     -310.2371      -402.30726      0              3292.6801      31.216999      21.524542      33.336438      22399.806      2514.7569      3861.4441      3501.8393     -992.39887     -431.85915      270.39941    
  26296000   277.67529     -402.76233     -309.76526     -402.46182      0              5083.146       31.216999      21.524542      33.202729      22309.963      4263.3549      6601.2991      4384.784       517.28434      450.06734     -956.06699    
  26298000   270.58168     -403.81615     -313.19482     -403.52996      0              3184.7747      31.216999      21.524542      33.495837      22506.912      2615.5535      4863.7924      2074.9783      443.8467      -623.00943     -230.75672    
  26300000   269.29649     -399.60833     -309.41743     -399.3617       0              1767.3478      31.216999      21.524542      33.38563       22432.86       3180.8003      679.33511      1441.9081      1917.9116     -965.99188     -1552.7666    
  26302000   278.37304     -404.70315     -311.47239     -404.47375      0              1597.4527      31.216999      21.524542      33.375471      22426.034      586.35302      2385.7154      1820.2896     -122.22222      1230.8448     -788.31929    
  26304000   276.95201     -403.82973     -311.07489     -403.70076      0              2956.326       31.216999      21.524542      33.4973        22507.895      3041.4107      2683.3885      3144.1786      366.86579     -264.57271      269.5612     
  26306000   278.50986     -401.83171     -308.55513     -401.69133      0              2618.6343      31.216999      21.524542      33.302775      22377.187      1437.9167      2460.5019      3957.4843      1477.9712     -102.92417     -253.96553    
  26308000   278.63981     -403.84928     -310.52917     -403.72025      0              4625.1279      31.216999      21.524542      33.589938      22570.141      3515.7086      5695.3324      4664.3428     -1197.7522     -98.280855      161.27656    
  26310000   273.96625     -398.75188     -306.99701     -398.63235      0              1934.6622      31.216999      21.524542      33.458689      22481.95       347.59226      1438.7084      4017.686       982.63491      753.43886     -107.35688    
  26312000   276.18314     -401.11382     -308.61649     -401.00436      0              3561.9246      31.216999      21.524542      33.295758      22372.472      1600.8099      3248.1527      5836.8111     -347.39947     -447.65168      525.82125    
  26314000   277.51226     -398.11469     -305.17222     -397.99615      0              2377.1385      31.216999      21.524542      33.420357      22456.194      858.93143      2546.6604      3725.8235     -1437.5839      999.66861      1078.0776    
  26316000   272.98399     -399.08172     -307.65582     -398.99376      0              2326.012       31.216999      21.524542      33.462367      22484.422      1605.3692      3993.648       1379.0187      672.79728      709.63709      304.27275    
  26318000   276.33227     -401.95309     -309.40581     -401.85554      0              2403.436       31.216999      21.524542      33.462951      22484.814      2526.4965      3820.7382      863.07313     -210.64059     -508.06249      133.41657    
  26320000   281.02072     -401.86014     -307.74264     -401.76493      0              600.4506       31.216999      21.524542      33.73896       22670.274      74.357422      135.31887      1591.6755     -1066.1321     -295.18555      566.86817    
  26322000   272.66717     -401.22646     -309.90667     -401.13295      0              3424.5795      31.216999      21.524542      33.542567      22538.311      2076.4894      4311.1539      3886.0953     -623.0589      -68.605687      1518.8599    
  26324000   270.76939     -400.65586     -309.97166     -400.58041      0              3078.8858      31.216999      21.524542      33.726849      22662.136      1414.639       3559.1608      4262.8576     -148.97225      910.95106     -335.55047    
  26326000   275.25803     -401.65675     -309.46925     -401.59781      0              3159.8698      31.216999      21.524542      33.564725      22553.199      3983.2212      2291.1011      3205.287       694.08193     -209.95882     -228.38008    
  26328000   275.76548     -400.73976     -308.38231     -400.6624       0              1767.5122      31.216999      21.524542      33.887321      22769.962      590.91011      2923.6035      1788.0231     -61.065937     -1541.2857      596.98502    
  26330000   273.84758     -396.64844     -304.93332     -396.59085      0              2570.9477      31.216999      21.524542      33.580646      22563.898      4333.4089      680.17142      2699.2626     -284.71311     -402.70567      1739.9937    
  26332000   278.91399     -397.69206     -304.28013     -397.6319       0              5567.5528      31.216999      21.524542      33.566952      22554.696      4840.5854      5655.0604      6207.0124      709.73919      1538.6099      776.95237    
  26334000   277.36645     -397.22253     -304.32889     -397.17975      0              3308.8655      31.216999      21.524542      33.541581      22537.648      2427.4514      2667.7536      4831.3915     -595.36055      1541.8151     -967.39192    
  26336000   281.51284     -398.67425     -304.39193     -398.63542      0              2212.6729      31.216999      21.524542      33.632274      22598.588      2495.7054      2634.7837      1507.5296      810.82745      212.71761      384.12487    
  26338000   271.01319     -400.23982     -309.47397     -400.20481      0              1623.4322      31.216999      21.524542      33.617307      22588.531      2490.3189      143.54297      2236.4347      331.12442      490.93894      298.44669    
  26340000   279.44819     -397.83345     -304.24261     -397.8001       0              2047.2539      31.216999      21.524542      33.459073      22482.208      1521.103       2461.1442      2159.5144      1386.0585      1231.2836     -213.13702    
  26342000   279.38865     -401.42863     -307.85773     -401.41019      0              3477.1354      31.216999      21.524542      33.091648      22235.324      3637.5932      3020.5766      3773.2363      23.818938      266.52412      1042.5922    
  26344000   269.25881     -402.05277     -311.87448     -402.02828      0              3199.831       31.216999      21.524542      33.652593      22612.241      5105.7467      1931.1197      2562.6266     -70.3555        286.46311      712.63154    
  26346000   271.64787     -402.07445     -311.09604     -402.05225      0              3764.62        31.216999      21.524542      33.326756      22393.301      3526.0763      5929.5533      1838.2304     -1243.7357      46.191828     -101.56259    
  26348000   266.74914     -400.35654     -311.01878     -400.35929      0              2484.8586      31.216999      21.524542      33.407415      22447.498      3389.9322      3385.0961      679.54738      958.36332     -747.12031     -1040.424     
  26350000   268.08372     -397.41494     -307.63021     -397.39737      0              3677.91        31.216999      21.524542      33.813897      22720.626      2428.7275      4116.8703      4488.1323     -243.58355      1211.7125     -353.13579    
  26352000   277.82764     -398.21978     -305.17168     -398.19028      0              4484.5078      31.216999      21.524542      33.517926      22521.754      5318.9916      2353.0937      5781.438      -1854.2855     -818.20809      1986.4612    
  26354000   276.76411     -397.39941     -304.7075      -397.40065      0              4146.352       31.216999      21.524542      33.607796      22582.14       3882.9054      5020.136       3536.0145      966.29814      1741.3394      1383.9828    
  26356000   275.97906     -397.91476     -305.48577     -397.9181       0              4016.4769      31.216999      21.524542      33.549481      22542.957      4169.7237      1647.7494      6231.9575     -284.39551      846.0996       371.09387    
  26358000   272.04779     -400.11012     -308.99777     -400.12605      0              2949.3672      31.216999      21.524542      33.63493       22600.373      746.19045      3589.2528      4512.6583     -851.37152     -1371.453       1633.6536    
  26360000   278.58181     -399.89818     -306.5975      -399.89861      0              3613.0371      31.216999      21.524542      33.609736      22583.444      2803.4449      4399.5346      3636.1317     -936.65339      942.73749      1629.2928    
  26362000   274.18838     -400.02133     -308.19206     -400.04818      0              2510.9594      31.216999      21.524542      34.011997      22853.736      1070.4073      2681.7205      3780.7504     -940.5999       1390.4812      78.934084    
  26364000   278.68845     -398.70346     -305.36706     -398.72038      0              3366.3925      31.216999      21.524542      33.823857      22727.318      1138.4605      4091.5313      4869.1857      356.90063     -57.488646      1783.3191    
  26366000   278.35401     -397.40043     -304.17605     -397.4041       0              4838.1596      31.216999      21.524542      33.814621      22721.113      4284.6769      5532.7984      4697.0036     -1252.9398      392.62948     -966.58387    
  26368000   278.63743     -399.90734     -306.58803     -399.94037      0              2750.3273      31.216999      21.524542      34.023265      22861.307      3453.725       3648.7835      1148.4736      694.89956     -752.25128      866.49577    
  26370000   273.50214     -397.20002     -305.60059     -397.23536      0              3427.6975      31.216999      21.524542      34.059613      22885.731      1511.8305      6652.6654      2118.5966      2066.9744     -1459.3736     -436.04147    
  26372000   278.28019     -400.84107     -307.64141     -400.93287      0              2373.7737      31.216999      21.524542      33.719514      22657.207      1807.836       3945.2187      1368.2664      543.41077     -807.09413      1753.9283    
  26374000   275.52341     -398.46165     -306.18527     -398.45173      0              3597.9788      31.216999      21.524542      33.797763      22709.785      4910.9325      4071.2383      1811.7656     -761.43305     -474.91034      1049.2377    
  26376000   281.54235     -398.81927     -304.52706     -398.81262      0              2371.4616      31.216999      21.524542      33.787985      22703.215      1453.6883      3669.7921      1990.9045     -775.31115     -222.35992      257.63974    
  26378000   280.03235     -400.86933     -307.08284     -400.82903      0              2443.7159      31.216999      21.524542      33.751407      22678.637      1406.6465      2350.0288      3574.4724     -159.76692      791.34654     -1591.9853    
  26380000   263.38501     -400.23543     -312.02436     -400.22546      0              2266.0025      31.216999      21.524542      33.646176      22607.929      3659.2183      2327.1732      811.61591      179.64224     -801.04218     -1128.8622    
  26382000   273.13164     -398.37595     -306.9006      -398.37067      0              4485.9532      31.216999      21.524542      33.702129      22645.526      5120.4505      4176.0336      4161.3756      545.88754     -904.64895     -265.63379    
  26384000   270.72932     -399.93364     -309.26286     -399.98294      0              805.27506      31.216999      21.524542      33.760816      22684.959     -650.30954      143.5451       2922.5896      537.87956      523.45228      1103.3573    
  26386000   273.94306     -398.48788     -306.74078     -398.51423      0              2598.8751      31.216999      21.524542      33.784719      22701.021      2113.1378      2176.4294      3507.0581     -1205.8112     -27.415426     -334.79199    
  26388000   278.23298     -404.16486     -310.981       -404.19994      0              3266.4292      31.216999      21.524542      33.713684      22653.29       3742.1934      3449.793       2607.3013      800.18737      757.40766     -483.97388    
  26390000   267.63373     -402.36988     -312.73586     -402.37689      0              4172.5075      31.216999      21.524542      33.729096      22663.646      5636.8129      4671.8502      2208.8593     -644.65402     -580.10895     -433.79709    
  26392000   277.34718     -402.15582     -309.26863     -402.15169      0              4353.5344      31.216999      21.524542      33.806853      22715.893      3971.8854      4322.2574      4766.4603      364.66517     -832.81237      622.70088    
  26394000   274.0466      -401.51045     -309.72867     -401.49944      0              341.28058      31.216999      21.524542      33.589628      22569.933      1380.0068      123.28641     -479.45151     -596.9487      -687.32188     -1572.6474    
  26396000   273.02728     -401.13394     -309.69355     -401.15104      0              1207.6563      31.216999      21.524542      33.756625      22682.143      786.65542      1585.6096      1250.7038      316.70033      1795.8033      171.70442    
  26398000   277.64634     -400.87586     -307.88848     -400.88882      0              2569.5832      31.216999      21.524542      33.77133       22692.024      217.49588      3301.5579      4189.6957     -58.169352     -837.14926      94.148202    
  26400000   268.45297     -401.27348     -311.36508     -401.30162      0              2698.7532      31.216999      21.524542      33.622769      22592.201      2220.9043      3739.2092      2136.1462     -806.08587      1103.8864      208.94659    
  26402000   269.7722      -398.33414     -307.98391     -398.36393      0             -5.5378854      31.216999      21.524542      33.758518      22683.415     -887.8241       687.82404      183.3864      -687.67919      17.573925     -1626.4121    
  26404000   269.85765     -400.85951     -310.48066     -400.904        0              2666.4036      31.216999      21.524542      33.550489      22543.634      1501.7758      1382.2419      5115.1931     -1121.8413     -488.04151     -196.10127    
  26406000   280.61891     -398.70117     -304.71824     -398.70521      0              2866.9733      31.216999      21.524542      33.611128      22584.379      623.22307      3490.8009      4486.8958      460.20545     -410.71628      1381.811     
  26408000   275.86156     -397.47408     -305.08444     -397.47109      0              4358.6964      31.216999      21.524542      33.456418      22480.425      2732.9501      5711.8875      4631.2516     -407.83973     -1125.4164     -1478.8569    
  26410000   274.12205     -398.56458     -306.75753     -398.61057      0              1767.9405      31.216999      21.524542      33.730308      22664.46       584.74487      2908.0593      1811.0174      68.718995     -322.52551      1066.0915    
  26412000   277.13747     -399.04083     -306.22388     -399.04348      0              2774.7346      31.216999      21.524542      33.772087      22692.532      3244.2418      3493.8547      1586.1073      236.37338      1049.8794     -346.0236     
  26414000   268.28116     -397.5081      -307.65724     -397.52203      0              2764.8228      31.216999      21.524542      33.814948      22721.333      2591.4895      2681.5365      3021.4425     -380.54561     -531.5139      -68.584702    
  26416000   275.71339     -398.52863     -306.18862     -398.51671      0              2471.5551      31.216999      21.524542      33.621097      22591.077      2056.1407      2396.2793      2962.2452     -195.8791       580.96855      1528.9779    
  26418000   271.12258     -397.62549     -306.82301     -397.65774      0              2443.5543      31.216999      21.524542      33.697176      22642.197      3563.6699      3156.6164      610.3765       886.19301     -806.27641      54.81782     
  26420000   277.35274     -398.77202     -305.88297     -398.78142      0              2267.5378      31.216999      21.524542      33.615579      22587.37       1609.6421      2876.111       2316.8602     -9.1173152      1065.0908      1307.801     
  26422000   280.9527      -396.85497     -302.76024     -396.88653      0              2786.2686      31.216999      21.524542      33.630009      22597.066      134.07089      4421.4807      3803.2543      1086.5801     -197.85705      1237.9373    
  26424000   268.84034     -397.52532     -307.48719     -397.54236      0              3538.8948      31.216999      21.524542      33.442243      22470.9        4115.4262      3465.0804      3036.1778      584.05286     -490.93776     -562.60445    
  26426000   276.83341     -397.40521     -304.69009     -397.44816      0              1591.9783      31.216999      21.524542      33.603293      22579.115      1574.0537      3259.9437     -58.062543      940.37586     -1113.8136     -16.547469    
  26428000   273.88652     -397.74648     -306.01831     -397.76883      0              3456.519       31.216999      21.524542      33.720718      22658.016      4942.0435      3572.973       1854.5406      2378.5722     -1910.9377     -714.56197    
  26430000   279.48657     -400.73913     -307.13544     -400.79264      0              2211.1646      31.216999      21.524542      33.841485      22739.163      1273.6075      2732.4242      2627.462       760.81096      47.128275      1648.9801    
  26432000   283.13057     -399.7961      -304.97198     -399.89124      0              1467.7271      31.216999      21.524542      33.397971      22441.152      1126.3263      1277.0708      1999.7842      1201.4336      116.72882     -138.79851    
  26434000   277.84129     -398.32332     -305.27065     -398.35566      0              5392.6511      31.216999      21.524542      33.565811      22553.929      3429.5473      7339.0204      5409.3857     -616.682        157.17465     -284.23571    
  26436000   274.26298     -401.10286     -309.24861     -401.137        0              3194.216       31.216999      21.524542      33.5259        22527.112      3864.2436      2655.5738      3062.8305     -565.43397     -689.60551     -175.28778    
  26438000   268.26201     -399.23918     -309.39473     -399.29056      0              2501.8639      31.216999      21.524542      33.623113      22592.432      1106.8063      4537.9108      1860.8745      1233.4068      1068.5184      105.34488    
  26440000   267.79766     -400.32318     -310.63425     -400.36739      0              3542.7527      31.216999      21.524542      33.466597      22487.264      1955.9989      3810.4569      4861.8021     -6.5687034      3085.5537     -468.45643    
  26442000   275.89933     -400.33347     -307.93119     -400.35859      0              3964.956       31.216999      21.524542      33.421334      22456.851      2362.3577      3139.1464      6393.364      -215.24656     -198.55999     -89.442767    
  26444000   276.44405     -400.52958     -307.94487     -400.51149      0              3169.6176      31.216999      21.524542      33.431119      22463.426      3665.1562      3275.0522      2568.6444      2868.8602     -249.40068      2068.414     
  26446000   279.80444     -399.24029     -305.53013     -399.28359      0              2271.5651      31.216999      21.524542      33.591197      22570.987      1738.9292      2688.2611      2387.5049     -577.33053      753.25477      1604.7763    
  26448000   274.4748      -399.94189     -308.0167      -399.96066      0              3366.858       31.216999      21.524542      33.352371      22410.512      2945.104       3649.9557      3505.5142      43.740096     -657.93321     -341.06521    
  26450000   275.53714     -398.93512     -306.65415     -399.00198      0              1915.4244      31.216999      21.524542      33.342829      22404.1        921.52535      2283.5114      2541.2365      607.95738      703.10989     -313.90884    
  26452000   281.01122     -400.11221     -305.99788     -400.13827      0              4428.0516      31.216999      21.524542      33.396514      22440.173      4774.0328      3859.183       4650.9389     -198.3345       1406.1934      916.72351    
  26454000   282.88459     -398.95506     -304.21333     -398.98491      0              2756.7718      31.216999      21.524542      33.377382      22427.318      2040.4703      4090.4489      2139.3961     -784.42718     -339.82891     -701.11714    
  26456000   277.86956     -399.66712     -306.60498     -399.69455      0              2832.4601      31.216999      21.524542      33.504915      22513.011      1659.9722      3050.4172      3786.9908     -56.892693     -1268.3466     -1087.1925    
  26458000   272.66799     -399.86623     -308.54616     -399.80279      0              4299.5547      31.216999      21.524542      33.38884       22435.017      5384.2824      4958.8285      2555.5531     -480.80916     -1441.4349     -280.65511    
  26460000   271.66339     -396.15228     -305.16867     -396.19291      0              3367.678       31.216999      21.524542      33.606633      22581.359      4690.1867      572.79068      4840.0567     -2072.7735     -530.85115      1148.48      
  26462000   274.85028     -397.4643      -305.41336     -397.50737      0              3220.5201      31.216999      21.524542      33.722477      22659.198      2249.4902      3685.4937      3726.5762      1637.2812     -34.467452     -478.55113    
  26464000   279.82482     -399.30144     -305.58446     -399.29674      0              2122.3694      31.216999      21.524542      33.674346      22626.857      3086.4334      2341.5731      939.10178     -642.72295      413.4667       378.73501    
  26466000   271.02437     -398.86378     -308.09418     -398.80457      0              3795.1701      31.216999      21.524542      33.402182      22443.982      4117.8126      3139.9778      4127.7199      499.99862     -562.92368     -1007.2686    
  26468000   279.36652     -400.59318     -307.02969     -400.63005      0              4992.4476      31.216999      21.524542      33.708432      22649.761      5268.7122      5018.4925      4690.1381      207.549        1067.3685     -690.24799    
  26470000   271.4848      -399.33607     -308.41227     -399.33773      0              3092.862       31.216999      21.524542      33.577947      22562.084      1866.503       2490.5238      4921.5593      1040.5361     -342.13354      550.58014    
  26472000   279.95876     -399.74951     -305.98767     -399.76191      0              3359.8664      31.216999      21.524542      33.624537      22593.389      3571.1802      1721.8195      4786.5997     -429.54719      1154.5435      1320.9368    
  26474000   275.619       -401.01962     -308.71122     -400.99493      0              2395.4748      31.216999      21.524542      33.500385      22509.968      1185.9168      2077.674       3922.8336      1852.3355     -313.61349      1249.8681    
  26476000   273.59611     -397.5483      -305.91739     -397.54716      0              2188.4551      31.216999      21.524542      33.448927      22475.391      2590.2489      1307.7361      2667.3803      1161.2352     -1318.7243     -939.58381    
  26478000   274.91812     -397.60803     -305.53436     -397.5965       0              1973.6192      31.216999      21.524542      33.695693      22641.201      2879.9692      1965.2104      1075.6779     -149.78518      384.2012      -183.08295    
  26480000   278.84286     -400.50221     -307.11411     -400.48756      0              484.03162      31.216999      21.524542      33.601524      22577.926     -1201.9065      31.700093      2622.3013      518.18341      811.34188      353.54116    
  26482000   268.77159     -401.49214     -311.47703     -401.49511      0              3444.7042      31.216999      21.524542      33.60147       22577.89       3581.0554      3072.3297      3680.7276     -22.190784      1285.2381      785.25924    
  26484000   277.36764     -401.47201     -308.57797     -401.40273      0              3565.0905      31.216999      21.524542      33.612199      22585.099      4107.2959      3212.4077      3375.5678      1389.4299     -804.23568      433.47465    
  26486000   267.91197     -400.4539      -310.72669     -400.46861      0              2070.6837      31.216999      21.524542      33.396821      22440.379      1871.7703      4256.2472      84.033557     -405.02952      1158.0926     -1746.5964    
  26488000   271.86389     -398.3016      -307.25084     -398.36674      0              3987.0396      31.216999      21.524542      33.517632      22521.556      1815.0006      4839.537       5306.5812     -1113.6911      338.04349     -651.7863     
  26490000   281.07234     -398.77414     -304.63935     -398.81591      0              4440.3957      31.216999      21.524542      33.507661      22514.857      4952.3797      3991.3822      4377.4252      151.12095      318.32193      431.99951    
  26492000   277.92689     -400.13135     -307.05002     -400.17276      0              4048.2619      31.216999      21.524542      33.603143      22579.014      4340.1178      3228.9297      4575.7382     -74.363265      58.230155     -197.50093    
  26494000   273.20374     -397.78021     -306.28071     -397.8362       0              4256.0728      31.216999      21.524542      33.712074      22652.208      5409.1788      3110.3827      4248.6569      596.17519     -1392.0987      671.74598    
  26496000   274.74691     -399.27884     -307.26252     -399.31601      0              2399.1051      31.216999      21.524542      33.447512      22474.44       3046.2692      2843.1439      1307.9022     -655.04495      1146.4257      270.7444     
  26498000   270.54369     -400.59652     -309.98791     -400.66498      0              2187.5694      31.216999      21.524542      33.504501      22512.733      3982.4275      1588.7785      991.50228      984.45451     -1157.8591     -1136.6751    
  26500000   278.94383     -399.2071      -305.78518     -399.19323      0              3607.5651      31.216999      21.524542      33.438935      22468.678      4986.6975      3387.485       2448.5129     -924.63395     -273.19436      1687.0141    
  26502000   275.80859     -399.70242     -307.33052     -399.63026      0              2719.1119      31.216999      21.524542      33.471902      22490.829      3167.7789      2315.0325      2674.5241     -981.99591     -1389.6212      1389.8353    
  26504000   268.62316     -401.02798     -311.06258     -400.92214      0              1635.1283      31.216999      21.524542      33.267028      22353.167      1713.2722      643.05774      2549.055      -381.33477      1837.9878      1517.8075    
  26506000   275.23146     -399.50499     -307.32638     -399.47539      0              1053.2646      31.216999      21.524542      33.342013      22403.552      1052.433       352.04315      1755.3176      1240.5348     -859.59098      1730.432     
  26508000   279.10804     -397.45091     -303.97398     -397.41227      0              1637.7092      31.216999      21.524542      33.293128      22370.705      2002.1062      1810.5561      1100.4654     -1293.6667     -127.24726     -493.61767    
  26510000   273.95958     -399.88273     -308.1301      -399.82003      0              2773.4809      31.216999      21.524542      33.271617      22356.251      4070.5972      2080.7205      2169.1249     -386.66778      223.84651     -1448.6809    
  26512000   279.21818     -399.55331     -306.0395      -399.50425      0              3818.182       31.216999      21.524542      33.275121      22358.605      3801.6984      4579.0183      3073.8294     -1135.9759     -1252.5195     -753.79756    
  26514000   282.52847     -398.38497     -303.7625      -398.36398      0              3868.2928      31.216999      21.524542      33.321142      22389.528      4460.8349      3369.79        3774.2534      1338.7902      402.4784      -815.06955    
  26516000   273.60007     -398.9439      -307.31167     -398.95825      0              379.66111      31.216999      21.524542      33.650402      22610.768     -658.02635      3266.071      -1469.0614      621.53836     -568.95377      1570.8405    
  26518000   268.92613     -398.42497     -308.35811     -398.36154      0              2749.6924      31.216999      21.524542      33.346121      22406.313      2384.8251      2204.0789      3660.1734      1270.9803     -1698.4168     -121.9678     
  26520000   277.85659     -399.31496     -306.25717     -399.2776       0              3544.864       31.216999      21.524542      33.359861      22415.545      2280.9911      5440.7911      2912.8097      2669.4792      555.48161     -972.91842    
  26522000   276.75755     -402.58602     -309.89631     -402.53156      0              1083.6833      31.216999      21.524542      33.432581      22464.408      368.57172      1053.3703      1829.108      -694.30764      643.61972     -114.17886    
  26524000   282.52912     -400.97387     -306.35119     -400.93589      0              1646.0806      31.216999      21.524542      33.443516      22471.756      1179.7835      2089.4515      1669.0068      1121.8244     -588.31111      785.61611    
  26526000   274.62927     -402.57775     -310.60082     -402.51135      0              3761.7668      31.216999      21.524542      33.121822      22255.599      5474.7988      3212.7929      2597.7086     -1603.5689      76.630354     -1924.6277    
  26528000   276.81472     -399.61172     -306.90286     -399.55956      0              2677.5692      31.216999      21.524542      33.239809      22334.878      2645.914       3304.7629      2082.0308     -1135.6889     -676.04913     -745.44836    
  26530000   279.31278     -400.01109     -306.4656      -399.96396      0              956.41589      31.216999      21.524542      33.35879       22414.825      1649.077       843.02013      377.15048      163.79951      892.27844     -2189.1244    
  26532000   287.31147     -400.01935     -303.79499     -399.95812      0              1497.5265      31.216999      21.524542      33.354182      22411.729      1373.2645      1459.7915      1659.5234      3.7333979     -219.85087      87.522505    
  26534000   275.41292     -398.17336     -305.93398     -398.06142      0              3661.6902      31.216999      21.524542      33.052507      22209.024      4611.1368      2815.4561      3558.4779      128.10991      135.58973     -168.09716    
  26536000   269.42401     -400.38682     -310.15321     -400.32129      0              2026.0254      31.216999      21.524542      33.239547      22334.702      2633.3673      1317.5131      2127.1956     -727.31991     -273.0465      -1528.8614    
  26538000   275.49355     -399.4569      -307.19052     -399.37573      0              2408.2069      31.216999      21.524542      33.278824      22361.094      2590.0579      3701.6878      932.87501      186.947       -599.74939     -336.45982    
  26540000   270.34318     -399.72799     -309.18653     -399.62888      0              2818.1564      31.216999      21.524542      33.259372      22348.023      1563.5196      4103.9197      2787.0299     -1007.6627     -257.52727      890.71243    
  26542000   274.49952     -402.16849     -310.23502     -402.10513      0              3535.1877      31.216999      21.524542      33.189231      22300.894      3961.1747      5714.81        929.5785       959.11867     -812.04395     -885.6276     
  26544000   276.33433     -400.90724     -308.35927     -400.81628      0              3965.1475      31.216999      21.524542      33.353696      22411.402      3751.4463      4053.5571      4090.4389     -1127.7791     -636.38816      636.92967    
  26546000   276.65898     -399.0571      -306.4004      -398.97         0              3715.3556      31.216999      21.524542      33.278645      22360.973      4862.4985      4954.2667      1329.3016      838.7455       184.02159      589.41113    
  26548000   271.6335      -396.33833     -305.36473     -396.28213      0              3839.1051      31.216999      21.524542      33.322436      22390.398      3526.926       5966.9245      2023.4648      1881.8008     -1285.7851     -511.50818    
  26550000   272.60483     -400.08384     -308.78493     -400.02214      0              5075.8668      31.216999      21.524542      33.316226      22386.225      4854.3978      4724.4373      5648.7651     -69.843814      44.576852      211.17292    
  26552000   273.35089     -402.76181     -311.21304     -402.73075      0              1475.6008      31.216999      21.524542      33.458561      22481.865      1958.6475      2296.2946      171.86038      326.84074      557.491       -326.24454    
  26554000   275.64072     -398.25221     -305.93654     -398.20951      0              3715.1535      31.216999      21.524542      33.274168      22357.965      4430.8788      3432.7589      3281.8228      1066.7044     -882.82367     -1020.264     
  26556000   271.53268     -400.89839     -309.95856     -400.842        0              3750.0814      31.216999      21.524542      33.249084      22341.11       2337.7286      5373.7433      3538.7722     -559.89823     -1162.4232     -964.68471    
  26558000   269.43494     -399.75724     -309.51996     -399.7001       0              3649.791       31.216999      21.524542      33.434916      22465.977      4092.097       4609.6361      2247.6399      1630.6645      663.74899      819.67848    
  26560000   278.64234     -400.07784     -306.75689     -400.02075      0              3472.7312      31.216999      21.524542      33.607566      22581.986      4193.2279      2650.5026      3574.463      -111.18391     -1599.4432     -1904.5219    
  26562000   269.97172     -397.62578     -307.20874     -397.60064      0              809.26791      31.216999      21.524542      33.487582      22501.365      767.53567      529.248        1131.0201      584.04658      444.10405     -1126.4173    
  26564000   273.21286     -401.10779     -309.60524     -401.05538      0              1746.9317      31.216999      21.524542      33.403029      22444.551      1236.7997      871.23485      3132.7604     -197.59324      1746.9614      62.546092    
  26566000   276.6777      -398.59955     -305.93658     -398.65559      0              2881.0484      31.216999      21.524542      33.325801      22392.659      1285.6519      3743.2737      3614.2197     -553.21603     -587.4849      -287.0824     
  26568000   275.516       -399.48618     -307.21228     -399.47133      0              4934.899       31.216999      21.524542      33.24461       22338.104      6243.7938      4392.1465      4168.7567     -892.9243       1031.0733     -251.83817    
[...]
  28006000   278.60443     -400.78991     -307.48166     -400.79824      0              3255.7796      31.216999      21.524542      33.433441      22464.985      4088.8638      2887.345       2791.1301      632.48967     -1076.2438     -1984.8402    
  28008000   283.96094     -402.18056     -307.07834     -402.06524      0              3402.0716      31.216999      21.524542      33.300342      22375.552      4637.2561      3256.6569      2312.3016     -130.90425      1541.3974      773.99679    
  28010000   280.2511      -401.91336     -308.05361     -401.87667      0              4769.5368      31.216999      21.524542      33.357283      22413.813      4628.3277      3758.5078      5921.7749     -199.8183      -368.38401      1896.8569    
  28012000   275.97323     -401.03048     -308.60345     -401.00252      0              3230.9737      31.216999      21.524542      33.567285      22554.92       3779.8842      4665.6066      1247.4305      832.30933      418.54834     -692.67893    
  28014000   276.36998     -400.42503     -307.86512     -400.40055      0              3240.4972      31.216999      21.524542      33.401042      22443.216      4371.7079      3290.2526      2059.5313     -551.34178      499.274       -1109.3489    
  28016000   267.57188     -399.89458     -310.28127     -399.94981      0              2330.8223      31.216999      21.524542      33.325867      22392.703      2588.1187      1940.9805      2463.3675     -581.8471       235.46018     -121.93121    
  28018000   274.64424     -400.69961     -308.71767     -400.66867      0              971.27281      31.216999      21.524542      33.608676      22582.732     -930.22235      2600.1699      1243.8709     -372.31753      1227.3446      927.57411    
  28020000   280.14351     -402.42283     -308.59912     -402.37267      0              2270.0472      31.216999      21.524542      33.313209      22384.198      2366.9114      3932.6991      510.53108     -824.48755      170.03693      785.34194    
  28022000   274.94114     -401.38631     -309.30494     -401.37703      0              5152.4366      31.216999      21.524542      33.56654       22554.419      7416.0225      3356.2854      4685.0018     -453.53045     -2832.3458     -369.49472    
  28024000   284.74768     -403.29249     -307.92678     -403.20923      0              5295.6644      31.216999      21.524542      33.654488      22613.514      3335.8361      7233.3455      5317.8115     -460.12161      575.17403      72.762645    
  28026000   274.00073     -401.24506     -309.47864     -401.16904      0              4151.1574      31.216999      21.524542      33.59056       22570.559      3648.2137      5182.8157      3622.4426     -1248.9098     -1657.8062     -401.16729    
  28028000   271.23694     -402.12539     -311.2846      -402.06315      0              4896.3052      31.216999      21.524542      33.409088      22448.622      4440.9406      5510.8918      4737.0832      121.65125     -82.525134     -294.34413    
  28030000   276.06988     -399.1595      -306.7001      -399.03827      0              2592.6383      31.216999      21.524542      33.500286      22509.901      1819.2544      2390.3906      3568.2698      488.23165     -866.63677     -880.85236    
  28032000   274.93748     -398.39899     -306.31885     -398.40915      0              2299.8423      31.216999      21.524542      33.628549      22596.085      997.10049      3685.7779      2216.6486      670.99808      147.07256     -1965.1623    
  28034000   271.9555      -402.25492     -311.17347     -402.15949      0              4091.7424      31.216999      21.524542      33.54222       22538.077      3330.2062      3717.5003      5227.5206     -166.66213     -591.35657     -1368.5321    
  28036000   277.66332     -400.73766     -307.7446      -400.6765       0              1590.6458      31.216999      21.524542      33.498029      22508.384      2524.8098     -233.46697      2480.5946      1278.0864     -1672.1257     -695.19295    
  28038000   270.6138      -400.08163     -309.44954     -400.01418      0              3075.7578      31.216999      21.524542      33.394841      22439.049      1160.9303      2672.9205      5393.4225      1158.5699     -984.80432      148.4721     
  28040000   275.663       -397.09773     -304.77459     -397.0943       0              2106.2856      31.216999      21.524542      33.540551      22536.956      3097.0055      1027.1065      2194.7448      331.2273      -519.62665      1056.5278    
  28042000   269.43187     -397.40203     -307.16578     -397.40669      0              3807.5799      31.216999      21.524542      33.274718      22358.335      3741.5035      3847.7813      3833.4549      765.55641      76.790233     -662.13675    
  28044000   279.05078     -397.90838     -304.45064     -397.84039      0              1103.2955      31.216999      21.524542      33.423135      22458.061      2120.985       1443.98       -255.07834      692.95595     -961.71188      573.29995    
  28046000   273.06744     -399.68012     -308.22628     -399.71408      0              1106.4876      31.216999      21.524542      33.497273      22507.877      538.87047     -98.551676      2879.1439      975.95894      1071.6709      1160.4942    
  28048000   276.58875     -399.84882     -307.21564     -399.81093      0              4350.6432      31.216999      21.524542      33.375811      22426.262      4018.1023      4057.7876      4976.0397      1062.3691     -29.805561      739.84378    
  28050000   277.42328     -399.45178     -306.5391      -399.42711      0              2998.9815      31.216999      21.524542      33.394296      22438.683      1836.4398      4803.3153      2357.1893      986.69082      27.633273      973.155      
  28052000   280.97699     -399.10473     -305.00187     -399.1143       0              2567.4802      31.216999      21.524542      33.351528      22409.946      3345.7012      2127.2979      2229.4416     -626.86707     -1178.3195      1685.2572    
  28054000   284.39849     -398.4915      -303.24274     -398.51737      0              2305.1319      31.216999      21.524542      33.658713      22616.353      1720.5432      3689.85        1505.0024      1632.259      -401.5204      -167.96322    
  28056000   281.89166     -400.1442      -305.73501     -400.09112      0              4545.691       31.216999      21.524542      33.400155      22442.62       5258.4605      4922.2924      3456.3202     -204.37007     -634.71755      1212.7536    
  28058000   266.48883     -402.41578     -313.16519     -402.3295       0              3899.6879      31.216999      21.524542      33.431203      22463.482      3212.6096      3638.7573      4847.6969     -2041.3356      1122.3062     -817.15712    
  28060000   282.34434     -402.27454     -307.71374     -402.19749      0              4168.2785      31.216999      21.524542      33.417227      22454.091      3664.3598      4271.6979      4568.7779      2268.3375      296.84214     -280.00684    
  28062000   268.14369     -401.47936     -311.67455     -401.43497      0              1332.4402      31.216999      21.524542      33.584842      22566.717      1658.4627     -80.862478      2419.7205     -553.75052     -1810.1108      3401.7248    
  28064000   276.18409     -401.94649     -309.44884     -401.83895      0              3354.6513      31.216999      21.524542      33.507241      22514.574      2004.2464      2957.5112      5102.1962      1418.5279     -1540.5689     -283.66358    
  28066000   271.41307     -402.45336     -311.55358     -402.32723      0              3338.881       31.216999      21.524542      33.778765      22697.02       3534.3504      3935.1056      2547.1872     -201.74032     -1329.0285     -1064.1777    
  28068000   270.84398     -399.13588     -308.42669     -399.07116      0              3809.0118      31.216999      21.524542      33.740713      22671.451      2168.0148      5390.1063      3868.9144     -1211.3928      35.631137      1244.5024    
  28070000   274.90459     -400.6488      -308.57967     -400.53536      0              1496.6212      31.216999      21.524542      33.630917      22597.676      2242.1798      1933.7252      313.95852     -1170.9147      269.27527     -55.151207    
  28072000   278.35253     -398.62527     -305.40138     -398.63271      0              3456.1635      31.216999      21.524542      33.84551       22741.868      3000.0087      4538.2536      2830.2282     -616.33912     -2368.4704      430.7095     
  28074000   275.30402     -399.94844     -307.74553     -399.97769      0              3096.7223      31.216999      21.524542      33.448369      22475.016      5465.4035      2065.8501      1758.9134     -140.97825     -429.75706      639.8987     
  28076000   273.10748     -399.16459     -307.69734     -399.08562      0              3506.8874      31.216999      21.524542      33.390266      22435.975      3182.7932      4433.1683      2904.7007     -1063.1146     -646.06509      215.18863    
  28078000   271.93932     -397.58898     -306.51296     -397.54852      0              2886.094       31.216999      21.524542      33.706196      22648.258      2539.2111      2933.6712      3185.3996      734.60052     -760.44804      742.23663    
  28080000   271.85161     -395.44969     -304.40304     -395.49006      0              3227.6936      31.216999      21.524542      33.628104      22595.786      4265.5424      2083.6521      3333.8863     -1073.4294     -969.68341     -238.02468    
  28082000   274.02096     -402.22143     -310.44824     -402.17277      0              4536.5446      31.216999      21.524542      33.432306      22464.223      6561.0207      3129.7698      3918.8433     -664.55645     -8.8567202     -19.059147    
  28084000   272.79729     -402.22465     -310.86128     -402.16351      0              4322.2659      31.216999      21.524542      33.383896      22431.695      3596.0905      5345.314       4025.3932     -1266.885       661.37787      784.57344    
  28086000   273.0517      -400.5715      -309.12292     -400.46089      0              2905.0096      31.216999      21.524542      33.514955      22519.757      3304.1396      1117.8933      4292.996      -1070.4265     -781.10511     -674.40225    
  28088000   283.45591     -401.82596     -306.89288     -401.75168      0              4397.843       31.216999      21.524542      33.538096      22535.306      2465.0374      5827.8568      4900.6347     -842.96746     -117.67904      74.575733    
  28090000   279.06208     -399.20664     -305.74511     -399.10038      0              1691.605       31.216999      21.524542      33.618107      22589.069     -422.15813      1852.007       3644.9662     -647.08695      201.76313      1457.6374    
  28092000   278.19049     -400.48425     -307.31463     -400.48284      0              3403.2449      31.216999      21.524542      33.700955      22644.737      3830.2774      4031.8004      2347.6568     -31.98364      -1178.1667      2342.4367    
  28094000   276.8063      -400.76227     -308.05623     -400.73174      0              1899.8017      31.216999      21.524542      33.634808      22600.291      694.02445      3495.9158      1509.4647      389.18121      512.61119     -693.8839     
  28096000   284.1424      -403.8189      -308.65591     -403.77991      0              4641.8578      31.216999      21.524542      33.670013      22623.946      5330.9074      3442.2306      5152.4354     -678.57281      740.08825     -1371.5016    
  28098000   279.98968     -403.65354     -309.88135     -403.6509       0              3290.4785      31.216999      21.524542      33.617377      22588.578      3891.6773      2821.6146      3158.1437      1839.7406     -859.05533      549.1606     
  28100000   270.48021     -401.2107      -310.62336     -401.2301       0              2330.1233      31.216999      21.524542      33.620485      22590.667      3504.941       1766.2424      1719.1865     -1.7713771     -951.02922     -2123.5059    
  28102000   277.59281     -400.83847     -307.86901     -400.71231      0              1079.049       31.216999      21.524542      33.542126      22538.014     -661.92725      3191.0521      708.02206     -291.26982     -251.78996     -594.40302    
  28104000   276.30987     -399.55592     -307.01614     -399.50169      0              1818.1509      31.216999      21.524542      33.401282      22443.377      2876.8966      497.03093      2080.5252     -1015.7629     -1478.3496      122.99182    
  28106000   270.4273      -402.15377     -311.58415     -402.06034      0              1224.5333      31.216999      21.524542      33.497751      22508.198      526.30262     -72.132795      3219.4302     -72.708589     -2046.8526      1710.4015    
  28108000   268.9414      -396.76775     -306.69577     -396.77684      0              4248.2274      31.216999      21.524542      33.685719      22634.499      3279.6543      6374.4005      3090.6276     -685.74511     -458.62735      265.93283    
  28110000   276.70565     -402.0657      -309.39337     -401.97624      0              3245.4287      31.216999      21.524542      33.562147      22551.468      4345.9229      3392.1694      1998.1937     -98.02958      -623.84467      963.86408    
  28112000   276.93314     -399.08252     -306.334       -399.02481      0              3492.3817      31.216999      21.524542      33.551627      22544.399      5028.2125      263.06675      5185.8657      827.79685     -262.19112      484.34951    
  28114000   278.07284     -399.43827     -306.30805     -399.44331      0              1123.6763      31.216999      21.524542      33.799777      22711.138      1545.5888      476.11483      1349.3253      477.37396      665.68975      629.90104    
  28116000   272.24236     -400.45622     -309.2787      -400.43146      0              2446.275       31.216999      21.524542      33.818754      22723.89       2930.2918      1666.4924      2742.0409      412.83172     -2635.1008     -518.9909     
  28118000   273.35408     -397.98066     -306.43082     -397.9549       0              2264.4483      31.216999      21.524542      33.713829      22653.387      1996.5713      3437.135       1359.6385     -1493.4868      448.56961      367.43702    
  28120000   281.90006     -402.31198     -307.89997     -402.25583      0              3102.4773      31.216999      21.524542      33.708261      22649.646      3323.0159      3804.0681      2180.3478      884.30369      1207.8613     -1441.1051    
  28122000   270.55689     -399.99743     -309.3844      -399.99473      0              2278.2709      31.216999      21.524542      33.675625      22627.717      1916.6072      2091.5657      2826.6397      263.65571      540.55185     -59.090997    
  28124000   267.60467     -401.86569     -312.2414      -401.78965      0              3205.2601      31.216999      21.524542      33.401165      22443.299      3007.5318      2555.2942      4052.9543     -196.98422     -503.66378      400.58619    
  28126000   274.9648      -401.63241     -309.54312     -401.60416      0              4034.0578      31.216999      21.524542      33.473905      22492.175      3944.4134      4487.6608      3670.0992      1193.2249     -1119.5879     -898.33892    
  28128000   281.38806     -399.69404     -305.45351     -399.61881      0              1652.6093      31.216999      21.524542      33.250375      22341.978      2040.0493      219.57597      2698.2028     -1534.5248     -136.0559      -1546.8386    
  28130000   275.57166     -403.74821     -311.45567     -403.70638      0              2510.2298      31.216999      21.524542      33.388456      22434.759      2044.2981      3089.6288      2396.7625      1323.6689     -113.98657     -1750.2774    
  28132000   275.08847     -402.10026     -309.96954     -402.04493      0              3084.1779      31.216999      21.524542      33.351615      22410.004      3863.2905      2909.6202      2479.6231      891.98097      387.01579      956.25571    
  28134000   279.54793     -399.7461      -306.12186     -399.76587      0              3204.8916      31.216999      21.524542      33.598026      22575.575      3708.1242      3465.6939      2440.8567     -127.60502      599.95802     -712.255      
  28136000   268.64553     -399.96881     -309.99592     -400.01177      0              2577.1704      31.216999      21.524542      33.507146      22514.51       1708.5289      836.92969      5186.0527     -744.47726      294.59679     -119.93589    
  28138000   279.32257     -399.0482      -305.49943     -399.07781      0             -1718.8652      31.216999      21.524542      33.738236      22669.787     -911.37137     -1370.7241     -2874.5002      264.02407     -831.55168      1257.4739    
  28140000   275.58656     -400.81247     -308.51494     -400.74714      0              3146.7698      31.216999      21.524542      33.367193      22420.472      1736.5401      4921.0166      2782.7527      1490.2071      419.4476      -1371.7407    
  28142000   275.0389      -398.28937     -306.17525     -398.30432      0              2028.7374      31.216999      21.524542      33.641784      22604.978      2776.4809      2194.7688      1114.9625     -163.37633      808.35927     -476.34714    
  28144000   276.2021      -399.19259     -306.68891     -399.19667      0              2981.5875      31.216999      21.524542      33.354204      22411.744      4289.9795      4533.7691      121.0139       188.37508     -1256.2018     -111.92754    
  28146000   282.64523     -398.28683     -303.62525     -398.29554      0              3572.3284      31.216999      21.524542      33.551657      22544.419      4471.8644      4027.6889      2217.4318     -1704.1194      19.875682     -1516.3699    
  28148000   274.59399     -397.6964      -305.73129     -397.74986      0              3993.0963      31.216999      21.524542      33.53251       22531.553      3098.0618      5419.4011      3461.8261     -1216.0375      605.65868     -952.91254    
  28150000   275.55741     -401.90029     -309.61252     -401.87624      0              4165.2199      31.216999      21.524542      33.342248      22403.71       1988.8548      6783.0934      3723.7114     -795.22461      1484.8076      1161.3869    
  28152000   281.46184     -402.41675     -308.15151     -402.41712      0              1809.9911      31.216999      21.524542      33.614451      22586.612      2481.9871      1252.3797      1695.6067     -433.56005      753.93617     -285.45967    
  28154000   271.07074     -397.13283     -306.34771     -397.21291      0              1828.8158      31.216999      21.524542      33.466174      22486.98       1558.6943      2269.1559      1658.5973      588.05449      409.92505      886.40514    
  28156000   277.9903      -400.78603     -307.68346     -400.77295      0              3873.9369      31.216999      21.524542      33.564786      22553.241      3296.2494      5194.6502      3130.911      -2352.3543      469.64265      199.84074    
  28158000   277.04637     -400.01575     -307.22931     -399.99525      0              2732.9701      31.216999      21.524542      33.533973      22532.536      2524.1436      3038.3426      2636.4242      1046.2148     -1244.8781     -1177.7283    
  28160000   267.31692     -398.6146      -309.08668     -398.54815      0              4775.8204      31.216999      21.524542      33.35156       22409.968      4613.6037      3753.7176      5960.14       -725.61073      307.94178      573.29812    
ERROR on proc 0: Cannot open restart file restart.lmp.0: Permission denied (../write_restart.cpp:233)
Last command: run             ${nsteps_enhanced_coex_upto} upto
