LAMMPS (23 Jun 2022)
include procedure.lmp
echo both
include		in.partitions
variable        pid world 0
include		in.temp
variable	temperature equal 275
variable        tempDamp equal 0.100 # this is 0.1 ps
include		in.pressure
variable        pressure equal 3039.75
variable        pressureDamp equal 1.0 #this is 1ps

variable	barostat string	   tri
variable	direction string   z
variable	direction_x_bool equal 0
variable	direction_y_bool equal 0
variable	direction_z_bool equal 1

include		in.seed
variable        seed world 745823

units           metal
atom_style	full
box tilt large
read_restart 	restart.lmp.${pid}
read_restart 	restart.lmp.0
Reading restart file ...
  restart file = 23 Jun 2022, LAMMPS = 23 Jun 2022
  restoring atom style full from restart
  triclinic box = (0 0 -0.86912684) to (31.216999 21.524542 32.664846) with tilt (-9.212092 0.77828592 -11.295012)
WARNING: Triclinic box skew is large (../domain.cpp:224)
  2 by 1 by 2 MPI processor grid
Summary of lammps deepmd module ...
  >>> Info of deepmd-kit:
  installed to:       /u/sigbjobo/software/DEEPMD_FROM_SOURCE/deepmd-kit/install
  source:             v2.1.3
  source branch:       master
  source commit:      5a32c49
  source commit at:   2022-07-01 09:52:58 +0800
  surpport model ver.:1.1 
  build float prec:   double
  build with tf inc:  /u/sigbjobo/software/DEEPMD_FROM_SOURCE/tensorflow/install/include;/u/sigbjobo/software/DEEPMD_FROM_SOURCE/tensorflow/install/include
  build with tf lib:  /u/sigbjobo/software/DEEPMD_FROM_SOURCE/tensorflow/install/lib/libtensorflow_cc.so;/u/sigbjobo/software/DEEPMD_FROM_SOURCE/tensorflow/install/lib/libtensorflow_framework.so
  set tf intra_op_parallelism_threads: 0
  set tf inter_op_parallelism_threads: 0
  >>> Info of lammps module:
  use deepmd-kit at:  /u/sigbjobo/software/DEEPMD_FROM_SOURCE/deepmd-kit/install
  source:             v2.1.3
  source branch:      master
  source commit:      5a32c49
  source commit at:   2022-07-01 09:52:58 +0800
  build float prec:   double
  build with tf inc:  /u/sigbjobo/software/DEEPMD_FROM_SOURCE/tensorflow/install/include;/u/sigbjobo/software/DEEPMD_FROM_SOURCE/tensorflow/install/include
  build with tf lib:  /u/sigbjobo/software/DEEPMD_FROM_SOURCE/tensorflow/install/lib/libtensorflow_cc.so;/u/sigbjobo/software/DEEPMD_FROM_SOURCE/tensorflow/install/lib/libtensorflow_framework.so
  restoring pair style deepmd from restart
  2592 atoms
Finding 1-2 1-3 1-4 neighbors ...
  special bond factors lj:    0        0        0       
  special bond factors coul:  0        0        0       
     0 = max # of 1-2 neighbors
     0 = max # of 1-3 neighbors
     0 = max # of 1-4 neighbors
     1 = max # of special neighbors
  special bonds CPU = 0.000 seconds
  read_restart CPU = 0.009 seconds
include 	in.setup
variable	out_freq equal 2000
variable	out_freq2 equal 2000

timestep        0.0005

neigh_modify    delay 7 every 1

include         in.deepmd
# This is deepMD model

# create groups ###
#group ox type 2
#group hy type 1

mass 2 15.999
mass 1 1.008

pair_style      deepmd ../graph.pb
pair_coeff      * *

bond_style      none
angle_style     none
dihedral_style  none
improper_style  none
neigh_modify exclude none


neighbor        2.0 bin
neigh_modify    every 50 delay 0 check no

thermo          ${out_freq}
thermo          2000
thermo_style 	custom step temp pe etotal epair emol press lx ly lz vol pxx pyy pzz pxy pxz pyz

restart 	${out_freq} restart.lmp.${pid} restart2.lmp.${pid}
restart 	2000 restart.lmp.${pid} restart2.lmp.${pid}
restart 	2000 restart.lmp.0 restart2.lmp.${pid}
restart 	2000 restart.lmp.0 restart2.lmp.0


timer           timeout 23:50:00 every 1000
New timer settings: style=normal  mode=nosync  timeout=23:50:00


# Set number of time steps
variable 	nsteps_wall		equal	 6000000
variable 	nsteps_enhanced_coex    equal	60000000

variable     nsteps_enhanced_coex_upto equal (${nsteps_wall}+${nsteps_enhanced_coex})
variable     nsteps_enhanced_coex_upto equal (6000000+${nsteps_enhanced_coex})
variable     nsteps_enhanced_coex_upto equal (6000000+60000000)


# Set temperature for first step
if "$(step) < 1  " then    "velocity 	all create ${temperature} ${seed} dist gaussian"


# Always run thermo and barostat


######################################
# Run simulation with wall potential #
######################################
if " $(step) < ${nsteps_wall} " then    "fix             3 all plumed plumedfile plumed.equil.dat outfile plumed.equil.out"   "fix             1 all nph ${direction} ${pressure} ${pressure} ${pressureDamp}"   "fix             2 all temp/csvr ${temperature} ${temperature} ${tempDamp} ${seed}"   "run             ${nsteps_wall} upto"
if " $(step) == ${nsteps_wall} " then    "unfix 3"   "unfix 1"   "unfix 2"


############################
# Run enhanced coesistence #
############################
if "$(step) == ${nsteps_wall}" then    "fix             3 all plumed plumedfile plumed.start.dat outfile plumed.out" else    "fix             3 all plumed plumedfile plumed.dat outfile plumed.out"
fix             3 all plumed plumedfile plumed.dat outfile plumed.out

if "$(step) < ${nsteps_enhanced_coex_upto} && $(step) >= ${nsteps_wall} " then    "include         in.dump"    "fix             1 all nph ${direction} ${pressure} ${pressure} ${pressureDamp}"   "fix             2 all temp/csvr ${temperature} ${temperature} ${tempDamp} ${seed}"   "run             ${nsteps_enhanced_coex_upto} upto"    "unfix 3"   "unfix 1"   "unfix 2"
include         in.dump
dump            myDump all atom ${out_freq2} dump.water.${pid}
dump            myDump all atom 2000 dump.water.${pid}
dump            myDump all atom 2000 dump.water.0
dump            myDump2 all dcd ${out_freq2} dump.${pid}.dcd
dump            myDump2 all dcd 2000 dump.${pid}.dcd
dump            myDump2 all dcd 2000 dump.0.dcd
dump_modify     myDump append yes
dump_modify     myDump2 append yes

fix             1 all nph ${direction} ${pressure} ${pressure} ${pressureDamp}
fix             1 all nph z ${pressure} ${pressure} ${pressureDamp}
fix             1 all nph z 3039.75 ${pressure} ${pressureDamp}
fix             1 all nph z 3039.75 3039.75 ${pressureDamp}
fix             1 all nph z 3039.75 3039.75 1
Resetting global fix info from restart file:
  fix style: nph, fix ID: 1
fix             2 all temp/csvr ${temperature} ${temperature} ${tempDamp} ${seed}
fix             2 all temp/csvr 275 ${temperature} ${tempDamp} ${seed}
fix             2 all temp/csvr 275 275 ${tempDamp} ${seed}
fix             2 all temp/csvr 275 275 0.1 ${seed}
fix             2 all temp/csvr 275 275 0.1 745823
Resetting global fix info from restart file:
  fix style: temp/csvr, fix ID: 2
run             ${nsteps_enhanced_coex_upto} upto
run             66000000 upto

CITE-CITE-CITE-CITE-CITE-CITE-CITE-CITE-CITE-CITE-CITE-CITE-CITE

Your simulation uses code contributions which should be cited:

- USER-DEEPMD package:

@article{Wang_ComputPhysCommun_2018_v228_p178,
  author = {Wang, Han and Zhang, Linfeng and Han, Jiequn and E, Weinan},
  doi = {10.1016/j.cpc.2018.03.016},
  url = {https://doi.org/10.1016/j.cpc.2018.03.016},
  year = 2018,
  month = {jul},
  publisher = {Elsevier {BV}},
  volume = 228,
  journal = {Comput. Phys. Commun.},
  title = {{DeePMD-kit: A deep learning package for many-body potential energy representation and molecular dynamics}},
  pages = {178--184}
}

CITE-CITE-CITE-CITE-CITE-CITE-CITE-CITE-CITE-CITE-CITE-CITE-CITE

Generated 0 of 1 mixed pair_coeff terms from geometric mixing rule
All restart file global fix info was re-assigned
Neighbor list info ...
  update every 50 steps, delay 0 steps, check no
  max neighbors/atom: 2000, page size: 100000
  master list distance cutoff = 8
  ghost atom cutoff = 8
  binsize = 4, bins = 11 9 9
  1 neighbor lists, perpetual/occasional/extra = 1 0 0
  (1) pair deepmd, perpetual
      attributes: full, newton on
      pair build: full/bin
      stencil: full/bin/3d
      bin: standard
Per MPI rank memory allocation (min/avg/max) = 7.303 | 7.304 | 7.305 Mbytes
   Step          Temp          PotEng         TotEng         E_pair         E_mol          Press            Lx             Ly             Lz           Volume          Pxx            Pyy            Pzz            Pxy            Pxz            Pyz      
  28158000   277.04637     -399.99525     -307.20881     -399.99525      0              2725.5615      31.216999      21.524542      33.533973      22532.536      2516.9321      3031.2239      2628.5285      1045.6998     -1244.5394     -1178.5017    
  28160000   267.65058     -398.68162     -309.04195     -398.61576      0              4685.0656      31.216999      21.524542      33.345695      22406.026      4237.7951      3860.1174      5957.2842     -434.93815      215.785        483.57602    
  28162000   269.65729     -400.16776     -309.85602     -400.10521      0              4120.3823      31.216999      21.524542      33.359949      22415.604      5918.8968      692.03916      5750.2109     -1116.7209     -1455.6647      587.71579    
  28164000   279.03962     -400.69772     -307.24371     -400.69293      0              1907.7917      31.216999      21.524542      33.610337      22583.848      2948.6404      915.74078      1858.9939     -196.07083     -940.30841     -1379.5722    
  28166000   271.4856      -401.19524     -310.27118     -401.1981       0              3240.7898      31.216999      21.524542      33.616883      22588.246      3584.9504      1959.7985      4177.6204     -608.09911     -47.344692      2193.3662    
  28168000   272.33764     -401.75043     -310.541       -401.67811      0              4697.472       31.216999      21.524542      33.660381      22617.474      3386.4127      4955.7301      5750.2733     -374.71308      39.406511     -123.32215    
  28170000   282.92874     -400.06552     -305.30899     -400.08489      0              1429.0639      31.216999      21.524542      33.94481       22808.591      125.6135       2532.8126      1628.7654     -415.26426     -1042.1071      422.00187    
  28172000   275.15682     -399.07883     -306.92523     -399.09853      0              1714.4079      31.216999      21.524542      33.813226      22720.175      2892.0322      2289.4905     -38.298981      0.68985656     1326.8232     -1523.6214    
  28174000   268.9185      -398.50186     -308.43755     -398.52494      0              2436.383       31.216999      21.524542      33.527129      22527.938      3787.4262      2541.85        979.87271     -1155.4643     -362.40358     -1941.3458    
  28176000   271.94076     -400.45141     -309.3749      -400.47501      0              2653.1226      31.216999      21.524542      33.642394      22605.388      2033.5856      3850.97        2074.8123     -108.53577     -886.30902      1240.0829    
  28178000   276.20975     -403.10404     -310.59779     -403.04091      0              1698.575       31.216999      21.524542      33.572707      22558.563      1556.4031      1706.5262      1832.7958      1036.9975      101.28714      147.26523    
  28180000   275.64201     -400.13836     -307.82225     -400.11879      0              2721.248       31.216999      21.524542      33.652211      22611.984      1660.9237      3752.1605      2750.6598     -837.34166      1070.2944     -1514.3045    
  28182000   273.70915     -401.1236      -309.45484     -401.09183      0              4140.9444      31.216999      21.524542      33.457133      22480.905      2861.626       3740.8395      5820.3676     -892.04976      1383.6894      42.178475    
  28184000   277.36058     -402.9701      -310.07843     -402.92386      0             -168.84147      31.216999      21.524542      33.658879      22616.464     -261.35194     -1276.3853      1031.2128      456.09372     -208.0929      -7.3083281    
  28186000   277.06754     -399.44549     -306.65196     -399.43641      0              2707.3809      31.216999      21.524542      33.701244      22644.931      3736.7813      3002.4142      1382.9473     -319.56247     -1304.8305     -940.15735    
  28188000   277.57829     -400.09163     -307.12704     -400.09027      0              3913.605       31.216999      21.524542      33.669189      22623.392      3584.3889      3726.1042      4430.322       108.65746     -1079.9745     -823.82067    
  28190000   270.29898     -401.04194     -310.51529     -401.01473      0              3531.3004      31.216999      21.524542      33.586865      22568.076      1940.0895      4718.3051      3935.5065     -214.88707      144.72773      601.12204    
  28192000   277.63368     -403.30066     -310.31752     -403.22641      0              2643.8674      31.216999      21.524542      33.700106      22644.166      1341.7857      4643.8189      1945.9976     -132.26497     -787.68649     -43.745907    
  28194000   279.04069     -401.22353     -307.76917     -401.10646      0              3889.0845      31.216999      21.524542      33.534851      22533.126      2047.3257      4083.2594      5536.6684      745.88696      350.41621      416.42074    
  28196000   278.411       -401.2961      -308.05262     -401.22972      0              2252.2659      31.216999      21.524542      33.677906      22629.25       667.48298      4282.331       1806.9839     -988.57578     -56.170658     -157.42096    
  28198000   271.58128     -398.31031     -307.3542      -398.30828      0              1724.3889      31.216999      21.524542      33.578868      22562.703      1205.0981      1879.2884      2088.7801      1120.1843     -226.17013     -175.26244    
  28200000   283.11627     -400.34387     -305.52454     -400.3188       0              3663.4337      31.216999      21.524542      33.548502      22542.299      3540.414       5094.1493      2355.7377     -273.21061     -210.35405     -477.15891    
  28202000   271.81933     -396.3822      -305.34636     -396.25094      0              1865.0728      31.216999      21.524542      33.542419      22538.212      1961.2903      2826.487       807.44126      216.68645     -980.35173     -206.67602    
  28204000   270.97703     -399.75249     -308.99875     -399.79446      0              3744.152       31.216999      21.524542      33.507434      22514.704      3817.7115      3894.1205      3520.6239      711.97663     -233.91116     -523.92002    
  28206000   291.59113     -398.32628     -300.66861     -398.31544      0              3853.9977      31.216999      21.524542      33.67293       22625.906      6081.1454      2376.8963      3103.9513      626.24908     -213.29105      310.20463    
  28208000   280.1317      -397.65792     -303.83816     -397.63821      0              2277.595       31.216999      21.524542      33.656223      22614.68       3586.5892     -198.29963      3444.4955     -197.97055     -464.58287     -380.73676    
  28210000   269.20245     -397.79347     -307.63406     -397.72827      0              3380.4601      31.216999      21.524542      33.548039      22541.988      4468.3479      2003.5474      3669.4851     -33.94241      -1141.1577      366.2156     
  28212000   282.19747     -398.42333     -303.91172     -398.41786      0              1876.5886      31.216999      21.524542      33.674799      22627.162      151.90183      3683.7275      1794.1366     -340.6336       1693.2962     -261.32188    
  28214000   282.25385     -398.59476     -304.06426     -398.63265      0              1791.6902      31.216999      21.524542      33.432085      22464.074      1953.0347      904.04609      2517.9898     -47.33234      -278.1179       322.79193    
  28216000   277.48634     -402.01221     -309.07841     -401.8641       0              5372.113       31.216999      21.524542      33.342029      22403.563      6165.9129      5001.7275      4948.6984      384.64459     -1396.3552     -17.426525    
  28218000   275.48827     -401.97434     -309.70973     -401.95319      0              3655.7446      31.216999      21.524542      33.389276      22435.31       4645.0328      3299.086       3023.115       156.94839     -23.232198      115.72749    
  28220000   273.06612     -401.81502     -310.36162     -401.77796      0              2014.3417      31.216999      21.524542      33.25465       22344.85       2932.0041      1113.1021      1997.9189     -1306.1245      97.006308      726.17834    
  28222000   273.68211     -399.86303     -308.20332     -399.82264      0              4321.3934      31.216999      21.524542      33.21976       22321.407      4087.2053      3724.4955      5152.4793      593.97195     -800.46576      2363.9787    
  28224000   277.90725     -400.50817     -307.43341     -400.39429      0              1097.5332      31.216999      21.524542      33.377118      22427.14       1958.6838      2325.5088     -991.59289     -666.14195      811.21448     -160.92925    
  28226000   280.35561     -399.08682     -305.19208     -399.04953      0              3208.4147      31.216999      21.524542      33.433543      22465.054      3850.3879      4705.1773      1069.679      -124.65783     -462.33156      123.00077    
  28228000   276.74236     -403.0836      -310.39898     -403.0645       0              3109.9659      31.216999      21.524542      33.242842      22336.916      2145.6853      4950.137       2234.0754     -516.93868      383.85898     -1384.3284    
  28230000   273.83293     -401.67396     -309.96374     -401.57091      0              4882.5209      31.216999      21.524542      33.241912      22336.291      5108.4839      5131.7394      4407.3396     -62.420644     -845.63642     -267.51064    
  28232000   274.7809      -399.56644     -307.53874     -399.53523      0              2126.7887      31.216999      21.524542      33.411802      22450.446     -5.297111       2624.2274      3761.4357     -1089.5588      97.078501     -81.161508    
  28234000   278.98772     -400.57718     -307.14055     -400.54867      0              3875.4053      31.216999      21.524542      33.4401        22469.46       3306.3972      3182.9208      5136.8978      654.07381     -493.51809      639.65126    
  28236000   272.12284     -401.07368     -309.93619     -401.0498       0              2801.2088      31.216999      21.524542      33.396588      22440.223      3583.5614      4121.0349      699.02996      1251.3609     -1883.0652      180.74082    
  28238000   273.64759     -398.00816     -306.36001     -397.97003      0              2613.0898      31.216999      21.524542      33.489948      22502.955      1467.9793      2532.1939      3839.0961     -1479.7041     -98.418958     -196.08903    
  28240000   273.84162     -402.23797     -310.52485     -402.23869      0              3261.9899      31.216999      21.524542      33.620082      22590.396      3414.4859      4708.6355      1662.8483      2601.9037     -6.7986038      933.22611    
  28242000   278.01271     -401.40306     -308.29299     -401.46919      0              3136.0308      31.216999      21.524542      33.627356      22595.284      1340.4318      2939.5624      5128.0981     -2148.005       1142.326       637.35968    
  28244000   281.24085     -400.57586     -306.38464     -400.64856      0              1499.9273      31.216999      21.524542      33.58806       22568.879      1879.9679      1149.389       1470.4249      159.66771      1259.1227      1078.4749    
  28246000   276.75929     -399.04577     -306.35547     -399.04331      0              4270.3008      31.216999      21.524542      33.558661      22549.125      4198.9102      4149.4974      4462.4949     -732.47712     -875.31472     -118.38097    
  28248000   274.51566     -397.50049     -305.56162     -397.52271      0              2612.8428      31.216999      21.524542      33.522689      22524.954      3098.8422      2846.6124      1893.074      -812.27499     -158.97272     -773.18262    
  28250000   278.8311      -397.61008     -304.22591     -397.62264      0              2419.0683      31.216999      21.524542      33.540273      22536.769      4048.0485      1790.5875      1418.569       525.93535      587.18883      110.51399    
  28252000   277.25276     -398.55141     -305.69585     -398.58025      0              1903.9203      31.216999      21.524542      33.501311      22510.59       807.22038      3494.7468      1409.7938      446.8069       748.16593      1924.5906    
  28254000   278.51699     -398.65838     -305.37941     -398.6685       0              2862.9597      31.216999      21.524542      33.424179      22458.762      2987.182       2019.6483      3582.0487      2026.2639      270.53074      345.29468    
  28256000   279.3532      -400.93811     -307.37908     -400.95358      0              2540.5092      31.216999      21.524542      33.468006      22488.211      3010.6987      2537.2019      2073.627      -918.48105      324.9571       596.91216    
  28258000   268.94393     -398.87102     -308.79819     -398.82699      0              3703.8969      31.216999      21.524542      33.512461      22518.082      3986.216       3701.8716      3423.603       1072.6207      642.59277      1810.6809    
  28260000   275.90542     -400.71856     -308.31424     -400.74327      0              3911.6107      31.216999      21.524542      33.590928      22570.806      1258.8127      5522.7515      4953.2679      40.742983      1318.8182      1412.6925    
  28262000   272.98617     -397.815       -306.38837     -397.78094      0              3358.5235      31.216999      21.524542      33.655418      22614.139      3390.112       4410.7142      2274.7443     -529.65197     -465.41806     -1299.0619    
  28264000   279.06807     -398.65446     -305.19092     -398.63693      0              5251.203       31.216999      21.524542      33.469333      22489.102      5309.7209      5597.0396      4846.8484      1155.3973     -127.68731     -12.197957    
  28266000   272.56703     -400.51321     -309.22696     -400.50298      0              2806.3665      31.216999      21.524542      33.460506      22483.172      2492.8631      4322.2472      1603.9892      1143.7751      382.19006     -1114.1814    
  28268000   275.51969     -397.1128      -304.83766     -397.10108      0              2325.3697      31.216999      21.524542      33.39963       22442.267      2422.8671      2271.904       2281.338      -734.73855      1743.3714      207.14365    
  28270000   280.35399     -398.76428     -304.87007     -398.74029      0              2016.4863      31.216999      21.524542      33.519957      22523.118      1882.2367      2267.784       1899.4383      723.26246     -392.30849     -31.237753    
  28272000   273.21507     -400.58701     -309.08372     -400.5735       0              1940.9001      31.216999      21.524542      33.677853      22629.214      1439.2145      3563.1334      820.35239      614.55369      464.92139     -1624.0157    
  28274000   266.28554     -397.9763      -308.7938      -397.91633      0              4758.0745      31.216999      21.524542      33.264488      22351.461      5721.2673      6458.7963      2094.1601      1440.9857      63.442881     -563.2311     
  28276000   281.09139     -398.18104     -304.03987     -398.23419      0              1656.6906      31.216999      21.524542      33.432508      22464.359      786.49167      2779.7949      1403.7853      288.22895      703.62717      370.8876     
  28278000   269.95121     -399.58753     -309.17735     -399.57199      0              3193.0613      31.216999      21.524542      33.415639      22453.024      2848.4929      3365.323       3365.368      -447.70897     -825.00412      130.63274    
  28280000   285.13093     -399.86157     -304.3675      -399.78657      0              4824.4794      31.216999      21.524542      33.305823      22379.235      4272.0079      6371.5951      3829.8353     -251.6849      -857.53969     -1763.5724    
  28282000   275.46713     -400.74157     -308.48403     -400.70673      0              3419.6731      31.216999      21.524542      33.265628      22352.227      1769.2007      3594.668       4895.1507      714.50697     -437.80885     -934.54604    
  28284000   265.92052     -400.73839     -311.67814     -400.59892      0              927.13433      31.216999      21.524542      33.39892       22441.79       244.21081      1810.5006      726.69156     -590.4171       725.89787      88.783387    
  28286000   274.79822     -402.26416     -310.23066     -402.18225      0              3548.0986      31.216999      21.524542      33.469487      22489.206      4303.8619      3424.6644      2915.7695      641.73826     -1850.5032     -263.59489    
  28288000   273.5619      -399.84855     -308.22911     -399.84067      0              3522.6571      31.216999      21.524542      33.438502      22468.386      2607.7835      4378.743       3581.4447     -330.69199     -720.32447      374.62241    
  28290000   282.5169      -399.18902     -304.57042     -399.1848       0              3195.4913      31.216999      21.524542      33.442499      22471.072      2311.3163      5364.8751      1910.2825     -857.21825     -369.73481     -3672.6595    
  28292000   276.9448      -399.57207     -306.81964     -399.5222       0              3355.1865      31.216999      21.524542      33.207527      22313.187      2310.598       4819.5641      2935.3974      1100.1361     -643.65031     -2054.1551    
  28294000   281.20001     -399.5207      -305.34315     -399.44761      0              4223.7281      31.216999      21.524542      33.07945       22227.128      4006.9         3300.2096      5364.0748     -1704.6666      998.14816      668.18244    
  28296000   271.11338     -398.90508     -308.10567     -398.72648      0              2442.1491      31.216999      21.524542      33.174259      22290.833      2236.7702      2637.1182      2452.559      -660.96952      1938.2357     -915.85162    
  28298000   275.73823     -400.73564     -308.38732     -400.58021      0              3504.2953      31.216999      21.524542      33.146352      22272.082      3872.0852      3493.8467      3146.954      -449.39251     -1241.2918     -1336.272     
  28300000   279.13499     -404.24354     -310.7576      -404.08818      0              4405.6163      31.216999      21.524542      33.271172      22355.952      4266.5607      4367.2343      4583.0538     -2055.3119     -129.42938      548.15474    
  28302000   275.88939     -402.16799     -309.76904     -402.14838      0              3702.879       31.216999      21.524542      33.513392      22518.707      4902.5862      3992.9989      2213.0518      363.40775      548.30075     -645.99491    
  28304000   268.8785      -400.59803     -310.54711     -400.45694      0              4205.4201      31.216999      21.524542      33.329148      22394.908      2828.1212      3923.9974      5864.1416      1073.9758     -252.21952     -332.83128    
  28306000   282.63475     -401.47333     -306.81526     -401.38795      0              3198.9549      31.216999      21.524542      33.336729      22400.002      2398.0459      3037.445       4161.3739     -383.68502     -1787.5525     -68.752148    
  28308000   270.56757     -399.08783     -308.47122     -399.07034      0              4210.8767      31.216999      21.524542      33.535963      22533.873      2459.6352      4586.5066      5586.4883      352.20515      1304.3379     -1606.7154    
  28310000   275.11614     -399.00629     -306.86631     -398.85218      0              4071.7584      31.216999      21.524542      33.587423      22568.451      3077.4171      3255.1913      5882.6669      770.3402       353.73251     -2194.9229    
  28312000   278.08885     -399.43328     -306.2977      -399.2866       0              2129.2432      31.216999      21.524542      33.360326      22415.858      3600.9394      1716.3962      1070.3939     -398.88132     -1209.3362     -463.06725    
  28314000   275.58413     -399.20827     -306.91155     -399.08933      0              3408.3248      31.216999      21.524542      33.261837      22349.679      2996.0851      4486.7732      2742.1161      2198.3913     -1844.8648      2990.6804    
  28316000   283.34988     -398.45779     -303.56022     -398.377        0              4167.3802      31.216999      21.524542      33.562324      22551.587      4412.3199      2241.5886      5848.2322      145.5599       1093.8739      741.81539    
  28318000   274.48839     -399.31159     -307.38185     -399.16961      0              2542.5439      31.216999      21.524542      33.491789      22504.192      683.44737      3240.25        3703.9344     -28.972011     -1638.8289     -663.72827    
  28320000   275.55021     -396.10664     -303.82128     -396.02279      0              2519.2802      31.216999      21.524542      33.24924       22341.216      3031.4         1764.3486      2762.0919      317.85832      1564.3658     -299.93138    
  28322000   279.27227     -400.38838     -306.85645     -400.24065      0              2142.371       31.216999      21.524542      33.561376      22550.95       2380.8594      30.059057      4016.1946     -768.47191     -543.88918      1163.4959    
  28324000   278.44048     -400.9185      -307.66516     -400.81695      0              5761.158       31.216999      21.524542      33.423087      22458.029      4906.5802      5501.8791      6875.0146     -380.54803     -565.03453     -1668.3724    
  28326000   265.93962     -401.13757     -312.07093     -401.0143       0              1783.9813      31.216999      21.524542      33.456297      22480.343     -538.65396      4080.6118      1809.9861     -275.50467      32.782383     -934.00618    
  28328000   272.4044      -401.89611     -310.66433     -401.7573       0              3678.4657      31.216999      21.524542      33.47638       22493.838      5148.4503      3613.0448      2273.9021     -278.39304      539.75496     -73.180391    
  28330000   283.36359     -402.26292     -307.36076     -402.11437      0              2910.2225      31.216999      21.524542      33.403274      22444.716      877.82586      2874.9034      4977.9383     -1344.7251      1463.1611      491.87508    
  28332000   269.58789     -401.74823     -311.45973     -401.61468      0              4690.2061      31.216999      21.524542      33.223145      22323.681      2144.9465      5780.3204      6145.3515     -894.6383       2070.8619      1408.2814    
  28334000   277.82121     -403.7377      -310.69176     -403.61565      0              3436.6729      31.216999      21.524542      33.333863      22398.076      1513.4208      3511.8637      5284.7344      2467.1437      1556.2419      1958.7558    
  28336000   284.88273     -398.97233     -303.56139     -398.84627      0              3224.3461      31.216999      21.524542      33.118448      22253.332      4238.2769      1386.2886      4048.4729     -150.95035     -584.6015       603.58998    
  28338000   278.58201     -404.50677     -311.20602     -404.35337      0              1956.1444      31.216999      21.524542      33.366162      22419.779      2123.7973      1983.599       1761.0369     -36.457571      724.47747      180.36043    
  28340000   268.56335     -400.25153     -310.30616     -400.27778      0              6319.7518      31.216999      21.524542      33.429905      22462.61       6747.0109      7740.9061      4471.3384     -34.846565      941.83535     -82.49886     
  28342000   278.1064      -397.0378      -303.89634     -396.96917      0              2560.6175      31.216999      21.524542      33.44287       22471.322      4899.8482      1457.7135      1324.2908      1249.6764     -455.04748      1106.831     
  28344000   280.11979     -403.17197     -309.3562      -403.1191       0              3391.2072      31.216999      21.524542      33.39372       22438.296      2597.0235      3890.7824      3685.8157     -220.57795     -844.91257     -1846.7273    
  28346000   274.80148     -401.66311     -309.62851     -401.51192      0              5071.6365      31.216999      21.524542      33.170679      22288.427      4028.2813      5597.0492      5589.5791      526.67286     -1842.7872     -968.67363    
  28348000   278.02893     -398.85617     -305.74066     -398.72341      0              2704.4758      31.216999      21.524542      33.458069      22481.534      1488.8709      4502.2753      2122.2811      325.57449     -922.95194      527.06174    
  28350000   280.50668     -401.09927     -307.15393     -401.03676      0              1873.7475      31.216999      21.524542      33.423169      22458.084      1737.544       3715.9709      167.72746     -1080.2105      19.164428     -1310.6245    
  28352000   270.9698      -400.45222     -309.7009      -400.39344      0              3877.695       31.216999      21.524542      33.380851      22429.649      4956.5227      3366.4786      3310.0838     -1014.9412      845.21372      1871.8225    
  28354000   270.40928     -401.82944     -311.26585     -401.75335      0              3714.74        31.216999      21.524542      33.127174      22259.195      3907.4526      3682.2571      3554.5103      223.77929     -744.69545     -633.22109    
  28356000   277.80054     -401.15503     -308.11601     -401.04483      0              3558.1661      31.216999      21.524542      33.303437      22377.632      3526.6087      4367.6575      2780.2322      783.05421      230.67573     -342.2864     
  28358000   273.44367     -402.29272     -310.71287     -402.21011      0              3474.7538      31.216999      21.524542      33.383224      22431.243      3115.3328      2967.5812      4341.3472     -3.9763443      1403.0434      658.35934    
  28360000   266.12592     -397.6275      -308.49846     -397.55944      0              3274.8782      31.216999      21.524542      33.350027      22408.937      1871.0361      4278.8572      3674.7414      1067.3296      941.63662      1010.4345    
  28362000   276.55156     -402.15555     -309.53483     -402.07895      0              2958.567       31.216999      21.524542      33.505962      22513.715      3497.8788      2468.8752      2908.947      -538.59547      599.2838      -165.37377    
  28364000   279.25705     -400.64892     -307.12209     -400.6007       0              2478.7005      31.216999      21.524542      33.53902       22535.927      4378.1327      1882.3686      1175.6002     -758.82198     -1162.0182     -1279.5091    
  28366000   273.83191     -399.8138      -308.10392     -399.73741      0              4783.454       31.216999      21.524542      33.465275      22486.376      5900.964       5896.1281      2553.27       -1433.3141     -1361.6808     -2123.7484    
  28368000   273.12574     -402.87576     -311.40239     -402.79364      0              3547.6499      31.216999      21.524542      33.643721      22606.279      3695.2369      4022.136       2925.5767      979.93471     -528.35496      429.6677     
  28370000   273.7437      -399.67472     -307.99439     -399.54762      0              3783.5344      31.216999      21.524542      33.73019       22664.381      3892.5483      4329.5212      3128.5336     -395.84477      1382.0941      1339.2433    
  28372000   272.23291     -402.10049     -310.92614     -402.03199      0              3946.2666      31.216999      21.524542      33.541263      22537.435      4354.5848      4542.1668      2942.0481      895.92081      404.93887      1058.1481    
  28374000   284.20024     -400.06422     -304.88186     -399.99837      0              2082.9701      31.216999      21.524542      33.622813      22592.231      2414.6239      1611.205       2223.0815     -1295.3001     -1338.3328     -346.71568    
  28376000   273.17691     -400.93797     -309.44746     -400.81054      0              3055.5199      31.216999      21.524542      33.509186      22515.881      4817.2074      3105.8326      1243.5196      579.19653     -494.35489     -958.7376     
  28378000   272.29771     -401.0322      -309.83615     -401.03206      0              2607.3518      31.216999      21.524542      33.715366      22654.42       3208.7553      3039.9417      1573.3584      406.07207     -557.91741      546.22458    
  28380000   278.18404     -400.71226     -307.54479     -400.75246      0              1808.0649      31.216999      21.524542      33.769747      22690.96       1875.1153      1672.5784      1876.5012     -1035.226       25.479984      351.50332    
  28382000   272.74326     -400.76157     -309.4163      -400.70075      0              2549.9311      31.216999      21.524542      33.505425      22513.354      1409.1196      4311.4401      1929.2336      98.04643       1319.3542      146.41022    
  28384000   268.93914     -402.16895     -312.09772     -402.12465      0              2135.3525      31.216999      21.524542      33.375324      22425.935      2531.0603      1925.7843      1949.2128     -616.51193     -1527.6481     -223.60881    
  28386000   278.11922     -403.53286     -310.38711     -403.50519      0              2810.1331      31.216999      21.524542      33.430949      22463.311     -248.3006       5334.5906      3344.1093     -286.13791      640.39283     -716.33601    
  28388000   270.72851     -405.17053     -314.50003     -405.2202       0              1636.2305      31.216999      21.524542      33.493384      22505.263      2176.8299      376.29778      2355.5638     -2035.8131     -301.32792      57.270295    
  28390000   283.95739     -402.13542     -307.03439     -402.05065      0              2858.5161      31.216999      21.524542      33.365019      22419.011      2176.5211      3387.8393      3011.1879      1177.6035     -132.36608      150.77148    
  28392000   274.97418     -403.10795     -311.01552     -403.06132      0              3325.3164      31.216999      21.524542      33.654137      22613.279      1187.1619      5411.2116      3377.5757     -1129.4264     -361.91117     -900.82822    
  28394000   277.15471     -400.55303     -307.7303      -400.54617      0              2501.5241      31.216999      21.524542      33.51817       22521.918      2971.8646      2158.9033      2373.8043     -764.52413     -236.16348     -1167.2992    
  28396000   280.31591     -400.41894     -306.53749     -400.41192      0              2429.3218      31.216999      21.524542      33.80142       22712.242      3342.2114      2462.1494      1483.6045     -666.26983     -1006.0056     -5.8215109    
  28398000   274.21519     -402.0633      -310.22505     -402.06778      0              1855.1116      31.216999      21.524542      33.541844      22537.825      328.61663      1241.046       3995.6723     -640.84532      97.908956     -319.00657    
  28400000   281.13588     -400.12421     -305.96814     -400.14349      0              3031.7601      31.216999      21.524542      33.782406      22699.466      4013.7736      2282.7248      2798.7819     -1291.9839      570.57404     -550.01831    
  28402000   273.24052     -399.38153     -307.86972     -399.37753      0              4557.971       31.216999      21.524542      33.646333      22608.035      5610.7871      4686.4533      3376.6727     -1215.8539      2484.0018      500.55533    
  28404000   277.4427      -401.26198     -308.34281     -401.21632      0              1560.4406      31.216999      21.524542      33.548404      22542.233      2282.4804      1808.768       590.07338     -640.77232     -594.70371      290.08364    
  28406000   276.24814     -401.83464     -309.31553     -401.84831      0              1616.9402      31.216999      21.524542      33.852375      22746.481      1795.3053      1556.875       1498.6403      1107.3848     -976.20936     -186.59336    
  28408000   275.88355     -400.57315     -308.17616     -400.67906      0              1616.0022      31.216999      21.524542      33.655928      22614.482     -777.33843      2964.035       2661.31        1616.5637     -417.88279     -605.14733    
  28410000   280.76762     -402.11442     -308.08169     -402.18701      0              842.73468      31.216999      21.524542      33.640119      22603.859      894.12588      1061.7477      572.33045      1620.3478      442.91309     -143.38967    
  28412000   273.787       -402.08438     -310.38955     -402.11943      0              3049.8114      31.216999      21.524542      33.624631      22593.453      1699.5903      4348.0938      3101.75        74.263187      14.134048     -754.2732     
  28414000   277.2273      -398.68126     -305.83422     -398.72104      0              3781.259       31.216999      21.524542      33.643693      22606.261      4009.0608      3563.2483      3771.4678     -149.66686     -343.6425       830.85194    
  28416000   276.945       -401.56574     -308.81325     -401.56356      0              2659.6947      31.216999      21.524542      33.649011      22609.834      1795.9253      3534.8441      2648.3147     -509.50243      109.5258      -217.66068    
  28418000   269.2929      -397.24476     -307.05505     -397.22036      0              2828.6445      31.216999      21.524542      33.559818      22549.902      2976.5335      3049.2256      2460.1743     -597.77823      1046.1761     -558.20508    
  28420000   274.47699     -401.84307     -309.91715     -401.77949      0              2817.1522      31.216999      21.524542      33.497798      22508.229      3780.2732      2922.8673      1748.3162     -46.807856     -786.37911     -523.3941     
  28422000   274.00458     -401.41562     -309.64792     -401.41051      0              2616.1112      31.216999      21.524542      33.569826      22556.627      2469.1984      2056.981       3322.1544     -1355.4466      307.62814     -1060.2022    
  28424000   275.13979     -401.25974     -309.11184     -401.20941      0              2732.3708      31.216999      21.524542      33.482165      22497.725      1512.5403      2716.3599      3968.2121      1363.9502     -883.66741     -1531.8316    
  28426000   280.42334     -399.55003     -305.6326      -399.54105      0              3973.4018      31.216999      21.524542      33.447597      22474.498      3849.9617      3380.0581      4690.1855      1211.4712      186.31669      101.3239     
  28428000   272.83804     -398.2384      -306.86138     -398.23345      0              4106.244       31.216999      21.524542      33.60923       22583.104      2217.1834      5418.0161      4683.5326      652.40321     -1028.5834      586.83899    
  28430000   276.36561     -401.75132     -309.19288     -401.67625      0              2344.7152      31.216999      21.524542      33.421091      22456.687      3672.7443      887.5891       2473.8121     -1953.3428      1231.8571      130.66238    
  28432000   271.21303     -402.43922     -311.60644     -402.44837      0              3031.5903      31.216999      21.524542      33.505611      22513.479      3010.69        1881.4666      4202.6144     -542.02357     -119.73981     -418.27998    
  28434000   269.17621     -401.9541      -311.80348     -401.94916      0              3417.6094      31.216999      21.524542      33.497728      22508.182      2597.0067      3138.0961      4517.7254     -80.226926      265.71725      1185.3053    
  28436000   275.24685     -400.55773     -308.37397     -400.50965      0              1879.0633      31.216999      21.524542      33.468434      22488.499      1487.8862      646.27871      3503.0252     -1673.9596      138.95539      1037.8769    
  28438000   281.49155     -399.56981     -305.29462     -399.59262      0              2583.6071      31.216999      21.524542      33.448453      22475.073      2494.8213      1112.7809      4143.2192      605.54172      889.32398     -0.13468721   
  28440000   281.35945     -403.25382     -309.02288     -403.10133      0              4887.4465      31.216999      21.524542      33.392585      22437.533      5559.0908      3421.872       5681.3768      337.84328     -455.752        1556.8389    
  28442000   280.84821     -400.45808     -306.39835     -400.45536      0              3675.676       31.216999      21.524542      33.458365      22481.733      4293.4721      3294.7659      3438.7902     -1188.6845     -525.2325       655.90304    
  28444000   278.60974     -399.33801     -306.02798     -399.26745      0              3150.6059      31.216999      21.524542      33.525638      22526.936      2280.9272      4428.6593      2742.2312     -194.59347     -1752.85       -1182.2465    
  28446000   270.23335     -402.74788     -312.2432      -402.63113      0              4062.4606      31.216999      21.524542      33.318267      22387.597      5749.9283      4102.3488      2335.1046      1406.8368     -510.67661      1121.7962    
  28448000   269.89136     -403.44768     -313.05755     -403.31108      0              3921.0884      31.216999      21.524542      33.309516      22381.717      4641.5657      3080.982       4040.7176      1246.4407      157.29274      1205.6455    
  28450000   274.40703     -398.77534     -306.87285     -398.69815      0              2632.0336      31.216999      21.524542      33.498406      22508.638      2895.7452      946.45681      4053.8989     -410.24126     -1143.5954      849.36838    
  28452000   277.82225     -401.72679     -308.6805      -401.71889      0              3212.4698      31.216999      21.524542      33.53603       22533.919      2968.5927      3521.7892      3147.0276     -1021.1752      851.41307     -481.89857    
  28454000   267.78373     -400.74454     -311.06028     -400.74685      0              3457.1293      31.216999      21.524542      33.657404      22615.474      4259.2957      1783.9518      4328.1403      5.3613607     -1699.9148     -480.44416    
  28456000   270.31512     -400.40183     -309.86977     -400.35951      0              2692.3076      31.216999      21.524542      33.60212       22578.327      3456.7413      2854.8903      1765.2912     -526.36011     -448.29836     -1279.5762    
  28458000   270.6441      -402.64948     -312.00724     -402.57243      0              3414.6301      31.216999      21.524542      33.268831      22354.379      3580.5097      4371.7833      2291.5973      413.637       -578.35191     -1672.9244    
  28460000   268.11656     -401.42007     -311.62434     -401.40488      0              2277.604       31.216999      21.524542      33.492034      22504.356      2548.0022      1319.9437      2964.866      -523.48054     -2038.2327      454.13414    
  28462000   278.22212     -397.16361     -303.98339     -397.16857      0              1744.1917      31.216999      21.524542      33.806264      22715.497      2047.7947      1497.6131      1687.1673      460.52457      1514.9798      1504.4534    
  28464000   273.36803     -401.59628     -310.04177     -401.67881      0              2087.8985      31.216999      21.524542      33.61624       22587.814      3244.2236     -1.2773993      3020.7492     -895.29917      945.43992     -215.97516    
  28466000   276.20457     -398.90795     -306.40344     -398.9209       0              1884.5638      31.216999      21.524542      33.5645        22553.049      1850.7012      628.16981      3174.8204     -861.63716      533.5059       1153.7273    
  28468000   272.95584     -398.8121      -307.39563     -398.84227      0              3194.6224      31.216999      21.524542      33.593712      22572.677      2958.6218      5211.7379      1413.5076      1411.683       182.77602     -798.14947    
  28470000   280.35893     -397.59631     -303.70045     -397.62301      0              2921.1212      31.216999      21.524542      33.713572      22653.215      3953.8499      2794.9799      2014.5338     -1439.2595      744.924        1785.5191    
  28472000   262.2727      -398.51232     -310.67377     -398.56207      0              1251.3265      31.216999      21.524542      33.61043       22583.91       60.081372      1080.87        2613.0283     -1152.9533     -531.07464      52.162749    
  28474000   272.99705     -399.91151     -308.48124     -399.95852      0              4569.4914      31.216999      21.524542      33.992362      22840.542      4776.1246      3420.1486      5512.2012     -1260.4909      1187.0408      1043.2204    
  28476000   278.95331     -397.56319     -304.13809     -397.60232      0              724.41597      31.216999      21.524542      33.793822      22707.137     -1175.6541      3312.3984      36.503597      705.33833      1499.8502     -1142.9548    
  28478000   272.99984     -401.06599     -309.63479     -401.08034      0              3767.6124      31.216999      21.524542      33.905104      22781.911      3214.0189      4017.0346      4071.7837      1603.5973      18.339322     -944.58536    
  28480000   277.3465      -399.26765     -306.38069     -399.30758      0              1753.9016      31.216999      21.524542      33.648833      22609.714      890.12705      2260.4211      2111.1567      164.3707      -257.14522      354.93661    
  28482000   275.03497     -397.83441     -305.72161     -397.79362      0              3030.0794      31.216999      21.524542      33.657187      22615.328      3513.8593      2520.3611      3056.0177     -159.84433      596.83935     -2975.9128    
  28484000   271.83486     -401.805       -310.76396     -401.82137      0              2499.9729      31.216999      21.524542      33.596714      22574.694      2183.169       1951.1676      3365.5821      532.2347       539.69252      48.67493     
  28486000   280.77992     -396.41894     -302.38209     -396.38549      0              2940.4495      31.216999      21.524542      33.464937      22486.149      2382.353       3179.6824      3259.3131     -25.567549     -409.64538     -831.76205    
  28488000   270.77527     -398.99098     -308.30482     -398.95636      0              3723.8455      31.216999      21.524542      33.569865      22556.653      3696.6097      1879.9441      5594.9828      562.45377     -647.65716     -1528.9578    
  28490000   276.3232      -398.4095      -305.86526     -398.389        0              1357.3222      31.216999      21.524542      33.389236      22435.283      2363.8615      716.00879      992.09619      1183.0383      218.02577     -259.66997    
  28492000   283.68586     -398.47303     -303.46294     -398.49935      0              2087.6347      31.216999      21.524542      33.568057      22555.438      2320.7331      1783.0838      2159.0873      242.14036     -1133.5368     -1028.3304    
  28494000   270.52981     -399.78713     -309.18318     -399.7478       0              3454.5757      31.216999      21.524542      33.567662      22555.173      3742.5688      2432.5711      4188.5871      1281.404      -84.538019     -1067.7791    
  28496000   282.50435     -401.20059     -306.5862      -401.19829      0              2966.6635      31.216999      21.524542      33.439269      22468.902      2373.1714      2787.6764      3739.1425      894.59561      63.705993     -1263.7979    
  28498000   281.90779     -401.51651     -307.10191     -401.54137      0              2634.9687      31.216999      21.524542      33.431446      22463.645      2256.6956      3566.349       2081.8615      414.32302     -127.31318     -643.34515    
  28500000   271.6454      -400.23722     -309.25963     -400.27867      0              2794.2105      31.216999      21.524542      33.681092      22631.39       2194.1279      2967.8589      3220.6447      769.64419     -102.80482      1205.3381    
  28502000   279.63768     -401.37239     -307.71809     -401.3812       0              3944.0237      31.216999      21.524542      33.732059      22665.637      4617.0553      2865.7646      4349.2513     -50.494607     -1096.1025     -1891.1721    
  28504000   269.6769      -399.76265     -309.44434     -399.81264      0              652.43501      31.216999      21.524542      33.768312      22689.996      1382.5404     -557.15         1131.9146     -813.40708      93.48746       1136.6846    
  28506000   279.62483     -401.7498      -308.09979     -401.81032      0              3975.25        31.216999      21.524542      33.602533      22578.604      5185.9447      1736.9087      5002.8966     -1360.0881     -345.73127      866.21305    
  28508000   271.58147     -399.27112     -308.31494     -399.33533      0              1783.1689      31.216999      21.524542      33.518498      22522.138      2961.1483      2221.7762      166.58237     -1081.3002     -287.89228     -254.27667    
  28510000   275.25829     -402.0669      -309.87931     -402.05434      0              4075.6652      31.216999      21.524542      33.347409      22407.178      4282.3531      4778.8903      3165.7522     -77.325926     -1964.0577      315.90545    
  28512000   268.91536     -400.08373     -310.02047     -400.11607      0              2535.773       31.216999      21.524542      33.640706      22604.254      2068.0861      2879.8833      2659.3498     -861.13376     -585.35755      750.46782    
  28514000   276.62623     -400.10492     -307.45919     -400.11812      0              948.33298      31.216999      21.524542      33.615435      22587.273      2049.8009      486.49402      308.70403      884.29768     -200.69194     -1130.7154    
  28516000   271.3727      -401.63403     -310.74777     -401.68826      0              1874.3889      31.216999      21.524542      33.614624      22586.728      2822.4448      1457.1375      1343.5842      87.634983     -1472.723      -719.08281    
  28518000   273.83271     -401.57812     -309.86798     -401.61607      0              2669.2365      31.216999      21.524542      33.539031      22535.935      3585.9847      2275.6189      2146.1057      33.724789      22.700156     -166.33733    
  28520000   270.00299     -402.36575     -311.93823     -402.38562      0              1363.4317      31.216999      21.524542      33.551167      22544.089     -739.54751      1042.7204      3787.1221      156.84996      542.61564     -136.07021    
  28522000   274.77145     -400.53737     -308.51283     -400.58404      0              1470.0467      31.216999      21.524542      33.598318      22575.771     -960.96633      3073.3783      2297.7283     -56.373764     -205.15745     -133.33163    
  28524000   287.48749     -397.58831     -301.305       -397.63337      0              2480.4446      31.216999      21.524542      33.515496      22520.121      2532.2478      3463.0966      1445.9893      323.55379     -826.03721     -1083.2891    
  28526000   277.53433     -402.09588     -309.14601     -402.0855       0              3120.1662      31.216999      21.524542      33.443458      22471.716      3988.2777      1900.1957      3472.0252     -571.54184      847.96287     -21.246916    
  28528000   273.25526     -400.50696     -308.99021     -400.5375       0              1679.7254      31.216999      21.524542      33.465865      22486.773      2352.451       1185.2732      1501.452       382.39346      553.96719      277.88596    
  28530000   280.32805     -400.51582     -306.6303      -400.5241       0              4854.8298      31.216999      21.524542      33.526808      22527.722      3588.2229      3026.0384      7950.228      -281.59961      922.00815      628.60101    
  28532000   272.60586     -401.86027     -310.56101     -401.84183      0              1990.0088      31.216999      21.524542      33.602205      22578.384      3341.091      -45.194996      2674.1304     -437.85854      161.71322      319.29912    
  28534000   274.06066     -400.82406     -309.03757     -400.79657      0              3390.0796      31.216999      21.524542      33.425575      22459.701      3211.084       2936.1681      4022.9866     -1963.1289      529.02098      215.47089    
  28536000   266.96984     -401.10162     -311.68994     -401.12828      0              2477.4484      31.216999      21.524542      33.610974      22584.276      2451.338       1861.1957      3119.8115      96.597191      1595.6894     -783.86127    
  28538000   276.36921     -401.72532     -309.16566     -401.64767      0              3608.5288      31.216999      21.524542      33.368338      22421.241      875.44901      5431.6787      4518.4587      855.80618      1213.3283      884.03538    
  28540000   280.70259     -402.12048     -308.10953     -402.16159      0              2834.9892      31.216999      21.524542      33.560632      22550.449      2546.771       2308.2386      3649.958       33.68891      -572.12976     -364.0326     
  28542000   279.47942     -398.4931      -304.89179     -398.53418      0              2055.707       31.216999      21.524542      33.514139      22519.209      2489.2381      1845.7272      1832.1558     -494.75315     -1277.9809      1164.5522    
  28544000   277.60685     -399.87978     -306.90563     -399.8767       0              2796.9956      31.216999      21.524542      33.672333      22625.505      2260.5558      3438.9179      2691.5129     -370.50418      1223.9654     -737.18385    
  28546000   268.64078     -400.44629     -310.47499     -400.39864      0              3825.7941      31.216999      21.524542      33.363018      22417.666      3245.1149      4070.0033      4162.264       295.34485      219.54721      806.64147    
  28548000   276.04173     -403.00204     -310.55207     -402.95306      0              3365.6479      31.216999      21.524542      33.364118      22418.405      2008.8062      3891.6367      4196.5009     -673.46553     -358.92379      1584.5719    
  28550000   281.24186     -401.83731     -307.64575     -401.79576      0              4020.8409      31.216999      21.524542      33.446042      22473.453      3891.7309      4423.1133      3747.6785      562.05657      1382.7684     -168.63092    
  28552000   286.17593     -401.64317     -305.79912     -401.5955       0              4316.9651      31.216999      21.524542      33.442875      22471.325      4660.7476      2375.896       5914.2518     -366.82259      273.6782       50.329351    
  28554000   276.61025     -401.71945     -309.07908     -401.68454      0              3761.3207      31.216999      21.524542      33.649547      22610.194      2778.5595      4439.8974      4065.5053     -730.70284     -852.15208      323.89823    
  28556000   275.83026     -404.14856     -311.76941     -404.01983      0              2785.2949      31.216999      21.524542      33.592665      22571.974      2663.8729      2715.1277      2976.884      -61.001653     -292.58641     -448.03129    
  28558000   278.11582     -399.58152     -306.43691     -399.52168      0              1468.7504      31.216999      21.524542      33.727472      22662.555      1574.6086      1753.056       1078.5867      1004.2416      275.90174      1458.9537    
  28560000   271.50867     -400.98796     -310.05617     -400.90748      0              3756.7158      31.216999      21.524542      33.443081      22471.463      4023.7778      3247.4902      3998.8793     -917.524        585.85047      423.8969     
  28562000   269.67189     -401.42464     -311.108       -401.43214      0              3261.6824      31.216999      21.524542      33.489271      22502.5        3805.5625      5063.2833      916.2013       1099.3921     -322.15115     -1103.3787    
  28564000   274.22552     -401.86419     -310.02249     -401.83325      0              4739.2257      31.216999      21.524542      33.579417      22563.071      5763.0816      4636.503       3818.0924      175.11871      964.5841      -285.32699    
  28566000   267.71476     -403.08149     -313.42033     -403.00981      0              2930.2828      31.216999      21.524542      33.74589       22674.93       4544.1208      2511.4684      1735.2592     -129.36164     -1194.7268      390.95263    
  28568000   282.44732     -399.48347     -304.88818     -399.38896      0              2978.3469      31.216999      21.524542      33.697351      22642.315      2980.5705      4238.954       1715.5163     -259.55117     -8.4845561     -463.20655    
  28570000   267.09794     -401.27538     -311.8208      -401.24626      0              3848.4051      31.216999      21.524542      33.678031      22629.334      3860.6455      2976.7265      4707.8433     -203.81652     -436.32608      149.56518    
  28572000   269.91157     -402.41509     -312.01819     -402.26924      0              3979.0628      31.216999      21.524542      33.547783      22541.816      4753.5296      3657.498       3526.1607      119.87109      1093.2721     -729.04892    
  28574000   284.74608     -402.13618     -306.771       -402.07277      0              3842.3714      31.216999      21.524542      33.629557      22596.762      4498.5498      3548.6877      3479.8768      242.68127      375.57537     -814.91512    
  28576000   269.46152     -401.07879     -310.83261     -400.96349      0              973.87538      31.216999      21.524542      33.670683      22624.396      270.67123      420.97793      2229.977       367.21873      441.89909      112.27296    
  28578000   277.35313     -401.07554     -308.18637     -401.08405      0              2577.117       31.216999      21.524542      33.730006      22664.257      2035.9615      1199.732       4495.6575      191.03993      1179.7414     -1176.2386    
  28580000   270.67893     -399.48409     -308.83019     -399.44435      0              4633.2837      31.216999      21.524542      33.496188      22507.147      4180.6628      3513.6391      6205.5492      272.25084     -69.077417     -1768.6966    
  28582000   271.3801      -395.10766     -304.21892     -395.07507      0              3198.7957      31.216999      21.524542      33.569722      22556.557      3758.8432      2227.1869      3610.3569      925.48587     -2019.8452     -125.76686    
  28584000   266.8603      -400.83397     -311.45897     -400.80843      0              3411.943       31.216999      21.524542      33.476101      22493.65       4590.7141      2093.8708      3551.2443     -908.85361      1808.2163     -351.80111    
  28586000   275.02711     -401.47371     -309.36355     -401.40167      0              3028.0356      31.216999      21.524542      33.514742      22519.615      3207.0189      2459.0669      3418.021      -1741.1038     -1360.3035     -2337.1732    
  28588000   273.68084     -401.64887     -309.98959     -401.52118      0              3286.6186      31.216999      21.524542      33.553006      22545.325      3989.9117      2153.2111      3716.7328     -60.971332     -1304.1142     -1802.0558    
  28590000   276.66656     -402.24549     -309.58625     -402.20533      0              2603.7212      31.216999      21.524542      33.576528      22561.13       367.66614      3800.9986      3642.4989      1889.6248     -37.748707      237.08548    
  28592000   268.89709     -401.36488     -311.30774     -401.35875      0              1848.4552      31.216999      21.524542      33.516772      22520.978      2838.8116      1950.2328      756.32127     -233.83516      445.61313      1626.5655    
  28594000   274.48298     -402.27049     -310.34256     -402.2786       0              2321.2938      31.216999      21.524542      33.653178      22612.634      2139.4702      3072.8696      1751.5415     -317.16856      906.41746     -845.80476    
  28596000   264.96995     -404.04651     -315.30462     -404.05225      0              2781.2704      31.216999      21.524542      33.506473      22514.058      1275.58        3094.2057      3974.0255      1242.0318      449.28119     -975.03863    
  28598000   272.19319     -400.44136     -309.28031     -400.44792      0              3467.7168      31.216999      21.524542      33.658546      22616.241      2709.8972      3677.794       4015.4592      1159.7253     -707.18841     -1362.2083    
  28600000   274.99058     -400.17348     -308.07555     -400.15193      0              2038.333       31.216999      21.524542      33.671085      22624.666      1802.2932      2929.0354      1383.6705      436.25276     -483.62419     -342.85789    
  28602000   274.67744     -398.11999     -306.12694     -398.12027      0              5152.4199      31.216999      21.524542      33.357381      22413.879      3672.316       5748.4713      6036.4723      908.91924      1451.5182     -1010.423     
  28604000   277.02875     -401.40498     -308.62444     -401.38377      0              2575.1267      31.216999      21.524542      33.413746      22451.752      3145.5156      2327.5066      2252.3578     -158.69772      656.98724      400.78292    
  28606000   278.04148     -398.60355     -305.48383     -398.58997      0              3590.4618      31.216999      21.524542      33.740642      22671.404      3232.2314      3361.2412      4177.9128     -798.9274       579.16521      935.66212    
  28608000   277.00911     -398.61706     -305.8431      -398.60925      0              4010.1093      31.216999      21.524542      33.731735      22665.419      4879.6297      3100.1252      4050.573       936.65076     -281.3897       864.27705    
  28610000   272.89204     -402.02233     -310.62723     -401.95222      0              2695.9241      31.216999      21.524542      33.688859      22636.609      3000.4019      2313.9691      2773.4013      808.61021      1171.6555     -579.73733    
  28612000   275.3614      -401.11687     -308.89474     -401.02995      0              3549.0842      31.216999      21.524542      33.943989      22808.039      2344.1782      4142.1225      4160.952       1136.7811     -699.45066      290.38207    
  28614000   268.94198     -401.00234     -310.93017     -400.9113       0              3444.6976      31.216999      21.524542      33.670064      22623.98       4664.3604      2133.8151      3535.9173     -591.96055      245.64994     -617.28399    
  28616000   270.54607     -401.04488     -310.43548     -400.9863       0              3410.7832      31.216999      21.524542      33.604714      22580.069      3057.8282      2765.9819      4408.5395      1623.2668      1131.927      -1075.7492    
  28618000   278.73109     -399.8732      -306.52253     -399.82229      0              3673.2812      31.216999      21.524542      33.729768      22664.097      2806.8303      4701.1452      3511.8682      312.44009      2.5147642      1245.0438    
  28620000   275.88724     -399.77329     -307.37506     -399.75152      0              4378.7792      31.216999      21.524542      33.750298      22677.892      5019.695       5941.5545      2175.0882      631.31211     -552.02673      291.00271    
  28622000   283.37853     -402.52425     -307.61709     -402.51568      0              3648.9094      31.216999      21.524542      33.500338      22509.936      3637.1831      3282.1514      4027.3937      757.34496     -744.04072      159.59061    
  28624000   279.22957     -400.76085     -307.24323     -400.74956      0              3174.3639      31.216999      21.524542      33.535579      22533.615      2872.3554      3439.9488      3210.7874      910.21793     -596.07386      1129.882     
  28626000   279.44457     -399.83275     -306.24312     -399.78519      0              867.18658      31.216999      21.524542      33.645713      22607.618      1139.5242     -112.65875      1574.6942     -76.538901     -479.4978       902.82877    
  28628000   278.8801      -399.6452      -306.24462     -399.6369       0              2204.6011      31.216999      21.524542      33.649772      22610.346      845.33103      2086.9206      3681.5518     -2528.1055     -1743.5564      1340.9624    
  28630000   275.23733     -401.37192     -309.19134     -401.29514      0              1470.4096      31.216999      21.524542      33.493259      22505.179      3345.0335      1460.4515     -394.2562       932.08519      1576.9876     -569.79477    
  28632000   277.44875     -401.97993     -309.05872     -401.91406      0              4355.826       31.216999      21.524542      33.446051      22473.459      4533.0537      4581.1397      3953.2846      709.40674     -1057.2585     -168.0423     
  28634000   275.40795     -399.86131     -307.6236      -399.75448      0              1964.3079      31.216999      21.524542      33.772702      22692.946      2885.1355      1018.8727      1988.9156     -1147.1964      1236.3869     -826.93946    
  28636000   282.39672     -403.04613     -308.46779     -402.89133      0              3477.1624      31.216999      21.524542      33.438065      22468.093      5741.4178      2159.0698      2530.9997     -810.2439       1.736411       894.99062    
  28638000   276.62896     -401.17305     -308.52641     -401.00625      0              3202.4872      31.216999      21.524542      33.436696      22467.173      1981.2724      2147.0351      5479.1542      1761.8938      1916.0588     -626.87977    
  28640000   281.39738     -400.58443     -306.34078     -400.55032      0              3488.6587      31.216999      21.524542      33.617324      22588.542      4007.2922      3200.8876      3257.7965      102.28329      464.95925      1008.402     
  28642000   275.17722     -401.94526     -309.78483     -401.81251      0              1210.2975      31.216999      21.524542      33.450239      22476.273      144.93731      797.89018      2688.0649      111.46095     -27.073394     -542.1636     
  28644000   272.33154     -399.49721     -308.28983     -399.50639      0              2582.345       31.216999      21.524542      33.55523       22546.819      1986.6362      1996.2599      3764.1387      918.28959      54.516875      708.35666    
  28646000   274.49441     -402.84395     -310.91219     -402.70363      0              1705.4797      31.216999      21.524542      33.507286      22514.604      1810.6364      1806.5255      1499.2771      803.77774     -2446.6143      1109.2755    
  28648000   276.8564      -397.84821     -305.1254      -397.78202      0              2397.1252      31.216999      21.524542      33.586444      22567.793      929.4622       2808.2721      3453.6412      1544.6243     -1602.251       1956.9199    
  28650000   270.9536      -400.3945      -309.64861     -400.29836      0              2386.5401      31.216999      21.524542      33.48756       22501.35       2450.3784      1661.3156      3047.9264      244.07122      1014.3553      1399.9539    
  28652000   270.21933     -399.42781     -308.92784     -399.31428      0              1714.5188      31.216999      21.524542      33.576504      22561.114      1895.7877      1255.7311      1992.0376     -394.91243     -545.74833     -687.2288     
  28654000   280.47839     -399.90676     -305.97089     -399.80488      0              3185.5972      31.216999      21.524542      33.411957      22450.55       3174.1374      3980.3609      2402.2933     -1662.3488     -667.89006     -376.32125    
  28656000   272.14994     -398.72608     -307.57952     -398.65028      0              2647.0894      31.216999      21.524542      33.569823      22556.625      4068.8962      1472.9712      2399.4008     -1361.0693      477.40977     -204.30282    
  28658000   277.35607     -397.23764     -304.34748     -397.1691       0              3350.661       31.216999      21.524542      33.483129      22498.372      5195.9719      3225.3035      1630.7077     -282.98105      729.02519     -494.4647     
  28660000   277.15986     -400.18157     -307.35712     -400.05161      0              2734.7471      31.216999      21.524542      33.296874      22373.222      327.87147      4004.4834      3871.8864      52.138725      195.01303     -408.93945    
  28662000   275.12935     -397.87748     -305.73307     -397.87077      0              2143.3977      31.216999      21.524542      33.745884      22674.926      1551.129       1499.4394      3379.6247     -1539.8553      506.29928     -188.25121    
  28664000   266.79686     -402.8588      -313.50505     -402.7078       0              2578.715       31.216999      21.524542      33.368955      22421.655      2686.626       2879.0871      2170.4319      528.30945     -1558.7592      46.845648    
  28666000   268.81206     -399.58881     -309.56014     -399.60367      0              2400.4702      31.216999      21.524542      33.715267      22654.353      3798.9635      2188.8406      1213.6066     -1003.3161      1788.8792      832.4117     
  28668000   272.22969     -400.67586     -309.50259     -400.61314      0              1306.664       31.216999      21.524542      33.51515       22519.889      1000.9302      103.83771      2815.224      -1881.196      -642.36542      1818.0858    
  28670000   269.13321     -399.59701     -309.46079     -399.55798      0              2037.9422      31.216999      21.524542      33.579002      22562.792      4625.424       135.87619      1352.5263     -193.86709      786.24329      1030.9715    
  28672000   273.88514     -402.29879     -310.57109     -402.23559      0              3121.8673      31.216999      21.524542      33.374095      22425.109      2812.5115      3788.4072      2764.6831      651.45521     -868.25948      207.53931    
  28674000   274.57592     -400.02532     -308.06627     -400.00045      0              2259.9219      31.216999      21.524542      33.364156      22418.431      1082.8731      570.13889      5126.7538      604.16863     -439.51889      168.88774    
  28676000   275.93477     -402.54629     -310.13214     -402.5613       0              3563.1869      31.216999      21.524542      33.4755        22493.246      2747.9256      3805.9789      4135.6562     -380.5324       369.01682     -779.41649    
  28678000   273.78874     -400.7537      -309.05828     -400.77324      0              3525.9064      31.216999      21.524542      33.394288      22438.678      4770.8851      3537.5192      2269.315       97.569163     -2152.472       172.44073    
  28680000   272.39668     -400.24518     -309.01598     -400.24206      0              2253.417       31.216999      21.524542      33.581331      22564.358      3392.9613      1055.3445      2311.9452      598.15127      781.65372      1246.6085    
  28682000   273.34599     -400.18865     -308.64151     -400.14483      0              4091.3809      31.216999      21.524542      33.402455      22444.165      2769.0409      4649.4212      4855.6806      903.04761      1142.7238      519.64173    
  28684000   271.4053      -400.38856     -309.49139     -400.39729      0              2696.0437      31.216999      21.524542      33.366513      22420.015      2599.0773      3102.6098      2386.444      -211.68381      1014.1548      561.02447    
  28686000   276.72746     -402.3995      -309.71987     -402.40636      0              4497.5309      31.216999      21.524542      33.66161       22618.3        4785.6234      4543.3487      4163.6204     -524.84882     -570.14328     -1216.9599    
  28688000   281.2713      -401.32981     -307.12839     -401.37879      0              3224.672       31.216999      21.524542      33.75803       22683.087      2990.9475      4119.267       2563.8016     -897.49831      1956.4951     -717.23167    
  28690000   276.10678     -399.70837     -307.23661     -399.68298      0              2502.7309      31.216999      21.524542      33.564411      22552.989      2771.2864      2495.1114      2241.7949     -154.8564       217.21271     -406.61063    
  28692000   275.37337     -398.54912     -306.32298     -398.54678      0              5483.3422      31.216999      21.524542      33.531817      22531.087      7028.1354      3906.5313      5515.36        476.88401     -190.4137      -342.24133    
  28694000   274.86363     -400.14311     -308.0877      -400.18404      0              3056.2325      31.216999      21.524542      33.768079      22689.84       3073.319       2101.0834      3994.2951      477.66494     -179.93447      188.89738    
  28696000   271.82629     -398.11943     -307.08126     -398.15541      0              4015.8356      31.216999      21.524542      33.485107      22499.702      2658.1491      5308.9216      4080.436       829.44698      715.7399      -2349.2038    
  28698000   274.26277     -399.90931     -308.05513     -399.93422      0              1896.7972      31.216999      21.524542      33.582083      22564.863      2481.9327      3206.546       1.9127884     -1845.6306      79.604413     -270.48042    
  28700000   273.56419     -399.74764     -308.12742     -399.76137      0              3282.9809      31.216999      21.524542      33.483589      22498.682      2203.579       3010.0431      4635.3206     -345.05319      87.806551     -575.97778    
  28702000   276.68197     -401.30845     -308.64405     -401.3039       0              2102.6234      31.216999      21.524542      33.535045      22533.257      1796.6614      2743.591       1767.6178      454.23994     -426.39982     -816.6388     
  28704000   276.11449     -402.06039     -309.58604     -402.06569      0              4952.3814      31.216999      21.524542      33.481309      22497.15       3002.9901      6297.6368      5556.5172      785.4286      -724.59912      757.27611    
  28706000   275.09931     -395.10235     -302.968       -395.15158      0              4130.7396      31.216999      21.524542      33.355882      22412.871      2917.2359      3721.5097      5753.4733      1452.1721      1647.988      -474.82765    
  28708000   278.54585     -400.22006     -306.93142     -400.24213      0              3462.9264      31.216999      21.524542      33.410891      22449.834      3120.1477      4569.8312      2698.8001     -1425.1545      1029.078       398.66676    
  28710000   277.22391     -398.14933     -305.30343     -398.16016      0              2904.9288      31.216999      21.524542      33.468686      22488.668      2672.3929      1440.0866      4602.3069      380.96407      1338.443       1684.0377    
  28712000   277.60062     -400.08629     -307.11423     -400.09781      0              2817.7134      31.216999      21.524542      33.483945      22498.921      971.48874      3672.7128      3808.9388      641.839       -1085.2948      2.2603462    
  28714000   281.19519     -398.21319     -304.03725     -398.25342      0              2024.5531      31.216999      21.524542      33.538441      22535.538      3428.0223      970.46727      1675.1697     -816.51023      458.15226     -2003.9208    
  28716000   280.7275      -397.77731     -303.75801     -397.89571      0              3395.16        31.216999      21.524542      33.385022      22432.452      923.87327      5713.3307      3548.2762     -110.03464      903.37112     -586.29814    
  28718000   274.53087     -399.14385     -307.19988     -399.22054      0              2377.9794      31.216999      21.524542      33.265459      22352.113      1677.8941      4238.9527      1217.0913      156.66383      344.40286     -711.06311    
  28720000   267.59704     -398.57352     -308.95178     -398.58757      0              2071.9663      31.216999      21.524542      33.329278      22394.995      1488.6663      1404.8974      3322.3353      225.62128     -1379.6636      596.12097    
  28722000   273.65576     -402.2285      -310.57761     -402.24078      0              3994.647       31.216999      21.524542      33.295886      22372.558      3283.0115      2672.5031      6028.4265     -411.97274      958.56779     -671.89647    
  28724000   279.85459     -397.28488     -303.55793     -397.29375      0              4801.0867      31.216999      21.524542      33.146662      22272.29       3489.9002      5660.3152      5253.0447      2781.0504     -1098.1867     -884.54586    
[...]
  30270000   273.13464     -406.01985     -314.54349     -405.67387      0              3131.6533      31.216999      21.524542      33.308009      22380.704      4048.6031      2122.9353      3223.4216     -1157.647      -1336.0919      1363.4078    
  30272000   271.82889     -406.1406      -315.10156     -405.82577      0              3653.4911      31.216999      21.524542      33.171723      22289.129      6633.3647      2513.254       1813.8545      1574.6522     -1636.6497     -531.08616    
  30274000   279.27378     -403.98311     -310.45068     -403.62734      0              4716.7364      31.216999      21.524542      33.224831      22324.814      7007.765       4590.1609      2552.2831     -678.3367      -452.16195     -1061.9827    
  30276000   280.93414     -407.40237     -313.31387     -407.11362      0              3218.2609      31.216999      21.524542      33.391561      22436.845      4485.9471      1054.5535      4114.282      -620.97932     -1840.4058      254.46708    
  30278000   273.7653      -403.91563     -312.22806     -403.63752      0              4541.8932      31.216999      21.524542      33.238663      22334.109      5579.7543      2906.4545      5139.4707     -1595.0919     -1008.9147      448.98007    
  30280000   276.89642     -403.25415     -310.51793     -402.9002       0              2420.257       31.216999      21.524542      33.392983      22437.801      2831.5527      2117.9085      2311.3099      112.16028     -871.91189      99.653283    
  30282000   276.52002     -402.61187     -310.00172     -402.40221      0              3410.8744      31.216999      21.524542      33.429358      22462.242      4329.0434      2562.499       3341.0807      13.761991     -1361.6809      1085.1164    
  30284000   275.55335     -404.43996     -312.15355     -404.22348      0              3070.7691      31.216999      21.524542      33.60635       22581.168      2787.7237      3449.9409      2974.6426     -553.6054       905.32366     -2666.6513    
  30286000   271.31998     -405.10376     -314.23516     -404.75737      0              223.15108      31.216999      21.524542      33.558554      22549.053      535.41434     -533.76695      667.80585     -616.98274     -778.92378      132.6229     
  30288000   281.90777     -402.23029     -307.8157      -401.91771      0              2855.698       31.216999      21.524542      33.55792       22548.627      3191.2437      2854.2304      2521.62       -590.10529     -1234.3533      1724.3558    
  30290000   270.9925      -403.02462     -312.2657      -402.69687      0              2292.3836      31.216999      21.524542      33.32002       22388.775      2750.4756      1761.313       2365.3621     -699.6064       763.81528     -717.82203    
  30292000   276.60648     -406.46989     -313.83078     -406.09974      0              1427.1708      31.216999      21.524542      33.406661      22446.992      2528.4322      835.85932      917.22097     -121.4284       661.11653      714.68548    
  30294000   279.21876     -403.82696     -310.31296     -403.47523      0              3380.02        31.216999      21.524542      33.448759      22475.279      3660.8583      4396.394       2082.8078      465.41282      349.94574     -17.613653    
  30296000   272.85858     -402.8492      -311.46531     -402.50331      0              2485.8202      31.216999      21.524542      33.580379      22563.718      3763.645       1804.887       1888.9286     -110.18385     -760.03884     -472.77765    
  30298000   277.66099     -404.82983     -311.83754     -404.50931      0              4209.5579      31.216999      21.524542      33.550017      22543.317      2567.4634      5497.3933      4563.8171     -2199.5906      244.59898      151.19749    
  30300000   267.76256     -402.96048     -313.28331     -402.60697      0              1185.5725      31.216999      21.524542      33.502542      22511.417      1799.4905     -533.23548      2290.4625      524.1261       1403.7643     -1083.06      
  30302000   273.46939     -407.30657     -315.7181      -406.96026      0              2299.3957      31.216999      21.524542      33.473592      22491.965      3186.731       142.41671      3569.0393     -3016.8255     -258.53055      2468.788     
  30304000   273.36093     -407.12991     -315.57777     -406.77993      0              2381.2162      31.216999      21.524542      33.609557      22583.324      2405.9987      2308.2485      2429.4014      520.1011      -451.23965      384.68087    
  30306000   267.5698      -406.65636     -317.04375     -406.25382      0              4266.4426      31.216999      21.524542      33.482229      22497.768      3491.5154      3919.1965      5388.6159     -1200.5669     -233.84161     -574.41052    
  30308000   279.002       -404.15127     -310.70987     -403.73861      0              356.96781      31.216999      21.524542      33.605738      22580.757      296.43879     -78.002411      852.46706      561.51906     -199.17333     -812.87249    
  30310000   285.66649     -404.79426     -309.12083     -404.48411      0              2270.7048      31.216999      21.524542      33.448205      22474.906      1415.8821      2095.6393      3300.593      -538.02631     -545.66799      1069.0815    
  30312000   274.80607     -400.96795     -308.93182     -400.61256      0              4192.0404      31.216999      21.524542      33.393728      22438.301      2734.2435      4605.0124      5236.8653      413.72686      1103.5547      157.88506    
  30314000   278.78935     -407.67053     -314.30034     -407.35476      0              2034.1341      31.216999      21.524542      33.545819      22540.496      2971.184       2634.673       496.54524     -729.41132      518.81838     -717.3596     
  30316000   277.23065     -402.80644     -309.95828     -402.5114       0              2392.9656      31.216999      21.524542      33.526801      22527.717      1947.8464      2717.8865      2513.1639     -532.85311     -583.76199     -450.03241    
  30318000   279.28308     -406.85586     -313.32031     -406.50323      0              3546.1129      31.216999      21.524542      33.57782       22561.998      3182.2254      3284.2686      4171.8447      2672.2711     -399.39256     -901.01598    
  30320000   282.23116     -404.67412     -310.15123     -404.32417      0              5820.4486      31.216999      21.524542      33.354193      22411.736      5893.7478      6257.313       5310.2849     -113.43627     -1174.139      -311.94145    
  30322000   278.38216     -400.81121     -307.57739     -400.50769      0              2874.9575      31.216999      21.524542      33.522686      22524.952      2053.2411      5051.4867      1520.1446     -1467.1498      58.89425       182.73346    
  30324000   283.25821     -403.41306     -308.54619     -402.99253      0              3832.9673      31.216999      21.524542      33.217853      22320.125      5045.952       4381.8043      2071.1455      924.66489     -1168.1003      1152.1341    
  30326000   272.65598     -406.01047     -314.69442     -405.56946      0              3829.909       31.216999      21.524542      33.388747      22434.954      3152.6752      3996.6307      4340.4212     -62.855882      383.0081      -69.748028    
  30328000   280.04831     -404.26887     -310.47704     -403.84094      0              3005.0486      31.216999      21.524542      33.677111      22628.715      1395.4361      4170.5468      3449.1628      1371.1462      790.24105     -190.27169    
  30330000   287.22318     -403.40081     -307.20602     -402.95562      0              3141.4927      31.216999      21.524542      33.479603      22496.003      3116.8393      1248.0923      5059.5465      114.91999      217.94369     -213.27855    
  30332000   275.55331     -404.28086     -311.99447     -403.89471      0              2251.521       31.216999      21.524542      33.437549      22467.746      1569.7533      2434.851       2749.9586     -1784.7664      111.43877      64.972679    
  30334000   275.70339     -403.21348     -310.87682     -402.80954      0              2801.3103      31.216999      21.524542      33.437471      22467.693      4142.662       1018.6927      3242.5762     -2069.143       2504.8881     -869.88008    
  30336000   274.75164     -404.75802     -312.74011     -404.32119      0              2987.685       31.216999      21.524542      33.489123      22502.4        2684.2228      2549.3993      3729.433       144.28757     -659.99652      347.67247    
  30338000   272.84478     -401.13026     -309.75099     -400.78036      0              693.5567       31.216999      21.524542      33.613418      22585.918      1252.9112     -405.31839      1233.0773      1111.9046     -75.44758      -149.3997     
  30340000   273.10614     -401.38367     -309.91687     -400.99813      0              4143.9117      31.216999      21.524542      33.723817      22660.098      4604.7269      6324.9581      1502.0502     -966.24453      833.67204     -944.15793    
  30342000   279.32689     -402.90573     -309.35552     -402.55606      0              1671.4573      31.216999      21.524542      33.484283      22499.148      1141.6513      2266.6824      1606.0381     -14.484227     -16.900406     -140.75641    
  30344000   275.3663      -402.71733     -310.49357     -402.30493      0              2909.3447      31.216999      21.524542      33.306071      22379.402      3287.1164      2690.419       2750.4987     -1385.913       351.63587     -764.32682    
  30346000   274.15073     -400.12864     -308.31199     -399.77892      0              4147.0177      31.216999      21.524542      33.104143      22243.72       4985.8091      3431.0223      4024.2216      145.37083     -2184.7537      529.71285    
  30348000   271.05958     -403.8596      -313.07822     -403.50706      0              3847.357       31.216999      21.524542      33.06108       22214.784      3987.2596      4796.801       2758.0104      2467.2854     -539.78232      1356.4308    
  30350000   271.68577     -405.32686     -314.33575     -405.03151      0              1610.8069      31.216999      21.524542      33.373041      22424.401      1475.7464     -116.04619      3472.7204     -33.856392     -788.99235     -251.53323    
  30352000   271.95388     -405.68283     -314.60193     -405.34383      0              4725.5665      31.216999      21.524542      33.113531      22250.028      6389.0519      3888.0261      3899.6214     -1237.3359     -815.65772      152.89149    
  30354000   276.30171     -404.12284     -311.58579     -403.79162      0              2894.666       31.216999      21.524542      33.251403      22342.669      1767.9964      3007.9057      3908.0958     -144.94832      1616.9611     -191.14314    
  30356000   273.02893     -403.24294     -311.80199     -402.9163       0              3251.4782      31.216999      21.524542      33.283635      22364.327      4372.0819      3525.7632      1856.5895     -914.40866      1670.6836     -187.83442    
  30358000   280.39327     -404.36305     -310.45569     -404.09485      0              3709.1152      31.216999      21.524542      33.141898      22269.088      3322.4754      4836.8103      2968.0599      955.16707     -896.40389      321.33639    
  30360000   274.23062     -405.35832     -313.51491     -405.13862      0              2349.5193      31.216999      21.524542      33.197719      22306.597      1205.1283      4306.4637      1536.9659     -664.38489      295.05469     -247.05261    
  30362000   281.51581     -404.94827     -310.66496     -404.62327      0              3179.2212      31.216999      21.524542      33.253605      22344.148      3502.1941      2994.7888      3040.6807     -181.63988     -333.38526      24.844591    
  30364000   275.31581     -404.45886     -312.25201     -404.1052       0              4217.9467      31.216999      21.524542      33.09137       22235.137      2916.6238      5092.7962      4644.4202      2507.2857      1558.0737     -853.36266    
  30366000   276.58374     -402.34379     -309.71229     -402.03361      0              3363.7223      31.216999      21.524542      33.406528      22446.902      3844.0837      3452.1109      2794.9723      138.78813      302.67279      1433.0667    
  30368000   269.43643     -402.77033     -312.53256     -402.4454       0              3564.5379      31.216999      21.524542      33.311098      22382.779      3592.441       837.04081      6264.132      -214.47687      935.00963      699.11756    
  30370000   282.40692     -400.79804     -306.21628     -400.46         0              3221.9921      31.216999      21.524542      33.144729      22270.991      2928.7289      2546.0051      4191.2423     -42.460156      653.14614      2239.854     
  30372000   270.31169     -403.85085     -313.31994     -403.49666      0              961.88221      31.216999      21.524542      33.181187      22295.488      1496.5021      1500.338      -111.19348      282.61647      61.783172      361.96983    
  30374000   284.48618     -403.73835     -308.46022     -403.43765      0              6314.699       31.216999      21.524542      33.134306      22263.988      6448.5372      5207.8183      7287.7415      188.83039     -22.8086       -51.316033    
  30376000   281.70959     -403.89396     -309.54575     -403.49426      0              2832.3936      31.216999      21.524542      33.135558      22264.829      193.54507      4010.9265      4292.7093      87.092847     -43.981309      182.4723     
  30378000   275.86566     -403.40639     -311.01538     -402.97142      0              2539.722       31.216999      21.524542      33.219319      22321.111      5547.6859      1975.074       96.40623      -567.63591      346.3923      -121.34826    
  30380000   273.32408     -402.85032     -311.31053     -402.46269      0              1713.0995      31.216999      21.524542      33.202753      22309.979      1041.7648      1438.6012      2658.9325     -1400.2         1231.9714     -68.128701    
  30382000   273.24261     -402.56123     -311.04872     -402.21247      0              2147.8573      31.216999      21.524542      33.010181      22180.584     -391.92115      3357.8963      3477.5966      518.06586      1885.5176      2874.029     
  30384000   274.43775     -402.40232     -310.48954     -402.04837      0              1097.4213      31.216999      21.524542      33.184408      22297.652     -54.364833      1323.4628      2023.166      -827.92418      640.39416      2962.6911    
  30386000   273.22545     -404.59046     -313.08369     -404.20515      0              2109.8561      31.216999      21.524542      33.186113      22298.798      2648.8714      1804.7184      1875.9785     -42.979169      1614.0372      85.724052    
  30388000   280.08956     -403.86392     -310.05828     -403.46602      0              3872.0139      31.216999      21.524542      33.143959      22270.474      4318.9936      4903.828       2393.2201      926.43995      749.82106      526.23364    
  30390000   277.61637     -403.97999     -311.00265     -403.54059      0              2822.0087      31.216999      21.524542      33.479421      22495.881      1603.6939      4675.6285      2186.7036     -1151.9257      361.33936     -547.75089    
  30392000   270.4821      -402.86204     -312.27406     -402.41732      0              1596.2605      31.216999      21.524542      33.247473      22340.028      2460.8033      330.14525      1997.833      -361.45026     -2500.3987     -1163.757     
  30394000   275.83934     -406.05632     -313.67413     -405.63448      0              3837.1861      31.216999      21.524542      33.191853      22302.655      4453.513       3167.1195      3890.9259      998.81819      2110.7611      1475.8725    
  30396000   273.02339     -404.91652     -313.47743     -404.48299      0              1850.4761      31.216999      21.524542      33.299724      22375.137      2766.2477      238.36881      2546.8117      337.04196     -675.37619     -626.02153    
  30398000   276.23336     -405.82769     -313.31354     -405.47387      0              2103.3518      31.216999      21.524542      33.162482      22282.92       349.42735      3660.13        2300.4979      45.58104       935.16166      110.19907    
  30400000   283.83936     -405.50429     -310.44279     -405.06385      0              1163.0214      31.216999      21.524542      33.303166      22377.45      -790.875        1497.5622      2782.3771      474.04179      588.67664     -361.68955    
  30402000   273.78978     -404.26575     -312.56998     -403.82747      0              3322.1443      31.216999      21.524542      33.512866      22518.354      2308.5467      4673.8621      2984.0241     -648.7279       336.78137      363.89779    
  30404000   271.89957     -402.4852      -311.42249     -402.15947      0              1881.8625      31.216999      21.524542      33.339725      22402.015      2900.434       1407.8601      1337.2934     -1484.9691      1536.7589      228.77124    
  30406000   273.67961     -402.14906     -310.49019     -401.82527      0              3114.4445      31.216999      21.524542      33.43097       22463.326      2388.2858      6009.0647      945.98301     -813.29692      682.45685     -694.73408    
  30408000   270.51555     -404.15898     -313.5598      -403.83872      0              1641.2545      31.216999      21.524542      33.447287      22474.289      381.51661      2151.8489      2390.398      -205.40099      42.984554     -224.01842    
  30410000   276.15369     -403.18377     -310.6963      -402.88297      0              1575.641       31.216999      21.524542      33.427476      22460.978      619.14267      4573.3975     -465.61709      317.35065     -92.612958      604.87447    
  30412000   270.5673      -404.09592     -313.4794      -403.75266      0              2470.127       31.216999      21.524542      33.307525      22380.379      1543.9885      3574.0548      2292.3377      1539.5622     -21.901693      91.194598    
  30414000   271.07325     -402.83394     -312.04798     -402.535        0              3750.4749      31.216999      21.524542      33.371267      22423.209      2222.32        6444.0062      2585.0985      1099.438       1001.5315      197.21278    
  30416000   270.03574     -405.80743     -315.36894     -405.54175      0              2913.5685      31.216999      21.524542      33.353145      22411.032      2125.9519      3118.797       3495.9566      157.1069       481.10756      1504.8675    
  30418000   274.86389     -405.65147     -313.59597     -405.34128      0              4057.2477      31.216999      21.524542      33.242464      22336.662      4390.8567      3621.0765      4159.8099      726.4037      -689.80601     -235.27173    
  30420000   271.39086     -407.21266     -316.32033     -406.85986      0              1932.0376      31.216999      21.524542      33.135024      22264.47       2313.8254      796.27905      2686.0083     -2399.6083     -1725.0566      310.83636    
  30422000   273.7565      -403.86483     -312.18021     -403.55022      0              4591.1641      31.216999      21.524542      33.306968      22380.005      5323.0483      4151.2755      4299.1685     -769.47565     -159.12258     -1284.4968    
  30424000   275.5322      -407.37727     -315.09794     -407.02862      0              1023.6849      31.216999      21.524542      33.326301      22392.995      1406.3389      1191.8013      472.91443      1275.7071      249.05355     -381.38667    
ERROR on proc 0: Cannot open restart file restart2.lmp.0: Permission denied (../write_restart.cpp:233)
Last command: run             ${nsteps_enhanced_coex_upto} upto
