LAMMPS (23 Jun 2022)
include procedure.lmp
echo both
include		in.partitions
variable        pid world 0
include		in.temp
variable	temperature equal 275
variable        tempDamp equal 0.100 # this is 0.1 ps
include		in.pressure
variable        pressure equal 3039.75
variable        pressureDamp equal 1.0 #this is 1ps

variable	barostat string	   tri
variable	direction string   z
variable	direction_x_bool equal 0
variable	direction_y_bool equal 0
variable	direction_z_bool equal 1

include		in.seed
variable        seed world 745823

units           metal
atom_style	full
box tilt large
read_restart 	restart.lmp.${pid}
read_restart 	restart.lmp.0
Reading restart file ...
  restart file = 23 Jun 2022, LAMMPS = 23 Jun 2022
  restoring atom style full from restart
  triclinic box = (0 0 -0.77675311) to (31.216999 21.524542 32.572472) with tilt (-9.212092 0.77399814 -11.232785)
WARNING: Triclinic box skew is large (../domain.cpp:224)
  2 by 1 by 2 MPI processor grid
Summary of lammps deepmd module ...
  >>> Info of deepmd-kit:
  installed to:       /u/sigbjobo/software/DEEPMD_FROM_SOURCE/deepmd-kit/install
  source:             v2.1.3
  source branch:       master
  source commit:      5a32c49
  source commit at:   2022-07-01 09:52:58 +0800
  surpport model ver.:1.1 
  build float prec:   double
  build with tf inc:  /u/sigbjobo/software/DEEPMD_FROM_SOURCE/tensorflow/install/include;/u/sigbjobo/software/DEEPMD_FROM_SOURCE/tensorflow/install/include
  build with tf lib:  /u/sigbjobo/software/DEEPMD_FROM_SOURCE/tensorflow/install/lib/libtensorflow_cc.so;/u/sigbjobo/software/DEEPMD_FROM_SOURCE/tensorflow/install/lib/libtensorflow_framework.so
  set tf intra_op_parallelism_threads: 0
  set tf inter_op_parallelism_threads: 0
  >>> Info of lammps module:
  use deepmd-kit at:  /u/sigbjobo/software/DEEPMD_FROM_SOURCE/deepmd-kit/install
  source:             v2.1.3
  source branch:      master
  source commit:      5a32c49
  source commit at:   2022-07-01 09:52:58 +0800
  build float prec:   double
  build with tf inc:  /u/sigbjobo/software/DEEPMD_FROM_SOURCE/tensorflow/install/include;/u/sigbjobo/software/DEEPMD_FROM_SOURCE/tensorflow/install/include
  build with tf lib:  /u/sigbjobo/software/DEEPMD_FROM_SOURCE/tensorflow/install/lib/libtensorflow_cc.so;/u/sigbjobo/software/DEEPMD_FROM_SOURCE/tensorflow/install/lib/libtensorflow_framework.so
  restoring pair style deepmd from restart
  2592 atoms
Finding 1-2 1-3 1-4 neighbors ...
  special bond factors lj:    0        0        0       
  special bond factors coul:  0        0        0       
     0 = max # of 1-2 neighbors
     0 = max # of 1-3 neighbors
     0 = max # of 1-4 neighbors
     1 = max # of special neighbors
  special bonds CPU = 0.000 seconds
  read_restart CPU = 0.006 seconds
include 	in.setup
variable	out_freq equal 2000
variable	out_freq2 equal 2000

timestep        0.0005

neigh_modify    delay 7 every 1

include         in.deepmd
# This is deepMD model

# create groups ###
#group ox type 2
#group hy type 1

mass 2 15.999
mass 1 1.008

pair_style      deepmd ../graph.pb
pair_coeff      * *

bond_style      none
angle_style     none
dihedral_style  none
improper_style  none
neigh_modify exclude none


neighbor        2.0 bin
neigh_modify    every 50 delay 0 check no

thermo          ${out_freq}
thermo          2000
thermo_style 	custom step temp pe etotal epair emol press lx ly lz vol pxx pyy pzz pxy pxz pyz

restart 	${out_freq} restart.lmp.${pid} restart2.lmp.${pid}
restart 	2000 restart.lmp.${pid} restart2.lmp.${pid}
restart 	2000 restart.lmp.0 restart2.lmp.${pid}
restart 	2000 restart.lmp.0 restart2.lmp.0


timer           timeout 23:50:00 every 1000
New timer settings: style=normal  mode=nosync  timeout=23:50:00


# Set number of time steps
variable 	nsteps_wall		equal	 6000000
variable 	nsteps_enhanced_coex    equal	300000000

variable     nsteps_enhanced_coex_upto equal (${nsteps_wall}+${nsteps_enhanced_coex})
variable     nsteps_enhanced_coex_upto equal (6000000+${nsteps_enhanced_coex})
variable     nsteps_enhanced_coex_upto equal (6000000+300000000)


# Set temperature for first step
if "$(step) < 1  " then    "velocity 	all create ${temperature} ${seed} dist gaussian"


# Always run thermo and barostat


######################################
# Run simulation with wall potential #
######################################
if " $(step) < ${nsteps_wall} " then    "fix             3 all plumed plumedfile plumed.equil.dat outfile plumed.equil.out"   "fix             1 all nph ${direction} ${pressure} ${pressure} ${pressureDamp}"   "fix             2 all temp/csvr ${temperature} ${temperature} ${tempDamp} ${seed}"   "run             ${nsteps_wall} upto"
if " $(step) == ${nsteps_wall} " then    "unfix 3"   "unfix 1"   "unfix 2"


############################
# Run enhanced coesistence #
############################
if "$(step) == ${nsteps_wall}" then    "fix             3 all plumed plumedfile plumed.start.dat outfile plumed.out" else    "fix             3 all plumed plumedfile plumed.dat outfile plumed.out"
fix             3 all plumed plumedfile plumed.dat outfile plumed.out

if "$(step) < ${nsteps_enhanced_coex_upto} && $(step) >= ${nsteps_wall} " then    "include         in.dump"    "fix             1 all nph ${direction} ${pressure} ${pressure} ${pressureDamp}"   "fix             2 all temp/csvr ${temperature} ${temperature} ${tempDamp} ${seed}"   "run             ${nsteps_enhanced_coex_upto} upto"    "unfix 3"   "unfix 1"   "unfix 2"
include         in.dump
dump            myDump all atom ${out_freq2} dump.water.${pid}
dump            myDump all atom 2000 dump.water.${pid}
dump            myDump all atom 2000 dump.water.0
dump            myDump2 all dcd ${out_freq2} dump.${pid}.dcd
dump            myDump2 all dcd 2000 dump.${pid}.dcd
dump            myDump2 all dcd 2000 dump.0.dcd
dump_modify     myDump append yes
dump_modify     myDump2 append yes

fix             1 all nph ${direction} ${pressure} ${pressure} ${pressureDamp}
fix             1 all nph z ${pressure} ${pressure} ${pressureDamp}
fix             1 all nph z 3039.75 ${pressure} ${pressureDamp}
fix             1 all nph z 3039.75 3039.75 ${pressureDamp}
fix             1 all nph z 3039.75 3039.75 1
Resetting global fix info from restart file:
  fix style: nph, fix ID: 1
fix             2 all temp/csvr ${temperature} ${temperature} ${tempDamp} ${seed}
fix             2 all temp/csvr 275 ${temperature} ${tempDamp} ${seed}
fix             2 all temp/csvr 275 275 ${tempDamp} ${seed}
fix             2 all temp/csvr 275 275 0.1 ${seed}
fix             2 all temp/csvr 275 275 0.1 745823
Resetting global fix info from restart file:
  fix style: temp/csvr, fix ID: 2
run             ${nsteps_enhanced_coex_upto} upto
run             306000000 upto

CITE-CITE-CITE-CITE-CITE-CITE-CITE-CITE-CITE-CITE-CITE-CITE-CITE

Your simulation uses code contributions which should be cited:

- USER-DEEPMD package:

@article{Wang_ComputPhysCommun_2018_v228_p178,
  author = {Wang, Han and Zhang, Linfeng and Han, Jiequn and E, Weinan},
  doi = {10.1016/j.cpc.2018.03.016},
  url = {https://doi.org/10.1016/j.cpc.2018.03.016},
  year = 2018,
  month = {jul},
  publisher = {Elsevier {BV}},
  volume = 228,
  journal = {Comput. Phys. Commun.},
  title = {{DeePMD-kit: A deep learning package for many-body potential energy representation and molecular dynamics}},
  pages = {178--184}
}

CITE-CITE-CITE-CITE-CITE-CITE-CITE-CITE-CITE-CITE-CITE-CITE-CITE

Generated 0 of 1 mixed pair_coeff terms from geometric mixing rule
All restart file global fix info was re-assigned
Neighbor list info ...
  update every 50 steps, delay 0 steps, check no
  max neighbors/atom: 2000, page size: 100000
  master list distance cutoff = 8
  ghost atom cutoff = 8
  binsize = 4, bins = 11 9 9
  1 neighbor lists, perpetual/occasional/extra = 1 0 0
  (1) pair deepmd, perpetual
      attributes: full, newton on
      pair build: full/bin
      stencil: full/bin/3d
      bin: standard
Per MPI rank memory allocation (min/avg/max) = 7.297 | 7.299 | 7.3 Mbytes
   Step          Temp          PotEng         TotEng         E_pair         E_mol          Press            Lx             Ly             Lz           Volume          Pxx            Pyy            Pzz            Pxy            Pxz            Pyz      
 196952000   272.93754     -399.65216     -308.24182     -399.65216      0              3489.5928      31.216999      21.524542      33.349225      22408.398      3180.1897      4648.5623      2640.0264      1642.2949      847.64126     -1175.8241    
 196954000   276.5875      -399.40031     -306.76755     -399.03378      0              4099.0716      31.216999      21.524542      33.425833      22459.874      4559.4967      3900.0238      3837.6942      644.17449     -1973.3505     -1336.3413    
 196956000   272.53898     -401.15552     -309.87866     -400.87402      0              2099.9244      31.216999      21.524542      33.340361      22402.442      2384.1814      1567.0789      2348.5129      568.38149      1820.7497     -715.64932    
 196958000   267.56316     -400.5982      -310.98781     -400.25469      0              1064.5909      31.216999      21.524542      33.275768      22359.04       1192.9822      747.80821      1252.9823      104.98858      1558.5768     -1161.3247    
 196960000   272.98501     -406.59153     -315.16529     -406.20166      0              3586.4061      31.216999      21.524542      33.224629      22324.678      2819.1559      3568.9621      4371.1004      22.685925     -1138.3514     -1023.651     
 196962000   283.90872     -400.20733     -305.1226      -399.87305      0              1358.2112      31.216999      21.524542      33.353057      22410.973      2349.2881      2518.0623     -792.71688      949.50027      1611.0404     -347.00198    
 196964000   273.76893     -404.83014     -313.14136     -404.44494      0              3547.7816      31.216999      21.524542      33.460358      22483.072      3754.7112      3647.2418      3241.3918     -4.1813912      3275.0792      1030.6267    
 196966000   278.34239     -399.41928     -306.19879     -399.15311      0              2325.0961      31.216999      21.524542      33.579788      22563.321      3469.4911      2703.9965      801.80061      983.16273     -1438.9051      862.70017    
 196968000   274.78381     -405.7284      -313.69972     -405.38161      0              2710.6298      31.216999      21.524542      33.702152      22645.541      3484.8458      2751.6686      1895.375       737.0018       931.76869      173.35849    
 196970000   271.88482     -401.32219     -310.26441     -400.96283      0              2002.4081      31.216999      21.524542      33.501284      22510.572      647.07674      3036.6122      2323.5353      1094.8341     -507.71094      174.52915    
 196972000   269.50232     -402.27012     -312.01028     -401.90569      0              3527.0424      31.216999      21.524542      33.449087      22475.498      2800.0626      3092.4542      4688.6105     -1509.7076     -411.47007     -33.731004    
 196974000   274.49436     -400.71728     -308.78554     -400.34787      0              3371.9052      31.216999      21.524542      33.501098      22510.446      2685.8212      2624.8122      4805.0822     -322.08952     -787.96728     -722.49889    
 196976000   274.15943     -400.27494     -308.45537     -399.89538      0              3916.6856      31.216999      21.524542      33.534983      22533.215      4052.3481      2019.5013      5678.2075      315.46721      205.13663      757.05981    
 196978000   267.09388     -404.57256     -315.11934     -404.20362      0              3206.7797      31.216999      21.524542      33.617114      22588.402      1542.7293      2051.8963      6025.7135      635.77194     -117.98217      1421.1155    
 196980000   274.78163     -402.51367     -310.48572     -402.14684      0              3061.8368      31.216999      21.524542      33.601362      22577.817      4888.8164      2799.5585      1497.1355     -337.63868     -130.99281     -738.62825    
 196982000   271.6093      -403.7175      -312.752       -403.33894      0              1117.0115      31.216999      21.524542      33.500585      22510.102      49.438393      2648.8263      652.76966     -586.24641      1096.2997      364.78046    
 196984000   276.96602     -405.41094     -312.65141     -405.01974      0              3047.8804      31.216999      21.524542      33.399199      22441.977      4041.5752      2626.7083      2475.3577      1083.3678      569.88131     -215.68945    
 196986000   273.66099     -400.8891      -309.23647     -400.49977      0              4281.0218      31.216999      21.524542      33.295699      22372.433      4971.7055      2252.362       5618.998      -779.94382     -586.33054      760.07138    
 196988000   280.29481     -404.88815     -311.01376     -404.52819      0              4023.862       31.216999      21.524542      33.444987      22472.744      4343.6785      4366.771       3361.1365      716.30012      183.29554      731.53635    
 196990000   273.14169     -404.59659     -313.11788     -404.21621      0              4130.2134      31.216999      21.524542      33.181371      22295.612      5048.3578      2399.9698      4942.3127      552.86891      158.20998     -720.53265    
 196992000   272.07698     -399.08909     -307.96697     -398.7659       0              3584.1289      31.216999      21.524542      33.256265      22345.935      3064.4233      3605.086       4082.8776      1055.0358      532.51114      927.77293    
 196994000   274.74731     -404.50113     -312.48468     -404.11967      0              2894.2725      31.216999      21.524542      33.361069      22416.357      4000.9677      1334.0584      3347.7914      252.75112     -1174.2011      1702.9996    
 196996000   277.12464     -406.63272     -313.82006     -406.25857      0              2025.0784      31.216999      21.524542      33.394957      22439.127      3305.9852      1752.4149      1016.8352      537.34044      1403.8781     -1267.1513    
 196998000   277.50807     -405.08833     -312.14726     -404.69856      0              4511.7691      31.216999      21.524542      33.048405      22206.268      2759.0746      2856.2618      7919.9709     -639.86678      973.05917      195.82586    
 197000000   270.57006     -402.93146     -312.31402     -402.54013      0              3762.772       31.216999      21.524542      33.174594      22291.058      2381.3142      3237.6471      5669.3546     -55.653084      728.60156      1543.2444    
 197002000   273.20724     -404.46503     -312.96436     -404.07335      0              4152.3228      31.216999      21.524542      33.332917      22397.44       3324.3544      4564.5249      4568.0892     -125.81993      400.7485      -521.91677    
 197004000   274.98587     -401.91458     -309.81823     -401.52497      0              3271.6766      31.216999      21.524542      33.266674      22352.93       3330.3094      3044.3321      3440.3882      793.37709      1822.3817     -1318.1693    
 197006000   276.01809     -401.11005     -308.66799     -400.74805      0              2744.8523      31.216999      21.524542      33.271308      22356.044      3680.4469      3015.6772      1538.4327      204.30891      342.47318     -1485.1185    
 197008000   272.83278     -402.62231     -311.24705     -402.23088      0              3641.1772      31.216999      21.524542      33.448522      22475.119      1417.4908      5859.8394      3646.2012      1158.025      -632.29744     -705.90458    
 197010000   283.66492     -404.2558      -309.25273     -403.87185      0              1820.6424      31.216999      21.524542      33.338988      22401.52       1455.3512      409.50142      3597.0747      862.30654      174.35113      1454.9192    
 197012000   281.01181     -405.68662     -311.5721      -405.30483      0              3709.2926      31.216999      21.524542      33.455378      22479.726      4216.9583      3261.4217      3649.4977     -357.37667      1102.2291     -355.85576    
 197014000   275.39934     -401.91143     -309.6766      -401.58256      0              3565.9183      31.216999      21.524542      33.592959      22572.171      4870.1036      4328.0806      1499.5706     -479.21236      1212.0125     -1129.8186    
 197016000   271.31244     -402.86969     -312.00362     -402.49197      0              1562.2982      31.216999      21.524542      33.427817      22461.207      1273.367       4521.961      -1108.4333      252.99937      206.50515     -157.5294     
 197018000   282.35619     -403.77056     -309.20579     -403.39479      0              2735.8587      31.216999      21.524542      33.526332      22527.402      3001.7974      3269.4937      1936.2849     -218.2867      -342.4117      -283.28535    
 197020000   272.85167     -405.0908      -313.70922     -404.72815      0              2302.2775      31.216999      21.524542      33.550515      22543.651      3106.1766      2131.5609      1669.095      -1009.4937      593.32826      1448.7205    
 197022000   279.77235     -405.59581     -311.8964      -405.21544      0              1585.5354      31.216999      21.524542      33.6264        22594.641      557.04625      2016.9421      2182.618      -1559.8292      1773.7914     -2257.8066    
 197024000   276.22787     -403.3845      -310.87218     -402.99486      0              850.46654      31.216999      21.524542      33.553639      22545.75       1005.377       1286.5315      259.4911       532.82662      589.18649     -1307.797     
 197026000   276.68133     -402.71578     -310.0516      -402.33565      0              3724.5309      31.216999      21.524542      33.474896      22492.841      3760.4498      3071.6805      4341.4625      1076.6955     -391.84049      573.00216    
 197028000   275.76888     -402.76046     -310.40187     -402.38977      0              1985.4119      31.216999      21.524542      33.355043      22412.308      1968.572       501.9968       3485.667      -237.13692      211.68185      899.64457    
 197030000   276.54571     -404.58174     -311.96297     -404.1951       0              4156.2499      31.216999      21.524542      33.534614      22532.967      4489.7519      3397.7343      4581.2633      409.98597     -831.6183       563.23351    
 197032000   274.29256     -403.12736     -311.26321     -402.78793      0              3545.7773      31.216999      21.524542      33.380137      22429.169      2998.6144      2482.5577      5156.1597     -736.04295     -152.22172      50.088231    
 197034000   272.11147     -406.18043     -315.04676     -405.81397      0              2221.6091      31.216999      21.524542      33.359799      22415.503      2511.985       1258.9145      2893.9277      9.5031554     -820.07761     -405.62156    
 197036000   275.02218     -406.73389     -314.62537     -406.34866      0              576.68719      31.216999      21.524542      33.357886      22414.218      1234.0927      549.71017     -53.741316      141.85114     -1357.8318      1304.4932    
 197038000   273.39564     -405.74859     -314.18483     -405.35831      0              2646.8206      31.216999      21.524542      33.520447      22523.448      2357.6493      2676.969       2905.8433      179.60475      346.55324      191.34173    
 197040000   277.47095     -402.42559     -309.49695     -402.03559      0              4418.9013      31.216999      21.524542      33.451568      22477.166      5991.9134      3102.2568      4162.5336     -2357.8534     -1604.7687      1058.3814    
 197042000   279.48962     -406.53888     -312.93416     -406.17419      0              187.49021      31.216999      21.524542      33.28357       22364.282      35.169154      1150.4539     -623.15242      75.286873     -470.1104       1792.0238    
 197044000   277.03161     -405.97845     -313.19695     -405.58687      0              2515.8333      31.216999      21.524542      33.32377       22391.294      2887.8427      2884.2083      1775.4487     -1666.1277     -1178.0612     -274.13733    
 197046000   275.92808     -403.62034     -311.20843     -403.22881      0              2994.6479      31.216999      21.524542      33.328937      22394.766      1319.6239      2847.935       4816.3847      393.39717      714.60874     -532.768      
 197048000   273.19797     -406.08177     -314.58421     -405.69206      0              1559.7999      31.216999      21.524542      33.378531      22428.09       2165.7984      687.49948      1826.1018      448.68297     -882.37218     -144.01809    
 197050000   274.62193     -406.34904     -314.37458     -405.98927      0              2786.6666      31.216999      21.524542      33.291016      22369.286      3666.8555      1777.509       2915.6352      2781.863      -1274.8402     -1262.1972    
 197052000   273.76696     -406.42589     -314.73777     -406.07564      0              5433.3204      31.216999      21.524542      33.390604      22436.202      5809.9663      5406.9549      5083.0401      1088.8772     -489.43144      492.08875    
 197054000   281.7155      -404.26686     -309.91667     -403.8984       0              2104.9898      31.216999      21.524542      33.528782      22529.049      1334.4019      2526.4674      2454.0999     -1680.4679      290.65548      2231.9883    
 197056000   276.6116      -403.92818     -311.28734     -403.55593      0              2225.5504      31.216999      21.524542      33.401569      22443.57       177.52294      2955.9273      3543.2008     -982.29525      887.30059      214.5159     
 197058000   277.95015     -406.06745     -312.97832     -405.69453      0              1545.1577      31.216999      21.524542      33.393981      22438.472      1171.3217      1772.4036      1691.7479      1122.9496      404.75477     -411.06279    
 197060000   272.41024     -404.66417     -313.43043     -404.27757      0              4668.7874      31.216999      21.524542      33.278139      22360.634      2758.6615      5112.5553      6135.1453      496.64482      102.76224      968.50621    
 197062000   278.72869     -401.94315     -308.59328     -401.57507      0              898.76433      31.216999      21.524542      33.386243      22433.272     -1150.9572      1924.3514      1922.8987      1834.9246      1051.0419      1499.1303    
 197064000   272.84628     -406.016       -314.63622     -405.64199      0              2005.3422      31.216999      21.524542      33.402935      22444.488      3423.4557      781.58945      1810.9813     -349.43924     -1385.504       327.65332    
 197066000   284.45661     -402.47292     -307.2047      -402.2021       0              1203.7663      31.216999      21.524542      33.567007      22554.733      127.5875       1470.1062      2013.6052     -168.84796      924.04775     -415.78775    
 197068000   275.64261     -402.10059     -309.78429     -401.73085      0              3108.919       31.216999      21.524542      33.312056      22383.424      5429.9569      2343.2611      1553.5389      1158.7402      560.36335      316.88022    
 197070000   268.90261     -405.9994      -315.94041     -405.62561      0              1891.8429      31.216999      21.524542      33.523923      22525.784      327.909        2842.8466      2504.7732      131.91431     -390.30122     -584.12665    
 197072000   281.78586     -402.17578     -307.80202     -401.79272      0              1929.1274      31.216999      21.524542      33.52913       22529.282      2370.8358      2673.2412      743.30516      258.98724      1271.0217     -1342.2647    
 197074000   275.10879     -404.36531     -312.22779     -404.00176      0              4392.6338      31.216999      21.524542      33.498847      22508.934      4199.693       3778.84        5199.3683      140.88384     -851.59404     -851.63531    
 197076000   274.69608     -404.14088     -312.14158     -403.77286      0              1897.8833      31.216999      21.524542      33.491857      22504.237      2586.5605      1878.9542      1228.1351      2146.9067      423.48732     -1036.3172    
 197078000   274.73634     -404.8144      -312.80162     -404.42278      0              3788.6378      31.216999      21.524542      33.274112      22357.927      3935.1404      4180.6091      3250.1638      908.33926      501.13819     -678.55953    
 197080000   271.6291      -402.47504     -311.50292     -402.08409      0              2412.4265      31.216999      21.524542      33.320133      22388.851      1029.307       4396.5994      1811.3731     -870.18249      1334.8741     -1438.2566    
 197082000   279.57755     -403.32961     -309.69545     -402.93803      0              2233.8872      31.216999      21.524542      33.261076      22349.168      1831.5658      2466.8219      2403.274       1878.8647     -803.92058      815.08737    
 197084000   271.81234     -403.22672     -312.19323     -402.88194      0              2342.1168      31.216999      21.524542      33.205368      22311.736      1404.833       2590.6399      3030.8775     -1054.1545     -684.06263     -415.82626    
 197086000   276.80242     -402.29997     -309.59523     -401.9119       0              4179.5035      31.216999      21.524542      33.440473      22469.711      4194.881       4466.3375      3877.2919     -51.49401      -18.026333      427.66234    
 197088000   281.98874     -402.44727     -308.00557     -402.07273      0              3694.9043      31.216999      21.524542      33.377         22427.061      1418.2155      1949.8445      7716.6528     -1545.0411     -470.34666     -424.15482    
 197090000   275.70366     -404.22352     -311.88677     -403.84903      0              1261.6943      31.216999      21.524542      33.225566      22325.308     -1180.1332      2118.9548      2846.2614      886.58629     -319.45992      456.0862     
 197092000   267.44962     -404.54573     -314.97337     -404.16792      0              3127.5456      31.216999      21.524542      33.248075      22340.432      1404.6436      4889.9638      3088.0293     -1450.3512      582.1394       750.56319    
 197094000   272.83367     -405.8247      -314.44915     -405.44789      0              3394.7367      31.216999      21.524542      33.423258      22458.143      3087.212       2756.9938      4340.0042      1855.9341     -249.02848      452.47986    
 197096000   270.18494     -407.23618     -316.74772     -406.86376      0              4014.3482      31.216999      21.524542      33.411678      22450.363      5591.9389      3149.8639      3301.2419      723.35303      54.140741     -952.23396    
 197098000   273.55978     -407.26072     -315.64198     -406.88929      0              2587.3924      31.216999      21.524542      33.119357      22253.943      1511.7291      2781.7393      3468.7089      1170.3447      397.22438     -611.96173    
 197100000   286.83445     -405.12184     -309.05724     -404.8209       0              6568.8416      31.216999      21.524542      33.217381      22319.808      7429.1072      5035.1327      7242.285       658.37949     -176.27523      1155.1224    
 197102000   268.78546     -404.44843     -314.42868     -404.05986      0              123.65679      31.216999      21.524542      33.296169      22372.749      703.16837      94.706807     -426.9048       661.87104     -294.13306     -99.290491    
 197104000   275.63025     -408.14185     -315.82969     -407.75031      0              4769.068       31.216999      21.524542      33.280978      22362.541      3775.2134      4456.0974      6075.8932      1508.1684      217.39207      1487.1917    
 197106000   272.61682     -405.63573     -314.3328      -405.2458       0              2079.5931      31.216999      21.524542      33.395845      22439.724      1377.2989      3068.3042      1793.1761     -15.485068      188.73086      294.61318    
 197108000   277.20891     -403.49672     -310.65584     -403.1125       0              2270.1831      31.216999      21.524542      33.146792      22272.377      1114.9497      3479.573       2216.0265     -1001.6419     -90.481908     -1007.6454    
 197110000   269.89598     -403.74146     -313.34978     -403.36055      0              2744.9177      31.216999      21.524542      33.285323      22365.46       2544.3719      2287.7388      3402.6425      1613.3633     -410.12713      1528.8844    
 197112000   268.48645     -402.88366     -312.96405     -402.4921       0              5217.4945      31.216999      21.524542      33.346461      22406.541      7379.5359      4869.7623      3403.1853      352.23049     -1448.264      -602.81577    
 197114000   274.66297     -406.84192     -314.85371     -406.48104      0              2231.7361      31.216999      21.524542      33.318808      22387.96       2898.8604      1075.0423      2721.3055      1484.6346     -433.8124       77.692501    
 197116000   274.74433     -404.56816     -312.5527      -404.20002      0              4127.7353      31.216999      21.524542      33.378827      22428.289      2442.102       3637.2675      6303.8364     -99.43254       1461.6808      829.80242    
 197118000   270.57553     -404.34096     -313.72169     -403.97861      0              4272.2609      31.216999      21.524542      33.129118      22260.502      2179.2522      5139.1758      5498.3546      299.56214     -435.38366     -1003.6079    
 197120000   280.09647     -403.46344     -309.65548     -403.07549      0              2205.078       31.216999      21.524542      33.34074       22402.697      2371.9263      2304.0675      1939.2402     -1657.2041     -1051.0672     -90.021507    
 197122000   268.88723     -402.13219     -312.07835     -401.74908      0              3858.851       31.216999      21.524542      33.275113      22358.6        3331.9962      5173.5161      3071.0406      1093.6711     -1199.129      -2501.2648    
 197124000   267.28624     -404.78663     -315.26898     -404.41969      0              5113.8438      31.216999      21.524542      33.120618      22254.79       3149.0107      5082.4103      7110.1106     -348.29742     -1123.3088     -844.67797    
 197126000   276.27243     -407.78128     -315.25404     -407.38973      0              2151.5541      31.216999      21.524542      33.525631      22526.931      3860.4323      1071.0674      1523.1625     -86.499469      1877.0351     -335.2063     
 197128000   274.25945     -404.19653     -312.34347     -403.80546      0              4109.9357      31.216999      21.524542      33.561454      22551.002      4158.3507      4990.8773      3180.5791     -54.127105      801.18811     -173.86202    
 197130000   275.69322     -406.56318     -314.22993     -406.17906      0              3191.3345      31.216999      21.524542      33.408936      22448.52       2851.2361      3457.9061      3264.8613      1011.0462     -422.42193      1835.0495    
 197132000   273.93301     -403.70064     -311.9569      -403.31444      0              3720.5594      31.216999      21.524542      33.45342       22478.41       4279.5957      5952.4614      929.62113      1138.8179      707.27743     -392.31656    
 197134000   274.78683     -405.48594     -313.45624     -405.09609      0              2560.5389      31.216999      21.524542      33.611785      22584.821      1632.1924      2370.3656      3679.0588     -115.19093      1242.8461      1068.1573    
 197136000   275.74569     -406.51231     -314.16149     -406.12523      0              1988.3622      31.216999      21.524542      33.506024      22513.756      1642.1847      2359.3915      1963.5103     -764.01554     -294.17622      287.22076    
 197138000   271.6429      -404.50809     -313.53134     -404.18203      0              3761.6448      31.216999      21.524542      33.493655      22505.445      4786.6328      3676.0729      2822.2287      639.51165     -423.02388     -1599.0389    
 197140000   275.63073     -409.19748     -316.88516     -408.85053      0              2578.014       31.216999      21.524542      33.326315      22393.005      2392.9057      1926.575       3414.5614      776.01983      1077.786      -209.28392    
 197142000   279.77298     -399.75815     -306.05853     -399.44778      0             -71.606525      31.216999      21.524542      33.522788      22525.02      -89.814535      1713.1558     -1838.1609     -1145.278      -770.97724      116.5727     
 197144000   270.02564     -404.42625     -313.99114     -404.06401      0              4433.01        31.216999      21.524542      33.128252      22259.919      4225.3336      3502.8453      5570.8512     -135.70868      1713.2358     -118.3734     
 197146000   271.71726     -404.45299     -313.45134     -404.06197      0              2114.0439      31.216999      21.524542      33.56203       22551.388      1446.9733      2702.3491      2192.8095      347.26141      1341.3138      899.57316    
 197148000   275.86384     -401.36198     -308.97158     -400.97963      0              2510.1621      31.216999      21.524542      33.521402      22524.09       1688.5324      2396.575       3445.3787      106.78771     -198.82248      199.86225    
 197150000   273.96179     -405.28151     -313.52814     -404.89115      0              2116.8793      31.216999      21.524542      33.34327       22404.397      992.00313      2081.6056      3277.0291      924.43734     -31.660928     -311.99648    
 197152000   272.6484      -402.23209     -310.91859     -401.85672      0              2392.1308      31.216999      21.524542      33.514668      22519.565      2263.646       1179.1028      3733.6436     -727.81103     -115.58962      634.69004    
 197154000   277.94174     -404.49849     -311.41218     -404.11713      0              4302.9026      31.216999      21.524542      33.280426      22362.17       3046.0229      5042.1149      4820.5701      353.22735     -615.03145      146.28568    
 197156000   271.84682     -406.3979      -315.35286     -406.05667      0              3308.1359      31.216999      21.524542      33.395708      22439.632      2884.4722      3452.4685      3587.4669     -538.72585      850.88962     -156.35956    
 197158000   278.37738     -404.1764      -310.94418     -403.80342      0              810.908        31.216999      21.524542      33.583033      22565.501      706.61813     -818.87572      2544.9816      154.15447      344.5547       626.46608    
 197160000   276.99051     -407.2372      -314.46946     -406.84792      0              2250.5133      31.216999      21.524542      33.294334      22371.515      1884.9226      2056.4379      2810.1793     -848.09932     -744.53959     -1474.672     
 197162000   274.19639     -404.34564     -312.51369     -403.97909      0              4036.8573      31.216999      21.524542      33.522385      22524.75       4307.5564      4645.1077      3157.9076     -1365.4694     -2196.0104     -931.9059     
 197164000   278.86091     -402.03895     -308.64479     -401.68276      0              1742.7307      31.216999      21.524542      33.39561       22439.566      889.27818      3886.7372      452.17687      808.60234      90.007349     -699.45856    
 197166000   277.78275     -404.72558     -311.69252     -404.34719      0              2292.3196      31.216999      21.524542      33.586374      22567.747      4465.2323      1526.3266      885.39993     -380.34603      142.27357      887.87848    
 197168000   270.25186     -404.20821     -313.69733     -403.81835      0              3741.4676      31.216999      21.524542      33.397016      22440.511      4257.9021      3326.4499      3640.0509     -204.75288      79.876823      520.68437    
 197170000   271.17393     -404.23396     -313.41428     -403.84247      0              1807.0835      31.216999      21.524542      33.43769       22467.841      389.7925       3107.657       1923.8011     -32.258493      2076.2273     -647.74985    
 197172000   274.76376     -405.85175     -313.82978     -405.49238      0              4812.5702      31.216999      21.524542      33.397815      22441.047      3295.6775      5531.9857      5610.0473      1237.8315      1221.2883     -179.61773    
 197174000   285.84939     -405.27735     -309.54266     -404.90193      0              2045.4767      31.216999      21.524542      33.575421      22560.387      2546.5103      1801.9243      1787.9956     -416.26704      1032.3515      184.28099    
 197176000   282.92402     -404.55539     -309.80045     -404.19755      0              2576.3863      31.216999      21.524542      33.421466      22456.939      2675.7554      3157.3642      1896.0394      168.96176     -715.45737      89.292625    
 197178000   269.66001     -404.3977      -314.08505     -404.00735      0              942.95986      31.216999      21.524542      33.624926      22593.651      1129.2308      2894.6609     -1195.0121      106.08027      1152.3074     -1719.8549    
 197180000   264.41822     -405.80136     -317.24425     -405.46525      0              922.31471      31.216999      21.524542      33.599587      22576.625      1732.5937      902.72662      131.62384      134.65297     -1067.7153     -1211.5033    
 197182000   283.7124      -404.22582     -309.20684     -403.83837      0              3440.259       31.216999      21.524542      33.545733      22540.438      3339.1388      3719.8216      3261.8167      420.3185       632.64467     -2180.6305    
 197184000   278.43389     -405.28728     -312.03614     -404.90071      0              3673.438       31.216999      21.524542      33.445735      22473.246      3937.9067      3128.1574      3954.25        934.59856      1359.8137     -960.24182    
 197186000   280.26069     -400.79546     -306.93251     -400.55466      0              2803.9217      31.216999      21.524542      33.461311      22483.713      3829.2664      2422.4162      2160.0825     -605.29717      2618.6213     -553.54554    
 197188000   272.98636     -404.68969     -313.263       -404.32261      0              4279.8556      31.216999      21.524542      33.369809      22422.229      5579.5497      5352.7178      1907.2993      438.89102      698.9756      -949.42845    
 197190000   274.65895     -403.52582     -311.53896     -403.15792      0              3498.4601      31.216999      21.524542      33.366036      22419.694      4018.3667      2666.7433      3810.2703     -333.41625     -420.46012     -464.58968    
 197192000   281.05172     -404.58862     -310.46074     -404.19722      0              4274.1593      31.216999      21.524542      33.272512      22356.853      5235.3319      2523.4633      5063.6828     -305.0046       419.88421      1004.9582    
 197194000   272.07043     -404.11483     -312.99489     -403.73035      0              2596.2392      31.216999      21.524542      33.348724      22408.062      2012.739       3616.0308      2159.9478     -654.40105      994.09079      253.70274    
 197196000   274.46365     -406.11524     -314.19379     -405.74334      0              3384.156       31.216999      21.524542      33.273579      22357.569      2953.5256      3038.6489      4160.2935      620.2277      -26.13612       1040.7234    
 197198000   278.22968     -404.65251     -311.46976     -404.35231      0              1885.275       31.216999      21.524542      33.307396      22380.292      2724.6696      1340.7809      1590.3744      1355.5169     -936.79569      326.41801    
 197200000   275.29416     -400.90359     -308.70398     -400.56867      0              3158.5531      31.216999      21.524542      33.385527      22432.791      5322.2711      3634.5835      518.80477     -401.16188     -2033.3861     -935.52712    
 197202000   275.92068     -403.41523     -311.0058      -403.04534      0              4360.1104      31.216999      21.524542      33.305846      22379.251      4637.416       3427.8525      5015.0628      2342.9022     -1703.0135     -20.20103     
 197204000   272.05652     -403.58144     -312.46617     -403.19758      0              4290.0382      31.216999      21.524542      33.392563      22437.519      4784.9877      4343.0764      3742.0506     -2113.1194     -283.85962     -258.69146    
 197206000   273.57521     -402.76919     -311.14529     -402.4085       0              3944.9013      31.216999      21.524542      33.163041      22283.295      3042.8222      3818.9506      4972.9311      1831.0864      3043.345       703.51228    
 197208000   274.71992     -405.03079     -313.02351     -404.70541      0              2282.0065      31.216999      21.524542      33.427291      22460.853      1574.3131      3766.1548      1505.5515      1162.8339     -645.77957     -650.34613    
 197210000   279.97994     -404.43642     -310.66749     -404.05046      0              4330.979       31.216999      21.524542      33.199313      22307.668      3939.3963      4426.4057      4627.1349     -253.50091      119.74318      905.27578    
 197212000   274.83534     -403.39428     -311.34834     -403.02228      0              3962.1371      31.216999      21.524542      33.179601      22294.423      2881.2075      2323.6311      6681.5728     -969.49877      1734.4323     -1176.9767    
 197214000   276.59353     -403.53247     -310.89769     -403.24666      0              3409.1492      31.216999      21.524542      33.392665      22437.587      2076.7971      3511.9552      4638.6951      775.13516      39.282541      1050.1429    
 197216000   278.01696     -402.56117     -309.44966     -402.23387      0              2243.5967      31.216999      21.524542      33.400175      22442.633      2173.3336      3383.1078      1174.3488     -753.1803      -243.2394      -755.11824    
 197218000   278.80485     -403.09985     -309.72447     -402.76741      0              2211.6776      31.216999      21.524542      33.613541      22586.001      1649.343       3796.4874      1189.2024     -647.7993       409.87857     -366.66848    
 197220000   278.72608     -404.24938     -310.90038     -403.88624      0              2115.7687      31.216999      21.524542      33.497865      22508.274      1426.9212      3326.6346      1593.7504      1351.7377      221.08913     -573.17402    
 197222000   275.1119      -405.52859     -313.39003     -405.22149      0              1180.557       31.216999      21.524542      33.637541      22602.127      867.48437      1522.3826      1151.8039      623.72804      455.64055      226.61106    
 197224000   270.06605     -401.2837      -310.83506     -400.97695      0              2700.3671      31.216999      21.524542      33.46374       22485.344      3082.1122      1983.5148      3035.4742     -786.14973      137.97458      573.58232    
 197226000   267.57818     -402.9456      -313.33018     -402.58206      0              2600.5993      31.216999      21.524542      33.255064      22345.129      1365.675       3931.2072      2504.9159      631.90686      207.87856     -1406.8472    
 197228000   269.02022     -403.06718     -312.9688      -402.74632      0              4147.9356      31.216999      21.524542      33.205072      22311.537      314.56806      5527.2992      6601.9395     -241.48605      892.19833     -652.42794    
 197230000   271.69038     -399.27776     -308.28511     -398.96747      0              3886.1169      31.216999      21.524542      33.306577      22379.742      4557.2228      1309.8352      5791.2927      915.61302     -143.62448     -661.37609    
 197232000   275.42929     -403.02224     -310.77738     -402.66948      0              3113.1409      31.216999      21.524542      33.21159       22315.917      4124.5503      2865.1737      2349.6987     -587.36091     -143.59054      2482.0962    
 197234000   270.04014     -404.01264     -313.57268     -403.6733       0              3078.34        31.216999      21.524542      33.337761      22400.696      2972.6923      2616.1001      3646.2275     -310.76575      307.9926       630.63733    
 197236000   276.53156     -402.57201     -309.95798     -402.28679      0              4668.538       31.216999      21.524542      33.180928      22295.314      5351.6138      4447.5694      4206.4309     -624.4753      -429.66062     -530.3206     
 197238000   278.79129     -404.6186      -311.24776     -404.29245      0              1736.7057      31.216999      21.524542      33.277033      22359.89       1839.7345      1851.4538      1518.9287      221.61561     -983.84082      67.947129    
 197240000   285.30662     -399.54073     -303.98782     -399.34459      0              2820.5849      31.216999      21.524542      33.368086      22421.072      3645.4604      3212.1928      1604.1016     -224.66161      1322.8942     -19.455658    
 197242000   272.68176     -402.3231      -310.99842     -402.08193      0              2070.2556      31.216999      21.524542      33.493134      22505.096      1246.5874      1666.5795      3297.5998      853.75636     -1588.3138      1259.2017    
 197244000   276.11205     -404.17397     -311.70044     -403.89956      0              2118.7185      31.216999      21.524542      33.317753      22387.251      3104.5735      958.04224      2293.5399      292.18022     -2049.403       190.36967    
 197246000   272.60017     -404.23121     -312.93386     -403.92277      0              2903.3662      31.216999      21.524542      33.42551       22459.657      3275.2729      3190.0196      2244.806      -407.75999      38.676835     -349.32369    
 197248000   270.15913     -405.23109     -314.75127     -404.90807      0              3296.991       31.216999      21.524542      33.389189      22435.251      3916.2         2794.9894      3179.7836     -1657.0341      436.58844      1784.484     
 197250000   280.91336     -403.90239     -309.82084     -403.57984      0              3151.9342      31.216999      21.524542      33.495715      22506.83       3013.5022      3922.6727      2519.6277     -79.075402     -205.18617     -78.714162    
 197252000   268.22691     -405.22621     -315.39352     -404.9028       0              2671.9045      31.216999      21.524542      33.397377      22440.753      3175.5365      1988.0312      2852.1456     -438.78026     -430.08214      968.49221    
 197254000   283.10166     -403.35493     -308.54049     -403.03327      0              3891.798       31.216999      21.524542      33.236782      22332.844      4682.8351      5065.0747      1927.4843     -593.98654      320.95998      1840.8697    
 197256000   273.10398     -403.71007     -312.24399     -403.34229      0              4024.0756      31.216999      21.524542      33.396371      22440.077      2448.1036      4987.8181      4636.3052     -38.176177      856.56842      1511.5093    
 197258000   271.66151     -402.30956     -311.32657     -401.95949      0              2563.5609      31.216999      21.524542      33.283192      22364.029      3546.7114      2974.0776      1169.8937      1166.6113      566.61382     -382.8938     
 197260000   271.6686      -401.35205     -310.3667      -401.00989      0              3422.1774      31.216999      21.524542      33.348422      22407.859      2408.9899      1906.421       5951.1214     -954.29836      1237.6194      280.50241    
 197262000   278.78714     -401.56476     -308.19532     -401.26085      0              3931.6892      31.216999      21.524542      33.405041      22445.903      3949.2286      3819.8009      4026.0382     -1314.9032      358.93325     -500.30594    
 197264000   283.88992     -402.6391      -307.56067     -402.34091      0              3045.6069      31.216999      21.524542      33.356454      22413.256      2936.2505      3399.3374      2801.2327     -270.07856      279.83503     -476.62795    
 197266000   269.94039     -403.74972     -313.34317     -403.40631      0              3618.8346      31.216999      21.524542      33.417182      22454.06       5257.1849      2966.7037      2632.6152      15.233159     -1184.4488      1108.8255    
 197268000   277.82712     -403.03046     -309.98254     -402.67554      0              1553.1853      31.216999      21.524542      33.520146      22523.245      2105.8361      1950.6262      603.09342     -880.92165     -2240.9397     -2360.7228    
 197270000   274.14554     -404.39002     -312.5751      -404.046        0              2835.247       31.216999      21.524542      33.397688      22440.962      4166.3389      1935.8673      2403.5348      285.04913     -353.65634      265.70907    
 197272000   273.126       -404.21223     -312.73877     -403.92903      0              2579.0888      31.216999      21.524542      33.362964      22417.63       3978.3372      1161.2733      2597.6559      106.82713     -615.33434     -67.035017    
 197274000   279.47885     -406.60169     -313.00058     -406.24795      0              2996.6953      31.216999      21.524542      33.301727      22376.483      2382.9034      3443.4376      3163.7448     -1825.1033      792.86074     -597.87629    
 197276000   268.89741     -405.77428     -315.71703     -405.45977      0              2800.8144      31.216999      21.524542      33.481369      22497.19       2953.2534      845.61658      4603.5731      64.845688     -165.51943      2406.9323    
 197278000   273.07779     -403.70734     -312.25003     -403.40129      0              3098.013       31.216999      21.524542      33.337198      22400.317      2974.5077      3089.7712      3229.7601     -166.47965     -417.39309     -631.4441     
 197280000   280.80145     -403.35085     -309.30679     -403.02267      0              2771.9301      31.216999      21.524542      33.230604      22328.693      2750.3835      5034.3893      531.01753      737.70285      938.43809      1076.197     
 197282000   271.20279     -403.41362     -312.58427     -403.09976      0              3646.3383      31.216999      21.524542      33.499944      22509.671      4503.3378      4765.18        1670.497       453.19327      330.69276     -1175.8949    
 197284000   274.3265      -406.31133     -314.43581     -405.95287      0              6399.5128      31.216999      21.524542      33.130632      22261.518      4132.3595      7483.6588      7582.5201      586.40872      1220.5816     -170.23653    
 197286000   276.18232     -405.45007     -312.95301     -405.08115      0              3126.3085      31.216999      21.524542      33.292049      22369.98       1202.8252      3285.5832      4890.5171      920.44343      382.74295      1805.6141    
 197288000   270.85941     -406.32191     -315.60756     -406.01726      0              3819.638       31.216999      21.524542      33.097642      22239.352      3418.8633      3730.1631      4309.8876      263.14731     -385.55035     -1343.0477    
 197290000   278.95297     -405.73002     -312.30503     -405.37691      0              2131.555       31.216999      21.524542      33.115459      22251.324      2249.968       2702.4844      1442.2127     -354.12978     -521.83221     -894.20937    
 197292000   267.26653     -405.49513     -315.98409     -405.12467      0              3865.3447      31.216999      21.524542      33.22952       22327.965      3423.6745      1891.3903      6280.9694     -1235.9839      1054.4186      813.12015    
 197294000   263.44489     -403.61718     -315.38605     -403.22756      0              3789.2458      31.216999      21.524542      33.070925      22221.4        2328.5436      6156.8886      2882.3051      573.7106      -492.77009     -432.26673    
 197296000   275.40415     -402.63693     -310.40049     -402.3673       0              3235.2016      31.216999      21.524542      33.489615      22502.731      916.44145      4592.3421      4196.8213      851.00114      480.25844      38.781301    
 197298000   272.58815     -404.72737     -313.43404     -404.42481      0              2786.7721      31.216999      21.524542      33.318877      22388.007      3426.3369      3060.0875      1873.8919     -526.30963      127.81415     -1541.103     
 197300000   273.47999     -403.48413     -311.89212     -403.17516      0              3374.5306      31.216999      21.524542      33.067537      22219.123      4043.4342      3025.9068      3054.2508     -1363.069       449.71526     -28.62746     
 197302000   275.98298     -403.62917     -311.19888     -403.37583      0              5599.505       31.216999      21.524542      33.035308      22197.468      4256.9872      5890.4944      6651.0335     -252.68951     -696.50937      1440.5172    
 197304000   282.34101     -405.4325      -310.87281     -405.10033      0              3964.4718      31.216999      21.524542      33.212114      22316.269      3587.34        3547.1923      4758.883       137.10646      1180.6354     -101.49306    
 197306000   274.21829     -402.87644     -311.03715     -402.62239      0              1485.0905      31.216999      21.524542      33.338594      22401.255      2024.7873      1324.2182      1106.2659      234.7114      -351.53015      183.72861    
 197308000   278.16389     -403.14867     -309.98796     -402.88702      0              3706.015       31.216999      21.524542      33.226677      22326.055      2918.2741      4267.336       3932.4347      973.85106     -1665.7339      112.65119    
 197310000   276.35165     -404.21984     -311.66607     -403.98537      0              1279.0859      31.216999      21.524542      33.420985      22456.616      346.4707       1886.2131      1604.5739     -426.66255     -225.01375      560.8158     
 197312000   276.96535     -405.73334     -312.97403     -405.41602      0              3897.2217      31.216999      21.524542      33.487615      22501.387      2246.4132      4712.1298      4733.122      -53.661602      1244.9351     -1256.8325    
 197314000   276.64715     -402.87831     -310.22557     -402.54985      0              3851.8031      31.216999      21.524542      33.12501       22257.741      3988.886       4848.19        2718.3335     -124.73433      2132.0291     -439.60376    
 197316000   278.38234     -405.35446     -312.12058     -405.09219      0              1529.5187      31.216999      21.524542      33.293472      22370.936      1306.166       1759.98        1522.4101     -825.07702     -356.75377      567.66248    
 197318000   277.1746      -405.49149     -312.6621      -405.2275       0              2764.2275      31.216999      21.524542      33.153548      22276.917      3042.0023      3916.4906      1334.1897     -1047.6175     -27.035875     -2106.0564    
 197320000   272.00448     -403.26178     -312.16394     -402.9438       0              3623.7789      31.216999      21.524542      33.321894      22390.034      2919.3103      3666.4888      4285.5376     -7.2024535     -848.56321      1453.7417    
 197322000   280.16269     -404.39604     -310.56591     -404.0647       0              2853.2544      31.216999      21.524542      33.561421      22550.98       4421.6101      1494.8397      2643.3133      1184.4671      552.83359     -1128.3695    
 197324000   272.7763      -403.30822     -311.95188     -403.00979      0              1972.5076      31.216999      21.524542      33.35436       22411.848     -73.357364      3377.3536      2613.5266      1409.6202      506.73036      126.67358    
 197326000   276.96283     -405.72727     -312.96881     -405.38328      0              2022.1159      31.216999      21.524542      33.209349      22314.411      2393.696       1855.2709      1817.3807     -1052.1555     -1097.8596      1781.2563    
 197328000   269.79486     -406.71144     -316.35363     -406.34341      0              1659.4552      31.216999      21.524542      33.274823      22358.405      2077.7822      904.38085      1996.2024      773.08951      1356.2863     -140.03513    
 197330000   282.14725     -404.96174     -310.46695     -404.62197      0              3674.4022      31.216999      21.524542      33.285383      22365.501      3861.6115      3970.7895      3190.8056     -2324.8003     -937.04506      859.24391    
 197332000   280.75065     -405.63681     -311.60976     -405.29392      0              3656.5818      31.216999      21.524542      32.996346      22171.288      3430.3868      5004.2918      2535.067       16.547226      1008.0706      109.47476    
 197334000   275.1765      -404.98745     -312.82725     -404.65842      0              2679.3884      31.216999      21.524542      33.239543      22334.7        455.77795      4155.0356      3427.3516     -491.54467     -970.00058      611.29588    
 197336000   274.65741     -404.10014     -312.11379     -403.75392      0              2587.8028      31.216999      21.524542      33.051985      22208.673      2852.5325      1893.0025      3017.8734      597.27375      819.30281      139.91758    
 197338000   278.1928      -406.15193     -312.98154     -405.80819      0              4366.8818      31.216999      21.524542      33.250375      22341.978      1892.8544      6084.9882      5122.8029      896.88414     -565.37942      1546.9881    
 197340000   270.50887     -408.63674     -318.03979     -408.28784      0              547.85909      31.216999      21.524542      33.476236      22493.741      1526.5628     -2068.104       2185.1185      656.44723     -1094.7673      992.70095    
 197342000   285.05261     -403.52724     -308.05941     -403.30934      0              1578.8057      31.216999      21.524542      33.479214      22495.742      1968.1273      1172.7878      1595.5018     -244.49983     -1312.5043     -315.01366    
 197344000   272.59398     -406.79776     -315.50248     -406.44197      0              3319.3611      31.216999      21.524542      33.618839      22589.56       2840.3451      5453.7556      1663.9826      1300.0782      184.74406     -281.88141    
 197346000   279.59562     -400.79766     -307.15744     -400.62862      0             -356.82185      31.216999      21.524542      33.914094      22787.952     -696.34976      301.23558     -675.35136     -246.51235     -948.51936     -1212.5415    
 197348000   272.97606     -401.80034     -310.3771      -401.53668      0              2735.85        31.216999      21.524542      33.42981       22462.546      1886.1946      2402.3623      3918.993      -827.02667     -89.202248      423.15674    
 197350000   270.94682     -401.72882     -310.9852      -401.44826      0              3076.0404      31.216999      21.524542      33.50414       22512.491      1507.3008      3534.7346      4186.0859     -134.51378     -270.66721      694.30599    
 197352000   276.06324     -405.70948     -313.2523      -405.36837      0              2592.3854      31.216999      21.524542      33.274974      22358.507      3488.2976      2970.1795      1318.6792     -1856.203      -190.52077      808.77916    
 197354000   280.08941     -403.65816     -309.85257     -403.40933      0              3715.9432      31.216999      21.524542      33.370852      22422.93       2153.3495      3093.9868      5900.4932      1458.6352      1183.9313      46.674523    
 197356000   271.40861     -401.18032     -310.28204     -400.91624      0              3258.7107      31.216999      21.524542      33.347438      22407.197      3898.1491      4687.8989      1190.0842      1167.3593     -290.12095     -1719.393     
 197358000   274.68802     -405.42865     -313.43205     -405.0642       0              3166.5879      31.216999      21.524542      33.373594      22424.773      4106.4495      3219.5576      2173.7566      557.23269     -794.25665      148.81815    
 197360000   279.54759     -404.35335     -310.72922     -404.00286      0              3220.2562      31.216999      21.524542      33.339081      22401.582      4864.7384      3971.9043      824.12571     -271.12732      54.323997     -108.25576    
 197362000   274.4472      -404.70995     -312.79401     -404.39035      0              3713.8435      31.216999      21.524542      33.419824      22455.836      4398.3796      1924.2746      4818.8762     -908.19169      1236.3051     -132.20929    
 197364000   273.69526     -404.48827     -312.82416     -404.12341      0              2918.2285      31.216999      21.524542      33.221673      22322.692      1628.4276      3744.6327      3381.6251      1258.808       1377.2491      599.25883    
 197366000   274.90679     -407.67509     -315.60522     -407.29047      0              2173.5507      31.216999      21.524542      33.110489      22247.984      2352.6593      3072.5662      1095.4266      840.27777     -1130.5377      930.67192    
 197368000   276.15318     -404.83165     -312.34436     -404.44384      0              3674.1938      31.216999      21.524542      33.197481      22306.437      3101.6074      4496.3071      3424.6668      1558.0277     -386.40884     -1314.5544    
 197370000   277.79577     -407.36934     -314.33192     -407.04243      0              2607.9007      31.216999      21.524542      33.316421      22386.356      3550.7123      2763.8762      1509.1136     -2670.9792     -36.572568      887.39979    
 197372000   271.32371     -404.71675     -313.8469      -404.40818      0              3489.9777      31.216999      21.524542      33.534449      22532.856      2285.1843      4554.2829      3630.466       985.71286      838.2692      -543.51695    
 197374000   281.13336     -402.4036      -308.24838     -402.02568      0              980.60406      31.216999      21.524542      33.506607      22514.148      2069.1177     -430.91443      1303.6089      16.779914     -1973.9401      1638.1086    
 197376000   272.85577     -405.38031     -313.99735     -405.05681      0              2318.039       31.216999      21.524542      33.287248      22366.754      3715.8871      2113.5025      1124.7273     -311.92998     -592.51912      398.47248    
 197378000   277.9058      -402.3282      -309.25393     -402.03056      0              3789.5076      31.216999      21.524542      33.450363      22476.356      5454.0111      2963.387       2951.1247     -789.76952     -101.8056       299.70283    
 197380000   271.11882     -405.67099     -314.86976     -405.28034      0              1392.7131      31.216999      21.524542      33.323037      22390.802      1371.4624      964.09559      1842.5814      461.15466     -101.93577     -1041.5274    
 197382000   278.29384     -402.77869     -309.57445     -402.38721      0              5243.739       31.216999      21.524542      32.997391      22171.99       5005.2726      4988.1926      5737.7518      604.97567      196.80798      570.29396    
 197384000   285.29891     -401.2724      -305.72207     -400.9349       0              2588.6442      31.216999      21.524542      33.52379       22525.694      1622.2095      2760.5989      3383.1243      243.06199      764.5353      -1497.2824    
 197386000   274.49449     -404.54629     -312.61451     -404.15516      0              4483.0328      31.216999      21.524542      33.442834      22471.297      4297.1358      3523.8776      5628.0848      114.02683      2005.939       954.1081     
 197388000   269.94511     -404.71993     -314.3118      -404.33517      0              1639.3077      31.216999      21.524542      33.454099      22478.867      2637.9511      406.42932      1873.5426      599.61557     -393.93836     -1100.2563    
 197390000   275.77021     -404.7941      -312.43506     -404.43965      0              2518.7029      31.216999      21.524542      33.395826      22439.711      3808.2365      2493.2036      1254.6687     -843.98093     -295.26664     -1054.8559    
 197392000   276.7303      -405.69985     -313.01927     -405.36987      0              1716.4517      31.216999      21.524542      33.526845      22527.747      1278.9293      2669.8265      1200.5991      1583.6127      295.71487     -1393.6543    
 197394000   271.38563     -406.22553     -315.33495     -405.88488      0              1031.3513      31.216999      21.524542      33.61989       22590.267      1670.4593      335.44302      1088.1516     -713.4204       6.6762382     -891.3815     
 197396000   272.52742     -402.34135     -311.06837     -402.01423      0              2147.6434      31.216999      21.524542      33.472857      22491.471      2121.7056      904.4597       3416.765       1512.8428     -2990.4885      2244.33      
 197398000   276.72696     -404.76588     -312.08641     -404.37438      0              2410.8785      31.216999      21.524542      33.491203      22503.798      2009.3878      1840.1477      3383.1001      1528.4913     -1152.3109      1336.2908    
 197400000   269.0916      -403.54842     -313.42614     -403.15717      0              2909.6553      31.216999      21.524542      33.528574      22528.908      2184.921       2013.9156      4530.1291     -533.81235      683.6505      -2123.9013    
 197402000   268.73011     -405.0936      -315.09238     -404.70556      0              2904.3943      31.216999      21.524542      33.537098      22534.636      2498.8869      2842.107       3372.1889      306.87309      706.85628      1308.5224    
 197404000   271.58067     -404.51078     -313.55488     -404.13304      0              3433.166       31.216999      21.524542      33.50321       22511.865      4241.6595      4646.8613      1410.9772     -892.13276     -141.74417     -1308.403     
 197406000   277.39816     -403.38671     -310.48245     -402.99782      0              2818.2738      31.216999      21.524542      33.480363      22496.514      2946.3973      2912.7897      2595.6345     -618.96762      1883.6959     -662.8304     
 197408000   280.02865     -404.63643     -310.85119     -404.26324      0              4713.926       31.216999      21.524542      33.411345      22450.139      5037.9163      4779.4139      4324.4478      1379.0576     -362.74601      380.33362    
 197410000   278.33937     -404.88846     -311.66898     -404.57561      0              2363.1499      31.216999      21.524542      33.293768      22371.135      1433.5384      3979.1746      1676.7365      1251.3481     -225.88988      1425.8751    
 197412000   274.73805     -404.88509     -312.87174     -404.49572      0              5134.2103      31.216999      21.524542      33.176432      22292.293      7225.756       5409.9023      2766.9727     -355.02318      1213.0748     -811.16231    
 197414000   275.08382     -406.86083     -314.73167     -406.46994      0              738.43681      31.216999      21.524542      33.320157      22388.866      640.73908      1527.4923      47.079092      221.94288     -331.70135     -622.36864    
 197416000   275.83522     -408.84103     -316.46022     -408.48472      0              3087.2719      31.216999      21.524542      33.182909      22296.645      3996.6931      2700.4941      2564.6284     -312.62257      514.58956     -1514.9976    
 197418000   275.53705     -405.24909     -312.96814     -404.86552      0              3444.3745      31.216999      21.524542      33.263034      22350.484      3171.0482      3765.5925      3396.4827      260.61872      1348.2081      511.69309    
 197420000   285.13866     -405.11578     -309.61913     -404.72439      0              2585.4701      31.216999      21.524542      33.334096      22398.232      2182.8969      2838.937       2734.5763      587.18537      255.71087      1640.627     
 197422000   274.95967     -404.33457     -312.24699     -403.95895      0              2552.7213      31.216999      21.524542      33.372123      22423.784      2485.1345      2631.2748      2541.7546     -97.129948     -586.18018     -26.644912    
 197424000   264.57544     -404.24566     -315.63589     -403.87454      0              3539.5143      31.216999      21.524542      33.164892      22284.539      2685.6378      3881.1575      4051.7476     -1000.1474     -54.560739     -2385.1226    
 197426000   266.53144     -405.37216     -316.10731     -405.00106      0              2389.3271      31.216999      21.524542      33.146497      22272.179      2449.593       1805.4189      2912.9695     -659.19717      137.89013     -810.2122     
 197428000   275.08728     -402.93678     -310.80646     -402.5978       0              3959.7979      31.216999      21.524542      33.358208      22414.434      4893.5944      4331.091       2654.7083     -677.58946     -664.52727     -245.85575    
 197430000   276.72373     -407.74034     -315.06195     -407.34886      0              3151.0242      31.216999      21.524542      33.403687      22444.993      4873.485       4157.4366      422.15107     -840.14486      246.23608      752.14159    
 197432000   280.27908     -405.53661     -311.66749     -405.15589      0              3924.0396      31.216999      21.524542      33.489407      22502.591      4472.9471      3869.3432      3429.8286     -3.5711524      457.04008      470.48341    
 197434000   276.49124     -402.78982     -310.1893      -402.4401       0              2608.7251      31.216999      21.524542      33.500994      22510.377      5028.6286      1394.334       1403.2127      1200.3316     -586.14748      217.35517    
 197436000   270.93458     -403.82443     -313.0849      -403.4693       0              3853.4361      31.216999      21.524542      33.470904      22490.158      3125.6299      4738.0673      3696.6111      86.51          338.93047     -1252.739     
 197438000   284.20874     -403.75938     -308.57417     -403.49151      0              3237.2877      31.216999      21.524542      33.487826      22501.528      4978.2021      2406.2849      2327.376       1870.1135     -2061.7241      455.32563    
 197440000   275.61111     -400.04421     -307.73846     -399.75872      0              2885.891       31.216999      21.524542      33.590904      22570.79       2692.2701      4478.0435      1487.3593     -373.98789     -279.72648      11.000188    
 197442000   273.18371     -400.69818     -309.2054      -400.39637      0              2616.6987      31.216999      21.524542      33.572945      22558.723      1444.4211      2145.6505      4260.0245     -495.77224     -549.05048      115.56321    
 197444000   282.17554     -405.23909     -310.73482     -404.85953      0              3459.2467      31.216999      21.524542      33.462543      22484.541      2419.5846      3685.5778      4272.5778     -741.59674     -396.22165      740.83555    
 197446000   271.64943     -405.11275     -314.13382     -404.81253      0              1541.687       31.216999      21.524542      33.621906      22591.621      530.51051      884.62893      3209.9217      1288.8925      443.62227      2667.592     
 197448000   271.17048     -402.91546     -312.09694     -402.58698      0              3896.5843      31.216999      21.524542      33.457385      22481.074      3133.7467      4436.2887      4119.7176      60.483603     -406.53978      380.90815    
 197450000   276.10793     -406.04529     -313.57315     -405.76062      0              4585.9361      31.216999      21.524542      33.50248       22511.375      5918.9578      4033.7753      3805.0751     -858.66618      263.49898     -298.62611    
 197452000   272.9981      -407.84533     -316.4147      -407.49347      0              1953.3375      31.216999      21.524542      33.575793      22560.637      1460.0407      2935.1072      1464.8645      76.748601      574.38437     -1242.5316    
 197454000   274.35313     -408.49194     -316.6075      -408.15803      0              2677.988       31.216999      21.524542      33.520092      22523.209      2308.0976      5621.4269      104.43937     -966.37576      1523.5197     -2376.2982    
 197456000   278.91768     -405.53059     -312.11742     -405.2015       0              4827.3593      31.216999      21.524542      33.493769      22505.522      5586.0589      4448.1477      4447.8713      439.48892     -323.11471      781.58783    
 197458000   272.42629     -404.92507     -313.68596     -404.60713      0              1400.0686      31.216999      21.524542      33.41621       22453.408      2078.072       1096.673       1025.461      -1095.0824      1185.2955     -501.02617    
 197460000   271.51063     -407.56112     -316.62867     -407.23988      0              2620.7321      31.216999      21.524542      33.374286      22425.237      1401.7629      2129.5345      4330.8988     -521.09561      728.65949     -1032.734     
 197462000   272.23521     -405.87531     -314.70019     -405.58529      0              3789.2062      31.216999      21.524542      33.447569      22474.479      4834.5964      2214.0193      4319.0029      513.0372       270.4121      -468.20966    
 197464000   276.17117     -403.31837     -310.82505     -402.97537      0              4020.2142      31.216999      21.524542      33.32021       22388.902      6018.8444      4317.9802      1723.8179     -1679.1796     -1951.7251      408.92356    
 197466000   280.4167      -405.29199     -311.37679     -404.91666      0              2495.8721      31.216999      21.524542      33.521764      22524.332      2207.029       2495.7382      2784.8492     -537.97831     -13.121464     -1381.643     
 197468000   274.04625     -405.80636     -314.0247      -405.44007      0              2249.9977      31.216999      21.524542      33.5567        22547.807      3518.2572      375.16989      2856.5661      390.15222     -1411.8321      1670.3541    
 197470000   270.06934     -403.95961     -313.50987     -403.59695      0              3207.8496      31.216999      21.524542      33.50271       22511.53       3043.1131      4914.8092      1665.6264      201.82638      6.4308637     -977.3378     
 197472000   267.55693     -404.16337     -314.55506     -403.78353      0              841.95235      31.216999      21.524542      33.574457      22559.739      992.89217      1387.7847      145.18022     -845.10121      129.05567     -32.107168    
 197474000   268.3408      -407.0897      -317.21887     -406.79353      0              3025.3187      31.216999      21.524542      33.320051      22388.795      1168.8887      3663.5834      4243.4839      639.61712     -1196.8325      142.63394    
 197476000   271.30818     -404.09325     -313.22861     -403.81475      0              3326.651       31.216999      21.524542      33.623452      22592.66       3911.99        2957.5624      3110.4007     -319.64576     -1526.989      -916.40656    
 197478000   278.81773     -402.24729     -308.8676      -401.93177      0              2570.3079      31.216999      21.524542      33.319891      22388.688      3001.1225      2017.6103      2692.1908      173.87085     -532.72003     -1024.7602    
 197480000   280.95839     -401.04782     -306.95119     -400.75151      0              3580.174       31.216999      21.524542      33.373343      22424.604      2781.5347      3977.886       3981.1013     -714.55468     -406.42251      1872.5209    
 197482000   277.84822     -401.46792     -308.41293     -401.29906      0              2135.0502      31.216999      21.524542      33.861075      22752.326      2234.5369      3010.5517      1160.0619     -1183.4857      455.27718     -202.93276    
 197484000   264.67844     -403.98426     -315.34        -403.77105      0              3984.421       31.216999      21.524542      33.51882       22522.354      4506.6829      4288.1105      3158.4695     -76.604788      641.81426     -312.52342    
 197486000   279.71661     -405.69657     -312.01583     -405.43823      0              3123.803       31.216999      21.524542      33.413392      22451.514      4044.4561      2477.9361      2849.0166     -1782.9617     -360.65029      1178.0106    
 197488000   275.16673     -402.56835     -310.41142     -402.43064      0              3435.3201      31.216999      21.524542      33.658174      22615.991      4240.7113      3054.6785      3010.5704     -279.78964      579.51949      1578.6566    
 197490000   275.85685     -399.88702     -307.49897     -399.73985      0              1801.1686      31.216999      21.524542      33.569092      22556.134      4046.9268     -1101.6928      2458.2717     -372.56627      358.44886      1790.7545    
 197492000   275.45261     -404.96921     -312.71654     -404.76381      0              903.83348      31.216999      21.524542      33.663564      22619.612     -1110.1615      1777.2843      2044.3776     -1214.9845     -915.26865     -177.1201     
 197494000   267.25096     -403.7781      -314.27227     -403.51483      0              5065.4899      31.216999      21.524542      33.446945      22474.059      4972.9708      4863.2083      5360.2907      189.76201     -638.52432     -1308.3894    
 197496000   283.86318     -401.24316     -306.17368     -400.99305      0              1281.6206      31.216999      21.524542      33.591976      22571.51       1523.2573      1609.6893      711.9153      -240.40784     -427.36663      77.760967    
 197498000   281.20198     -405.35345     -311.17524     -405.01364      0              2423.021       31.216999      21.524542      33.355663      22412.724      2639.0782      3725.6878      904.29691     -1715.8356      163.34599     -678.63127    
 197500000   277.82667     -403.47793     -310.43016     -403.19606      0              3985.5617      31.216999      21.524542      33.545658      22540.388      4949.6425      3818.3449      3188.6978      436.80364     -1437.7682     -1237.8417    
 197502000   267.71031     -405.15358     -315.4939      -404.8251       0              2785.8621      31.216999      21.524542      33.215643      22318.64       3523.411       3656.8815      1177.2939      433.43376     -863.71307      1053.5785    
 197504000   277.76627     -401.19182     -308.16427     -400.88977      0              5677.1808      31.216999      21.524542      33.288382      22367.516      4679.9984      8414.3612      3937.183      -511.81793     -2016.8246      1381.7195    
 197506000   277.96193     -399.65021     -306.55714     -399.3654       0              2407.2597      31.216999      21.524542      33.636479      22601.413      716.60812      3089.6898      3415.4811      738.56042      2607.7466      2381.9666    
 197508000   276.51114     -404.61008     -312.00289     -404.29814      0              3328.1142      31.216999      21.524542      33.446535      22473.784      3235.0827      3532.4538      3216.8061     -508.14779     -1847.5236     -47.675481    
 197510000   276.11263     -404.53665     -312.06293     -404.21061      0              2625.5493      31.216999      21.524542      33.432562      22464.395      4960.191       3025.1879     -108.73105      836.5481      -1579.3926     -518.49083    
 197512000   273.19058     -403.30394     -311.80886     -403.0504       0              3903.093       31.216999      21.524542      33.342204      22403.681      2577.0767      5183.5617      3948.6406      1378.8927      386.689        1072.7345    
 197514000   276.57347     -403.80032     -311.17226     -403.5211       0              3265.6645      31.216999      21.524542      33.484621      22499.375      3623.6156      3508.2571      2665.1206      559.4119      -1641.494      -106.38372    
 197516000   272.42092     -405.17724     -313.93992     -404.94339      0              2712.9316      31.216999      21.524542      33.468494      22488.539      1892.0211      2617.0975      3629.6761      1060.9154     -69.71988       403.33912    
 197518000   281.37227     -403.4932      -309.25796     -403.15357      0              2396.8257      31.216999      21.524542      33.245792      22338.898      2273.8196      1637.7659      3278.8916     -481.53775     -1024.1415      197.52926    
[...]
 205034000   278.35619     -399.97904     -306.75393     -399.95618      0              3102.753       31.216999      21.524542      33.528613      22528.934      2853.4738      3353.263       3101.5221      337.72671      554.84306     -1166.2112    
 205036000   276.65796     -404.14435     -311.48799     -403.99076      0              1471.5068      31.216999      21.524542      33.223015      22323.594      263.58584      3154.3987      996.53569     -225.0773       1721.6353      826.13385    
 205038000   275.5219      -402.0492      -309.77332     -401.89086      0              3938.6087      31.216999      21.524542      33.388147      22434.551      3368.7806      3796.3434      4650.7022      1842.6495      1529.22        2295.5316    
 205040000   283.5694      -401.77537     -306.80428     -401.65558      0              4766.1683      31.216999      21.524542      33.453898      22478.731      3981.9964      4775.1191      5541.3894     -1095.5183      1192.2549      367.29101    
 205042000   274.1829      -404.51131     -312.68388     -404.31432      0              304.74453      31.216999      21.524542      33.508333      22515.308     -833.56591     -834.20716      2582.0067      615.28335     -195.61462      94.184827    
 205044000   278.602       -403.52334     -310.2159      -403.34424      0              2134.5971      31.216999      21.524542      33.190845      22301.978      3422.3764      1064.2115      1917.2034      926.02145      203.10531      1646.2786    
 205046000   270.33358     -400.71014     -310.1719      -400.44496      0              3052.0257      31.216999      21.524542      33.091389      22235.15       2684.2388      5056.8449      1414.9933      1024.7588     -1194.5636      836.86555    
 205048000   268.56478     -399.1998      -309.25395     -398.99657      0              2777.5237      31.216999      21.524542      33.230444      22328.585      3567.4164      3635.943       1129.2118      1049.8428     -393.14767     -1272.9293    
 205050000   276.42615     -402.55013     -309.97141     -402.33602      0              1460.5424      31.216999      21.524542      33.445754      22473.259     -834.33419      1891.9632      3323.9982     -1006.6085     -103.77803      1095.1204    
 205052000   268.65034     -401.48103     -311.50652     -401.36467      0              1311.5718      31.216999      21.524542      33.396421      22440.111      3438.2988     -240.63626      737.05291      274.47455      162.1338      -539.0807     
 205054000   272.16914     -400.67619     -309.5232      -400.51372      0              3965.8326      31.216999      21.524542      33.704528      22647.138      5838.0764      5032.4716      1026.9499      858.37236      623.12448     -394.80732    
 205056000   271.1305      -403.88897     -313.08382     -403.69177      0              2082.3104      31.216999      21.524542      33.372356      22423.941      1801.0592      2091.7575      2354.1146      414.2854      -481.21908     -1696.1517    
 205058000   272.52851     -404.11688     -312.84353     -404.00231      0              3241.8242      31.216999      21.524542      33.587677      22568.622      2988.3841      3448.9591      3288.1294      741.05757     -442.10348     -1208.8154    
 205060000   279.1547      -401.73826     -308.24571     -401.51374      0              2276.3988      31.216999      21.524542      33.662233      22618.718      2361.223       1002.3987      3465.5747     -1597.5599      1948.8822     -1610.6667    
 205062000   273.44127     -400.99916     -309.42011     -400.82459      0              4366.3538      31.216999      21.524542      33.309819      22381.92       4190.979       4008.9036      4899.1787      221.65144      865.82666      111.58177    
 205064000   274.80341     -401.11685     -309.0816      -400.94568      0              3680.3838      31.216999      21.524542      33.286368      22366.163      2977.5883      2576.4564      5487.1068     -324.4177      -437.78281      2447.1559    
 205066000   277.04795     -402.30826     -309.52129     -402.21133      0              4650.059       31.216999      21.524542      33.34967       22408.697      3941.4907      4323.2944      5685.3919     -478.65461     -691.99265     -1623.5725    
 205068000   287.60274     -402.62795     -306.30605     -402.48853      0              4638.0397      31.216999      21.524542      33.410526      22449.588      4807.976       3007.9634      6098.1797     -937.87899      2137.3045      1505.8354    
 205070000   270.31028     -401.64963     -311.11919     -401.55416      0              2800.4961      31.216999      21.524542      33.526639      22527.608      1992.4726      1498.6598      4910.3559     -321.95493     -192.29253      107.16167    
 205072000   281.11722     -401.07774     -306.92791     -400.94297      0              4068.8941      31.216999      21.524542      33.510812      22516.974      3556.8763      3934.001       4715.8049      898.29085      450.95714      1023.8226    
 205074000   267.83542     -401.84073     -312.13916     -401.7113       0              1602.2838      31.216999      21.524542      33.398988      22441.836      2253.7417      692.95563      1860.1541     -482.73501     -538.03888     -1190.1648    
 205076000   273.22071     -400.02926     -308.52408     -399.94107      0              3369.4415      31.216999      21.524542      33.555955      22547.307      5724.7288      4390.0489     -6.4530804      32.732773     -640.19369      142.64544    
 205078000   272.68855     -403.40779     -312.08084     -403.2963       0              3270.6137      31.216999      21.524542      33.624257      22593.201      4048.3628      4383.7524      1379.7259     -0.28069388     1912.1191     -831.20394    
 205080000   276.25532     -401.99496     -309.47346     -401.98154      0              2475.7148      31.216999      21.524542      33.321809      22389.977      2137.0927      1074.1689      4215.8828      842.03191      1833.3852      810.28404    
 205082000   279.88762     -399.9294      -306.19138     -399.87539      0              5259.4552      31.216999      21.524542      33.554725      22546.48       4522.9702      5302.3531      5953.0423     -284.51714     -85.19165      -718.1961     
 205084000   278.86704     -397.40876     -304.01255     -397.35611      0              1250.4293      31.216999      21.524542      33.728368      22663.156      1838.5248     -243.11724      2155.8803     -1624.1942      1581.3843      1300.9059    
 205086000   277.22024     -399.92134     -307.07667     -399.9173       0              3210.1374      31.216999      21.524542      33.747884      22676.27       2556.7736      2787.5161      4286.1224      424.79441      1562.5131      1426.6688    
 205088000   274.9173      -400.30531     -308.23193     -400.17988      0              1703.6911      31.216999      21.524542      33.505466      22513.382      959.90353      2735.0306      1416.1392     -2.0972441     -742.98802     -126.86743    
 205090000   275.81192     -400.2344      -307.8614      -400.09155      0              3477.084       31.216999      21.524542      33.431021      22463.36       1792.344       4793.031       3845.877       1278.7328     -801.31623     -474.92492    
 205092000   280.11443     -403.48554     -309.67156     -403.32295      0              3217.5202      31.216999      21.524542      33.523118      22525.242      2739.2672      2841.776       4071.5176     -1517.8205     -265.78169      1437.6674    
 205094000   270.01271     -401.18991     -310.75914     -401.05401      0              4264.4572      31.216999      21.524542      33.503757      22512.233      5171.1379      5470.0171      2152.2166     -1278.8683      499.48656     -801.67449    
 205096000   274.99185     -403.36813     -311.26978     -403.21961      0              2401.7773      31.216999      21.524542      33.649344      22610.058      2455.5271      3158.5085      1591.2963     -620.50464     -310.5781       58.309211    
 205098000   277.61629     -400.78975     -307.81244     -400.75346      0              3095.2067      31.216999      21.524542      33.480468      22496.584      3869.0592      1746.6868      3669.874      -759.94912      358.87339     -529.5817     
 205100000   274.01623     -401.25579     -309.48418     -401.15972      0              1237.7633      31.216999      21.524542      33.421122      22456.708      1076.7276      1236.7106      1399.8516     -1334.6402     -454.10789      1305.7927    
 205102000   266.53505     -401.53415     -312.26809     -401.313        0              2684.8361      31.216999      21.524542      33.431887      22463.942      1861.4919      3745.0997      2447.9169      506.71752     -1020.1336      1999.2782    
 205104000   277.73138     -401.39946     -308.3836      -401.329        0              3538.7731      31.216999      21.524542      33.541534      22537.616      2468.7532      1818.2977      6329.2684      1103.6711      665.0846       636.21128    
 205106000   275.42106     -402.1015      -309.8594      -401.95902      0              2541.3563      31.216999      21.524542      33.38348       22431.415      1075.9064      2894.3954      3653.7672     -690.35189      633.30842      591.48792    
 205108000   270.26569     -400.03039     -309.51488     -399.86897      0              4622.8376      31.216999      21.524542      33.448791      22475.3        4360.0644      4481.4166      5027.0319      474.13645      1158.6285      573.02383    
 205110000   278.62663     -404.84455     -311.52886     -404.69592      0              1205.2618      31.216999      21.524542      33.456636      22480.571     -1037.0376      1136.2213      3516.6018     -300.36657      1693.2874      75.906847    
 205112000   283.43499     -405.67943     -310.75336     -405.49104      0              2735.3133      31.216999      21.524542      33.364269      22418.507      2791.3105      2174.4         3240.2294     -334.40687     -787.71375     -1454.5494    
 205114000   268.82901     -405.16909     -315.13475     -404.96226      0              2579.6578      31.216999      21.524542      33.215909      22318.819      2028.0951      3017.6432      2693.2351     -474.83647      1843.1674     -1333.1727    
 205116000   270.52886     -404.84156     -314.23791     -404.66244      0              4511.2844      31.216999      21.524542      33.170844      22288.539      5469.2735      4373.2234      3691.3564     -2088.3492     -121.74289     -480.58676    
 205118000   277.85184     -404.75273     -311.69653     -404.55493      0              2750.267       31.216999      21.524542      33.521496      22524.153      1708.6112      4106.1109      2436.0789     -876.33854     -364.22159     -1102.8011    
 205120000   279.45428     -403.96787     -310.37499     -403.87138      0              3142.7268      31.216999      21.524542      33.644882      22607.06       2917.9502      2150.4704      4359.7597      173.25743      448.3372       109.33009    
 205122000   276.63501     -403.80925     -311.16058     -403.72845      0              1527.9067      31.216999      21.524542      33.735614      22668.025      2813.0837      2415.0976     -644.46124     -1833.2231      2472.2108      84.690931    
 205124000   275.39153     -402.41711     -310.1849      -402.24622      0              2775.7823      31.216999      21.524542      33.67808       22629.366      1278.8096      5559.9958      1488.5416      1282.4436     -1636.1117      1148.0948    
 205126000   276.51857     -403.67381     -311.06414     -403.46719      0              4386.9637      31.216999      21.524542      33.521655      22524.26       4414.4144      3594.9259      5151.5507     -105.89702     -266.59847      219.15373    
 205128000   277.50632     -401.64687     -308.70638     -401.48977      0              2342.3674      31.216999      21.524542      33.496309      22507.229      3246.0005     -168.56161      3949.6633      302.53584     -508.3485       1853.9897    
 205130000   273.79919     -402.07869     -310.37977     -401.91902      0              1852.512       31.216999      21.524542      33.764162      22687.208      532.8573       2674.5512      2350.1274      1169.5848     -340.16929      1969.3722    
 205132000   278.66313     -404.05049     -310.72257     -403.81306      0              3630.2894      31.216999      21.524542      33.605104      22580.332      3918.9729      4175.2765      2796.6189     -74.590034      464.91394     -1248.8113    
 205134000   277.6072      -402.85045     -309.87618     -402.66464      0              1972.9942      31.216999      21.524542      33.564831      22553.271      384.41875      3052.5185      2482.0454     -1876.6153      647.22871     -856.96146    
 205136000   264.03389     -403.92397     -315.49558     -403.82725      0              2750.3025      31.216999      21.524542      33.535249      22533.394      3197.1649      1298.361       3755.3816     -1771.1846      71.396365      276.56712    
 205138000   280.51635     -401.58579     -307.6372      -401.43302      0              1761.0153      31.216999      21.524542      33.676089      22628.028      345.32249      1178.1046      3759.6189      63.66901      -240.79829      10.264778    
 205140000   277.1593      -401.13863     -308.31437     -401.03661      0              2908.8589      31.216999      21.524542      33.733799      22666.806      3138.1759      2377.7677      3210.6333      528.77367     -304.02208     -457.5825     
 205142000   275.63122     -402.17156     -309.85907     -402.02419      0              2999.7602      31.216999      21.524542      33.659058      22616.585      1899.2079      3193.1078      3906.9649     -355.39085      157.03531     -974.5898     
 205144000   271.96718     -403.06413     -311.97878     -402.87919      0              1149.2096      31.216999      21.524542      33.383222      22431.242      115.76752      560.39777      2771.4636      56.127086      211.74607      850.03991    
 205146000   272.61711     -401.34318     -310.04016     -401.27328      0              2599.4596      31.216999      21.524542      33.620719      22590.823      2804.191       2808.0223      2186.1654      712.43245     -813.243        505.17949    
 205148000   278.56068     -402.82804     -309.53443     -402.70945      0              1606.6154      31.216999      21.524542      33.536178      22534.018      282.46         1915.6553      2621.731      -295.23533      273.70576      957.93253    
 205150000   278.03156     -401.71131     -308.59492     -401.63825      0              2133.4055      31.216999      21.524542      33.474756      22492.747      500.29897      2639.2194      3260.6983      516.46661      1050.7826      446.13545    
 205152000   266.23176     -404.60146     -315.43697     -404.4226       0              2184.2483      31.216999      21.524542      33.249596      22341.455      885.59633      3360.8523      2306.2963     -343.03041     -253.02209      299.94704    
 205154000   276.77707     -402.81447     -310.11822     -402.67653      0              4135.2303      31.216999      21.524542      33.37564       22426.148      3072.0006      4881.3512      4452.3391     -374.73623      1737.0944     -608.56891    
 205156000   278.48443     -405.2894      -312.02134     -405.16223      0              2515.4251      31.216999      21.524542      33.516407      22520.733      4482.0636      2616.9838      447.22793     -765.92935     -842.4509      -994.85916    
 205158000   263.79478     -401.66026     -313.31195     -401.48596      0              2765.9667      31.216999      21.524542      33.38675       22433.612      3210.356       3939.9367      1147.6074      2716.7411      714.92081     -103.16271    
 205160000   271.64212     -400.66653     -309.69004     -400.60833      0              2058.8711      31.216999      21.524542      33.554786      22546.521      2214.3484      306.35436      3655.9104      2400.6977      1037.4287      1035.1302    
 205162000   270.1284      -403.28834     -312.81882     -403.22009      0              2278.8367      31.216999      21.524542      33.496573      22507.406      3852.0809      1547.8803      1436.5489      403.10025     -1332.7741     -233.15622    
 205164000   275.88623     -404.89982     -312.50192     -404.8509       0              2588.895       31.216999      21.524542      33.447369      22474.344      1453.0753      4564.0153      1749.5944      332.14767     -1037.8982     -597.05026    
 205166000   272.80028     -401.05065     -309.68628     -400.96352      0              4219.6014      31.216999      21.524542      33.149815      22274.408      3153.4752      4139.0868      5366.2422      80.954568     -1748.0524      454.87328    
 205168000   276.55616     -401.61009     -308.98782     -401.4222       0              4420.3054      31.216999      21.524542      33.326857      22393.369      2754.0468      6151.6139      4355.2555      1113.4218      1321.9368      1459.6358    
 205170000   274.15404     -401.71223     -309.89447     -401.64271      0              4619.6424      31.216999      21.524542      33.230412      22328.564      5410.2542      5140.3178      3308.3553      1491.4476     -648.96298      971.36546    
 205172000   281.61106     -399.34628     -305.03107     -399.31715      0              5446.5314      31.216999      21.524542      33.400528      22442.87       3536.7407      5364.3264      7438.527       2169.2164      1710.6893      1269.1425    
 205174000   264.92438     -403.27258     -314.54596     -403.20544      0              3124.3836      31.216999      21.524542      33.411775      22450.428      3364.8047      1132.0946      4876.2514     -1143.1639      98.967999      314.06994    
 205176000   283.26237     -399.69155     -304.82329     -399.65674      0              4777.2036      31.216999      21.524542      33.426272      22460.168      3745.0855      6662.0671      3924.4583     -356.61292      70.192471     -477.30316    
WARNING: Wall time limit reached (../timer.cpp:193)
Loop time of 85803.7 on 4 procs for 8224000 steps with 2592 atoms

Performance: 4.141 ns/day, 5.796 hours/ns, 95.847 timesteps/s
1556.0% CPU use with 4 MPI tasks x no OpenMP threads

MPI task timing breakdown:
Section |  min time  |  avg time  |  max time  |%varavg| %total
---------------------------------------------------------------
Pair    | 22885      | 23085      | 23315      | 100.9 | 26.90
Bond    | 0.75037    | 0.81999    | 0.89185    |   5.9 |  0.00
Neigh   | 686.42     | 704.87     | 721.37     |  57.1 |  0.82
Comm    | 2548.9     | 2789.9     | 2997.3     | 304.9 |  3.25
Output  | 25.5       | 25.509     | 25.536     |   0.3 |  0.03
Modify  | 59170      | 59175      | 59180      |   1.8 | 68.97
Other   |            | 22.58      |            |       |  0.03

Nlocal:            648 ave         661 max         636 min
Histogram: 2 0 0 0 0 0 0 0 1 1
Nghost:        4154.25 ave        4180 max        4122 min
Histogram: 1 0 0 1 0 0 0 0 1 1
Neighs:              0 ave           0 max           0 min
Histogram: 4 0 0 0 0 0 0 0 0 0
FullNghs:       160110 ave      166833 max      154157 min
Histogram: 2 0 0 0 0 0 0 0 1 1

Total # of neighbors = 640442
Ave neighs/atom = 247.0841
Ave special neighs/atom = 0
Neighbor list builds = 164480
Dangerous builds not checked
unfix 3
unfix 1
unfix 2


# Finalize simulation
write_restart	restart.lmp.${pid}
write_restart	restart.lmp.0
System init for write_restart ...
Generated 0 of 1 mixed pair_coeff terms from geometric mixing rule
write_data	data.final.${pid} nocoeff
write_data	data.final.0 nocoeff
System init for write_data ...
Generated 0 of 1 mixed pair_coeff terms from geometric mixing rule
Total wall time: 23:50:07
