LAMMPS (23 Jun 2022)
include procedure.lmp
echo both
include		in.partitions
variable        pid world 0
include		in.temp
variable	temperature equal 275
variable        tempDamp equal 0.100 # this is 0.1 ps
include		in.pressure
variable        pressure equal 3039.75
variable        pressureDamp equal 1.0 #this is 1ps

variable	barostat string	   tri
variable	direction string   z
variable	direction_x_bool equal 0
variable	direction_y_bool equal 0
variable	direction_z_bool equal 1

include		in.seed
variable        seed world 745823

units           metal
atom_style	full
box tilt large
read_restart 	restart.lmp.${pid}
read_restart 	restart.lmp.0
Reading restart file ...
  restart file = 23 Jun 2022, LAMMPS = 23 Jun 2022
  restoring atom style full from restart
  triclinic box = (0 0 -0.92443892) to (31.216999 21.524542 32.720158) with tilt (-9.212092 0.78085338 -11.332272)
WARNING: Triclinic box skew is large (../domain.cpp:224)
  2 by 1 by 2 MPI processor grid
Summary of lammps deepmd module ...
  >>> Info of deepmd-kit:
  installed to:       /u/sigbjobo/software/DEEPMD_FROM_SOURCE/deepmd-kit/install
  source:             v2.1.3
  source branch:       master
  source commit:      5a32c49
  source commit at:   2022-07-01 09:52:58 +0800
  surpport model ver.:1.1 
  build float prec:   double
  build with tf inc:  /u/sigbjobo/software/DEEPMD_FROM_SOURCE/tensorflow/install/include;/u/sigbjobo/software/DEEPMD_FROM_SOURCE/tensorflow/install/include
  build with tf lib:  /u/sigbjobo/software/DEEPMD_FROM_SOURCE/tensorflow/install/lib/libtensorflow_cc.so;/u/sigbjobo/software/DEEPMD_FROM_SOURCE/tensorflow/install/lib/libtensorflow_framework.so
  set tf intra_op_parallelism_threads: 0
  set tf inter_op_parallelism_threads: 0
  >>> Info of lammps module:
  use deepmd-kit at:  /u/sigbjobo/software/DEEPMD_FROM_SOURCE/deepmd-kit/install
  source:             v2.1.3
  source branch:      master
  source commit:      5a32c49
  source commit at:   2022-07-01 09:52:58 +0800
  build float prec:   double
  build with tf inc:  /u/sigbjobo/software/DEEPMD_FROM_SOURCE/tensorflow/install/include;/u/sigbjobo/software/DEEPMD_FROM_SOURCE/tensorflow/install/include
  build with tf lib:  /u/sigbjobo/software/DEEPMD_FROM_SOURCE/tensorflow/install/lib/libtensorflow_cc.so;/u/sigbjobo/software/DEEPMD_FROM_SOURCE/tensorflow/install/lib/libtensorflow_framework.so
  restoring pair style deepmd from restart
  2592 atoms
Finding 1-2 1-3 1-4 neighbors ...
  special bond factors lj:    0        0        0       
  special bond factors coul:  0        0        0       
     0 = max # of 1-2 neighbors
     0 = max # of 1-3 neighbors
     0 = max # of 1-4 neighbors
     1 = max # of special neighbors
  special bonds CPU = 0.000 seconds
  read_restart CPU = 0.009 seconds
include 	in.setup
variable	out_freq equal 2000
variable	out_freq2 equal 2000

timestep        0.0005

neigh_modify    delay 7 every 1

include         in.deepmd
# This is deepMD model

# create groups ###
#group ox type 2
#group hy type 1

mass 2 15.999
mass 1 1.008

pair_style      deepmd ../graph.pb
pair_coeff      * *

bond_style      none
angle_style     none
dihedral_style  none
improper_style  none
neigh_modify exclude none


neighbor        2.0 bin
neigh_modify    every 50 delay 0 check no

thermo          ${out_freq}
thermo          2000
thermo_style 	custom step temp pe etotal epair emol press lx ly lz vol pxx pyy pzz pxy pxz pyz

restart 	${out_freq} restart.lmp.${pid} restart2.lmp.${pid}
restart 	2000 restart.lmp.${pid} restart2.lmp.${pid}
restart 	2000 restart.lmp.0 restart2.lmp.${pid}
restart 	2000 restart.lmp.0 restart2.lmp.0


timer           timeout 23:50:00 every 1000
New timer settings: style=normal  mode=nosync  timeout=23:50:00


# Set number of time steps
variable 	nsteps_wall		equal	 6000000
variable 	nsteps_enhanced_coex    equal	150000000

variable     nsteps_enhanced_coex_upto equal (${nsteps_wall}+${nsteps_enhanced_coex})
variable     nsteps_enhanced_coex_upto equal (6000000+${nsteps_enhanced_coex})
variable     nsteps_enhanced_coex_upto equal (6000000+150000000)


# Set temperature for first step
if "$(step) < 1  " then    "velocity 	all create ${temperature} ${seed} dist gaussian"


# Always run thermo and barostat


######################################
# Run simulation with wall potential #
######################################
if " $(step) < ${nsteps_wall} " then    "fix             3 all plumed plumedfile plumed.equil.dat outfile plumed.equil.out"   "fix             1 all nph ${direction} ${pressure} ${pressure} ${pressureDamp}"   "fix             2 all temp/csvr ${temperature} ${temperature} ${tempDamp} ${seed}"   "run             ${nsteps_wall} upto"
if " $(step) == ${nsteps_wall} " then    "unfix 3"   "unfix 1"   "unfix 2"


############################
# Run enhanced coesistence #
############################
if "$(step) == ${nsteps_wall}" then    "fix             3 all plumed plumedfile plumed.start.dat outfile plumed.out" else    "fix             3 all plumed plumedfile plumed.dat outfile plumed.out"
fix             3 all plumed plumedfile plumed.dat outfile plumed.out

if "$(step) < ${nsteps_enhanced_coex_upto} && $(step) >= ${nsteps_wall} " then    "include         in.dump"    "fix             1 all nph ${direction} ${pressure} ${pressure} ${pressureDamp}"   "fix             2 all temp/csvr ${temperature} ${temperature} ${tempDamp} ${seed}"   "run             ${nsteps_enhanced_coex_upto} upto"    "unfix 3"   "unfix 1"   "unfix 2"
include         in.dump
dump            myDump all atom ${out_freq2} dump.water.${pid}
dump            myDump all atom 2000 dump.water.${pid}
dump            myDump all atom 2000 dump.water.0
dump            myDump2 all dcd ${out_freq2} dump.${pid}.dcd
dump            myDump2 all dcd 2000 dump.${pid}.dcd
dump            myDump2 all dcd 2000 dump.0.dcd
dump_modify     myDump append yes
dump_modify     myDump2 append yes

fix             1 all nph ${direction} ${pressure} ${pressure} ${pressureDamp}
fix             1 all nph z ${pressure} ${pressure} ${pressureDamp}
fix             1 all nph z 3039.75 ${pressure} ${pressureDamp}
fix             1 all nph z 3039.75 3039.75 ${pressureDamp}
fix             1 all nph z 3039.75 3039.75 1
fix             2 all temp/csvr ${temperature} ${temperature} ${tempDamp} ${seed}
fix             2 all temp/csvr 275 ${temperature} ${tempDamp} ${seed}
fix             2 all temp/csvr 275 275 ${tempDamp} ${seed}
fix             2 all temp/csvr 275 275 0.1 ${seed}
fix             2 all temp/csvr 275 275 0.1 745823
run             ${nsteps_enhanced_coex_upto} upto
run             156000000 upto

CITE-CITE-CITE-CITE-CITE-CITE-CITE-CITE-CITE-CITE-CITE-CITE-CITE

Your simulation uses code contributions which should be cited:

- USER-DEEPMD package:

@article{Wang_ComputPhysCommun_2018_v228_p178,
  author = {Wang, Han and Zhang, Linfeng and Han, Jiequn and E, Weinan},
  doi = {10.1016/j.cpc.2018.03.016},
  url = {https://doi.org/10.1016/j.cpc.2018.03.016},
  year = 2018,
  month = {jul},
  publisher = {Elsevier {BV}},
  volume = 228,
  journal = {Comput. Phys. Commun.},
  title = {{DeePMD-kit: A deep learning package for many-body potential energy representation and molecular dynamics}},
  pages = {178--184}
}

CITE-CITE-CITE-CITE-CITE-CITE-CITE-CITE-CITE-CITE-CITE-CITE-CITE

Generated 0 of 1 mixed pair_coeff terms from geometric mixing rule
Neighbor list info ...
  update every 50 steps, delay 0 steps, check no
  max neighbors/atom: 2000, page size: 100000
  master list distance cutoff = 8
  ghost atom cutoff = 8
  binsize = 4, bins = 11 9 9
  1 neighbor lists, perpetual/occasional/extra = 1 0 0
  (1) pair deepmd, perpetual
      attributes: full, newton on
      pair build: full/bin
      stencil: full/bin/3d
      bin: standard
Per MPI rank memory allocation (min/avg/max) = 6.227 | 6.228 | 6.229 Mbytes
   Step          Temp          PotEng         TotEng         E_pair         E_mol          Press            Lx             Ly             Lz           Volume          Pxx            Pyy            Pzz            Pxy            Pxz            Pyz      
 143265000   270.93587     -401.2092      -310.46924     -401.2092       0              2182.8702      31.216999      21.524542      33.644597      22606.868      672.88276      2509.2079      3366.5198     -504.84477      1897.1536     -188.32523    
 143266000   268.15403     -399.3888      -309.58052     -399.25492      0              2005.2077      31.216999      21.524542      33.564089      22552.772      1346.5632      2045.3507      2623.7091      367.14715      1494.9256     -810.2029     
 143268000   280.84608     -402.75624     -308.69723     -402.6062       0              4567.5434      31.216999      21.524542      33.586434      22567.786      3959.8048      5343.7962      4399.0293      876.99051      960.15208      1324.8611    
 143270000   271.40262     -402.61278     -311.71651     -402.39187      0              1017.0483      31.216999      21.524542      33.437007      22467.382      1236.8475      1903.9396     -89.642255      969.16656      245.96795     -651.39647    
 143272000   281.84849     -404.54539     -310.15065     -404.33637      0              3490.758       31.216999      21.524542      33.497064      22507.736      2985.365       3471.943       4014.9659      27.13844       143.27539      833.23497    
 143274000   280.99617     -403.0364      -308.92712     -402.81221      0              3490.0001      31.216999      21.524542      33.5344        22532.823      6062.8002      1694.7471      2712.4531     -179.92101     -584.80991     -299.50628    
 143276000   275.13853     -401.44254     -309.29506     -401.29801      0              2031.1238      31.216999      21.524542      33.576355      22561.014      3446.2169      1765.6135      881.54096      113.32316     -590.94166     -1484.5922    
 143278000   279.44642     -401.28336     -307.69311     -401.12023      0              2381.8912      31.216999      21.524542      33.585549      22567.192      2839.7104      1887.2715      2418.6916      421.2716      -64.241867      439.06199    
 143280000   274.49957     -402.03647     -310.10299     -401.887        0              4058.1539      31.216999      21.524542      33.373591      22424.77       5410.1979      2789.5035      3974.7604     -131.90012     -2699.9847     -415.73869    
 143282000   279.59233     -404.39499     -310.75588     -404.26732      0              3353.5572      31.216999      21.524542      33.716869      22655.43       4130.6317      3096.2014      2833.8385      136.30399     -495.73483     -929.3416     
 143284000   273.91331     -402.46155     -310.72441     -402.37385      0              1631.1596      31.216999      21.524542      33.699446      22643.723      2855.3997     -81.957092      2120.0361      643.7105       85.814027     -809.51083    
 143286000   263.17106     -401.64379     -313.50437     -401.48082      0              3843.6123      31.216999      21.524542      33.678037      22629.338      5112.2182      2413.669       4004.9499     -550.72868     -550.83566     -1236.0051    
 143288000   275.13313     -406.82783     -314.68215     -406.62527      0              3150.7166      31.216999      21.524542      33.748739      22676.844      2549.6244      5148.8951      1753.6302     -492.67162      193.28628     -250.03265    
 143290000   286.99967     -401.33817     -305.21824     -401.19476      0              4128.7638      31.216999      21.524542      33.517182      22521.254      4135.664       4451.8635      3798.7638      1247.8044     -952.80328     -964.63733    
 143292000   273.46805     -399.22997     -307.64195     -399.02065      0              1869.7417      31.216999      21.524542      33.353185      22411.059      2839.6661      1237.4446      1532.1143      1214.6485     -1649.9213      247.18707    
 143294000   267.58686     -401.40805     -311.78972     -401.25075      0              3597.1968      31.216999      21.524542      33.531394      22530.803      2867.1614      3855.8469      4068.5822      719.51252     -933.02309     -1990.4158    
 143296000   278.2466      -399.42391     -306.2355      -399.27182      0              2738.2505      31.216999      21.524542      33.390862      22436.376      3200.2141      2690.8158      2323.7217      352.10158     -798.13707      837.15872    
 143298000   274.31228     -400.25703     -308.38627     -400.09981      0              1349.1095      31.216999      21.524542      33.596287      22574.407      1105.9637      1740.8892      1200.4756     -301.24633     -590.69688     -491.65436    
 143300000   271.97701     -404.24471     -313.15607     -404.06535      0              3076.6965      31.216999      21.524542      33.398939      22441.803      2082.7735      3776.7144      3370.6015      1336.0535     -1410.771       629.92409    
 143302000   274.13653     -404.08637     -312.27448     -403.95489      0              280.14129      31.216999      21.524542      33.462819      22484.725      644.27828      768.90159     -572.75599     -183.53877      493.23444     -1216.7902    
 143304000   272.72398     -403.28286     -311.94404     -403.07452      0              3792.4753      31.216999      21.524542      33.458875      22482.075      3660.8756      4470.3703      3246.1801      541.37897     -1537.9347     -545.13875    
 143306000   274.36313     -405.59359     -313.7058      -405.39576      0              3380.0799      31.216999      21.524542      33.461808      22484.046      4522.9994      1572.0572      4045.1831     -975.59055     -1057.6241      881.87786    
 143308000   273.52857     -402.35288     -310.7446      -402.25884      0              1675.4096      31.216999      21.524542      33.526664      22527.625      457.97205      2974.4434      1593.8134      54.551523     -1959.1053      193.54374    
 143310000   269.53625     -402.28309     -312.01189     -402.15039      0              2793.3883      31.216999      21.524542      33.537396      22534.837      3680.0796      4489.8219      210.26344     -328.36223      846.39328     -1926.0828    
 143312000   279.26024     -402.21807     -308.69017     -402.09695      0              4373.4791      31.216999      21.524542      33.346627      22406.653      4351.8609      6549.1884      2219.3881      1381.1345     -1082.3854     -410.76278    
 143314000   280.42248     -400.5002      -306.58306     -400.28881      0              2214.1496      31.216999      21.524542      33.511805      22517.641      1943.4584      2312.0176      2386.9728      1175.2094     -280.22834     -211.78395    
 143316000   280.54986     -399.36209     -305.40229     -399.22236      0              2929.1396      31.216999      21.524542      33.343303      22404.419      657.6989       4666.5382      3463.1816     -221.98187     -205.53729      597.4369     
 143318000   275.11517     -403.32427     -311.18461     -403.17216      0              4069.7016      31.216999      21.524542      33.393703      22438.285      4516.0762      4867.9473      2825.0814     -79.641407      14.499995      1079.4395    
 143320000   273.74497     -401.63189     -309.95113     -401.40215      0              4750.5889      31.216999      21.524542      33.139613      22267.553      2892.798       6285.404       5073.5648      208.75548     -153.12416     -1476.4447    
 143322000   271.7535      -404.13892     -313.12513     -403.93734      0              1517.6511      31.216999      21.524542      33.173605      22290.393      1288.9966      1240.0266      2023.9301      1258.3858     -1254.5635     -1644.8767    
 143324000   265.97441     -399.01403     -309.93573     -398.77107      0              2208.6168      31.216999      21.524542      33.435321      22466.249      1187.067       3870.5743      1568.2091      929.67229      225.20037     -368.35211    
 143326000   271.80788     -400.86997     -309.83797     -400.72275      0              3411.3839      31.216999      21.524542      33.424527      22458.996      2357.3231      3707.2589      4169.5698     -618.22095      440.63335     -1570.2088    
 143328000   277.11418     -398.85652     -306.04737     -398.71872      0              2901.9189      31.216999      21.524542      33.185974      22298.705      1969.3217      2809.4054      3927.0296     -444.53851     -762.69701     -1602.5884    
 143330000   272.89136     -405.58598     -314.19111     -405.35486      0              6037.2627      31.216999      21.524542      33.127426      22259.364      5152.302       4983.6006      7975.8854     -426.9221      -100.49166     -1205.4069    
 143332000   277.39744     -403.19817     -310.29415     -402.99242      0              2234.461       31.216999      21.524542      33.178903      22293.954      2929.9256      1965.268       1808.1894      1870.256       2145.535      -1686.9142    
 143334000   274.25814     -404.19732     -312.3447      -403.9575       0              5223.6913      31.216999      21.524542      33.187167      22299.507      5601.5626      6392.3093      3677.2022     -228.12625     -368.98759     -1331.8966    
 143336000   279.3725      -406.61329     -313.0478      -406.35616      0              3182.7929      31.216999      21.524542      33.304838      22378.573      3218.168       3195.2613      3134.9493     -2230.9091      2931.2202      662.40973    
 143338000   272.97747     -402.7671      -311.34339     -402.58473      0              989.25165      31.216999      21.524542      33.270574      22355.55       607.08073      28.522884      2332.1513      746.08727      1912.9486     -856.15446    
 143340000   280.69264     -402.40748     -308.39985     -402.24942      0              1371.5823      31.216999      21.524542      33.635129      22600.506      998.43078      3585.4424     -469.1263      -313.63638      1226.2405     -1210.1627    
 143342000   271.03169     -405.9436      -315.17156     -405.72284      0              3482.5806      31.216999      21.524542      33.419166      22455.394      2967.628       4210.3377      3269.7761     -353.76554     -1339.1797     -288.07735    
 143344000   268.72166     -404.18852     -314.19013     -404.06375      0              3809.9716      31.216999      21.524542      33.261383      22349.374      2547.2171      5238.2215      3644.4762     -1105.2974     -452.51752      175.26095    
 143346000   267.39617     -401.46917     -311.9147      -401.31763      0              4623.821       31.216999      21.524542      33.350881      22409.511      4142.9036      3309.0888      6419.4706      168.95238     -164.71089      393.96868    
 143348000   281.56194     -402.57833     -308.27956     -402.47583      0              2761.2476      31.216999      21.524542      33.403994      22445.2        1869.7549      1814.1684      4599.8197      759.40605      1029.4661      1800.4319    
 143350000   273.75708     -400.83697     -309.15216     -400.70109      0              2221.8925      31.216999      21.524542      33.284157      22364.677      2829.4646      1711.8014      2124.4116      1927.8454     -98.748416      599.54271    
 143352000   275.74862     -402.52215     -310.17034     -402.37156      0              2996.8184      31.216999      21.524542      33.245565      22338.746      2406.865       4264.0355      2319.5546      743.18579      1555.2877     -194.40234    
 143354000   268.28519     -404.25393     -314.40172     -404.06043      0              3232.752       31.216999      21.524542      33.36843       22421.303      1596.7613      2663.6222      5437.8726      551.94954     -972.109        343.76138    
 143356000   272.6916      -402.14707     -310.8191      -402.00415      0              2427.6804      31.216999      21.524542      33.555787      22547.194      2810.7274      1869.2813      2603.0325     -480.71618      1198.3785     -83.431752    
 143358000   280.86489     -404.05025     -309.98494     -403.8513       0              3072.6341      31.216999      21.524542      33.46436       22485.761      3968.4828      1795.1699      3454.2496     -2418.7665     -259.7842      -532.23093    
 143360000   270.38376     -402.20781     -311.65277     -401.98158      0              4155.0006      31.216999      21.524542      33.194305      22304.303      5681.2503      4555.1805      2228.5709      453.15983     -868.59069      326.15127    
 143362000   272.17634     -402.46301     -311.30761     -402.33182      0              4285.3978      31.216999      21.524542      33.547284      22541.48       2918.1674      4851.357       5086.669       1238.2937      1161.8538      1206.1645    
 143364000   277.12586     -403.27939     -310.46632     -403.06516      0              745.89263      31.216999      21.524542      33.318373      22387.668      2491.1093     -569.75984      316.32846      430.35051     -1035.847      -962.94686    
 143366000   275.57179     -402.64956     -310.35698     -402.45657      0              5956.6744      31.216999      21.524542      33.169555      22287.673      5545.5597      5034.7835      7289.6801      111.03659      448.84481      1127.5759    
 143368000   272.1506      -402.17947     -311.03269     -401.97373      0              3579.8273      31.216999      21.524542      33.337898      22400.787      4273.1084      1941.9083      4524.4651     -217.264       -101.51326      521.39736    
 143370000   269.67691     -401.02365     -310.70534     -400.82498      0              3766.5193      31.216999      21.524542      33.097492      22239.251      4046.2721      3655.7819      3597.5038     -95.905525      1144.1557      350.40042    
 143372000   271.99762     -399.9243      -308.82875     -399.77396      0              3074.7346      31.216999      21.524542      33.309494      22381.702      2966.4782      1966.7472      4290.9783      763.96369     -733.37592      847.48134    
 143374000   275.31315     -399.08109     -306.87512     -399.07085      0              2282.3434      31.216999      21.524542      33.554152      22546.095      3285.4257      1722.1843      1839.42       -776.30132     -754.36985     -874.24555    
 143376000   274.40779     -400.38784     -308.48509     -400.33698      0              1341.843       31.216999      21.524542      33.578735      22562.613      2318.0263     -306.37802      2013.8807      581.52693     -418.74679      24.488694    
 143378000   280.94378     -403.0178      -308.92607     -402.90686      0              3227.0449      31.216999      21.524542      33.351359      22409.832      2348.6704      3056.4287      4276.0357     -1364.5625     -2.6771438     -708.70788    
 143380000   275.1007      -398.20677     -306.07196     -398.14234      0              3254.6983      31.216999      21.524542      33.559448      22549.654      3489.0783      4329.2951      1945.7215     -767.03699     -1794.5513     -771.20485    
 143382000   270.5953      -401.52761     -310.90172     -401.4068       0              2474.4771      31.216999      21.524542      33.660331      22617.44       1966.6983      558.83126      4897.9017     -1111.3357     -165.5472       764.8452     
 143384000   276.95204     -399.5988      -306.84395     -399.50543      0              4479.3896      31.216999      21.524542      33.455121      22479.553      4439.222       3372.2952      5626.6517      1601.912       549.43006     -255.50816    
 143386000   276.21148     -402.67456     -310.16773     -402.57235      0              1857.6506      31.216999      21.524542      33.591293      22571.051      1350.7464      1083.3628      3138.8426      67.617778      301.9702       1099.1364    
 143388000   279.06148     -403.91514     -310.45381     -403.74392      0              3572.2045      31.216999      21.524542      33.478577      22495.314      3220.226       2264.5843      5231.8031      588.27518     -2.3761992     -322.79677    
 143390000   279.6983      -397.38272     -303.70812     -397.26199      0              2651.6115      31.216999      21.524542      33.480305      22496.475      1837.764       1513.5777      4603.4928     -444.19988     -430.57704      884.12342    
 143392000   270.73003     -398.89799     -308.22697     -398.78638      0              2858.6834      31.216999      21.524542      33.45632       22480.359      2524.187       2068.6029      3983.2604      256.28372     -1741.9917     -282.86885    
 143394000   275.34904     -401.20449     -308.98651     -401.11131      0              2852.6747      31.216999      21.524542      33.438152      22468.151      3367.7765      4442.3309      747.91684      1068.8587      413.34812     -556.87303    
 143396000   270.27434     -403.38303     -312.86463     -403.24166      0              2688.9989      31.216999      21.524542      33.505333      22513.293      2067.5677      3293.4568      2705.9722     -524.73658      1262.8536      277.21417    
 143398000   276.65984     -398.62553     -305.96854     -398.5246       0              2467.2172      31.216999      21.524542      33.771972      22692.455      1878.8544      2334.5385      3188.2586     -360.1553      -385.55968     -890.50261    
 143400000   271.76316     -403.39617     -312.37914     -403.2365       0              2196.7572      31.216999      21.524542      33.645663      22607.584      3599.6304      811.67702      2178.964      -2188.0213      178.30855      1482.8124    
 143402000   277.21031     -402.63758     -309.79624     -402.53387      0              921.96702      31.216999      21.524542      33.96227       22820.323      1382.3757      994.41979      389.10553     -550.67565      1305.2381     -1011.0278    
 143404000   263.62505     -405.48275     -317.19128     -405.3545       0              3914.1698      31.216999      21.524542      33.322497      22390.439      5468.9169      2199.1438      4074.4487      673.72497      1031.4408     -1316.7399    
 143406000   271.15156     -400.97615     -310.16396     -400.86695      0              2198.6512      31.216999      21.524542      33.595233      22573.699      2501.6362      391.99894      3702.3184     -9.6003357     -1869.6104      982.67377    
 143408000   279.95778     -402.62396     -308.86245     -402.49337      0              3912.6429      31.216999      21.524542      33.533368      22532.13       5350.33        3608.3145      2779.2841      95.296974      878.29449      7.6235953    
 143410000   273.82051     -401.44955     -309.74349     -401.36216      0              3341.8509      31.216999      21.524542      33.512028      22517.791      3899.4059      1789.1885      4336.9584     -1044.2373      633.2082      -45.61556     
 143412000   274.49562     -403.25582     -311.32366     -403.16026      0              2043.1018      31.216999      21.524542      33.669514      22623.611      1607.5034      3040.303       1481.4989      345.71012      78.399432      144.69856    
 143414000   277.27462     -398.57791     -305.71502     -398.46755      0              2335.0107      31.216999      21.524542      33.665824      22621.131      992.60496      1460.7852      4551.6418      390.60873     -428.80087     -1379.6526    
 143416000   283.63215     -404.94165     -309.94954     -404.76621      0              3715.7535      31.216999      21.524542      33.398296      22441.37       3482.091       4238.3649      3426.8047     -1138.0234      1285.8049     -895.95321    
 143418000   274.98457     -403.2995      -311.20358     -403.10337      0              2242.5104      31.216999      21.524542      33.534127      22532.64       498.29446      5066.1835      1163.0531      1058.9678     -300.23913     -141.00282    
 143420000   271.59536     -401.55995     -310.59912     -401.39465      0              3061.4341      31.216999      21.524542      33.512815      22518.319      993.09665      3372.5025      4818.7031     -157.52674     -318.98105     -93.311702    
 143422000   269.57523     -402.35646     -312.07221     -402.19504      0              2532.7456      31.216999      21.524542      33.465465      22486.503      2788.743       2492.6539      2316.84        5.5304997     -492.73064      55.93304     
 143424000   274.65964     -400.90962     -308.92253     -400.73619      0              2655.9065      31.216999      21.524542      33.501402      22510.651      1875.3878      3555.1979      2537.1337     -1567.9009      1306.7882     -2310.8498    
 143426000   269.33729     -401.68597     -311.4814      -401.57049      0              1833.4907      31.216999      21.524542      33.614554      22586.681      1860.4909      2719.77        920.21125      86.024865     -12.751002      157.58178    
 143428000   268.57091     -399.28543     -309.33754     -399.23641      0              1360.1184      31.216999      21.524542      33.571351      22557.652      1326.1699      1609.7372      1144.4481     -804.86175     -546.21212     -1707.4846    
 143430000   280.47317     -401.22593     -307.29181     -401.05773      0              3035.1347      31.216999      21.524542      33.488008      22501.651      4784.517       1559.7423      2761.1446     -1624.7114      624.08299     -504.34005    
 143432000   260.19125     -400.81116     -313.66972     -400.65047      0              2656.8265      31.216999      21.524542      33.328556      22394.51       4762.6027      2193.6777      1014.1993      1514.8323      354.77837      353.74218    
 143434000   270.9514      -399.84139     -309.09623     -399.83704      0              260.10543      31.216999      21.524542      33.851218      22745.703      151.02399      273.92763      355.36466     -270.75271     -160.32638     -801.18303    
 143436000   268.2723      -403.57525     -313.72736     -403.52539      0              1649.4203      31.216999      21.524542      33.777068      22695.88       1688.6195      881.09639      2378.5451     -139.48837     -1065.6495     -1093.0847    
 143438000   277.41188     -401.66322     -308.75436     -401.55971      0              2709.4111      31.216999      21.524542      33.636848      22601.661      2448.4854      3417.1733      2262.5745      1411.3343      905.44828      646.84951    
 143440000   275.0239      -403.02887     -310.91978     -402.94172      0              1782.5522      31.216999      21.524542      33.72394       22660.181      2393.1546      2687.2501      267.25174     -1556.1437      545.38865     -454.48743    
 143442000   277.12457     -404.74354     -311.93091     -404.60932      0              2100.4767      31.216999      21.524542      33.589943      22570.144      1104.8237      2271.8942      2924.7122      919.79022     -276.2216       1097.7999    
 143444000   272.46434     -402.94897     -311.69711     -402.85353      0              1778.1521      31.216999      21.524542      33.633938      22599.706      1617.1814      1655.4008      2061.8742     -207.71469      216.48057      969.17836    
 143446000   273.97779     -403.55649     -311.79776     -403.40551      0              2506.8325      31.216999      21.524542      33.600908      22577.512      1726.3484      2299.8864      3494.2628     -2381.0632     -1213.8853      1451.4851    
 143448000   275.75275     -401.57025     -309.21705     -401.42323      0              2919.9426      31.216999      21.524542      33.784412      22700.814      3200.6257      3054.3895      2504.8126      1915.9662      1554.4502      154.51605    
 143450000   268.3447      -401.01302     -311.14088     -400.9364       0              3525.1986      31.216999      21.524542      33.753017      22679.719      2666.9613      3694.0271      4214.6074      153.27845      368.77665     -152.9627     
 143452000   271.48914     -401.5042      -310.57895     -401.35999      0              2458.3943      31.216999      21.524542      33.747204      22675.813      4290.2015      1205.3653      1879.6163      349.18126     -51.959972      460.72       
 143454000   274.27097     -404.69326     -312.83634     -404.40365      0              685.99671      31.216999      21.524542      33.745868      22674.915      1520.6303      423.48512      113.87472     -218.49797     -1287.0473      468.14802    
 143456000   278.72242     -399.97657     -306.6288      -399.79959      0              3609.2688      31.216999      21.524542      33.671865      22625.19       3492.214       4114.5712      3221.0212      509.36812      1417.654       2063.5234    
 143458000   271.73567     -400.40439     -309.39658     -400.19201      0              1592.0906      31.216999      21.524542      33.727959      22662.882      1735.7903      2762.5286      277.95289     -1798.3396      639.89443     -580.83019    
 143460000   275.21252     -401.90574     -309.73348     -401.74465      0              2531.1875      31.216999      21.524542      33.709171      22650.258      2407.9753      1923.8421      3261.7451     -235.37418     -321.53635      1478.8033    
 143462000   278.04232     -403.53005     -310.41005     -403.24356      0              1975.9353      31.216999      21.524542      33.804354      22714.214      2194.2199      3600.0777      133.50841      101.01754      943.56166     -680.47396    
 143464000   271.99028     -399.72616     -308.63307     -399.47802      0              2896.2608      31.216999      21.524542      33.473788      22492.096      1796.6738      3623.6823      3268.4262     -591.17638      471.67014     -339.34922    
 143466000   275.54606     -402.1123      -309.82834     -401.96048      0              4195.8979      31.216999      21.524542      33.496284      22507.212      2621.7762      3333.4011      6632.5164      238.11545     -517.22169      813.46327    
 143468000   264.27778     -404.15721     -315.64714     -403.95945      0              3721.5095      31.216999      21.524542      33.430882      22463.266      3750.9665      4261.4025      3152.1594     -2032.5697     -277.71814      388.76842    
 143470000   265.2724      -402.79802     -313.95484     -402.62337      0              3804.8433      31.216999      21.524542      33.725891      22661.492      4135.211       4501.0953      2778.2237      1556.5478     -746.62802      70.742635    
 143472000   280.1101      -404.16353     -310.35101     -403.95945      0             -1099.0526      31.216999      21.524542      33.676269      22628.149     -1536.0022     -13.528573     -1747.627       2311.0451      34.501485     -1566.2643    
 143474000   272.37505     -402.01034     -310.78839     -401.72009      0              1489.456       31.216999      21.524542      33.745587      22674.727      829.87162      1496.5729      2141.9234      435.94366      118.17091      899.00436    
 143476000   269.66922     -401.68291     -311.36718     -401.40109      0              5029.5127      31.216999      21.524542      33.535458      22533.534      4900.8271      6741.8409      3445.8701      105.61802     -733.65165      144.67287    
 143478000   272.13067     -400.64188     -309.50177     -400.32812      0              816.8026       31.216999      21.524542      33.610033      22583.643      832.11043      1434.0888      184.20857      395.63633     -111.22339      1629.2898    
 143480000   269.30981     -407.2252      -317.02984     -406.87701      0              3832.0635      31.216999      21.524542      33.463026      22484.865      2863.6865      2984.4675      5648.0364      147.19216      973.35944      888.78576    
 143482000   275.75863     -402.34086     -309.98571     -402.05486      0              2956.0586      31.216999      21.524542      33.371184      22423.153      3561.3456      2037.9446      3268.8855      723.961        1257.2598      142.86719    
 143484000   278.89599     -406.89586     -313.48995     -406.54814      0              2661.5983      31.216999      21.524542      33.628384      22595.974      1739.5504      3567.0485      2678.196       18.206149     -1060.1035     -1301.3438    
 143486000   267.83762     -402.39964     -312.69733     -402.1754       0              1527.1583      31.216999      21.524542      33.564665      22553.159      791.42588      2874.8239      915.22527      933.49212     -954.00732     -1507.3438    
 143488000   276.48305     -404.28509     -311.68731     -403.96759      0              1020.4758      31.216999      21.524542      33.696926      22642.03      -58.539728      2293.5158      826.4515      -520.97166      857.81771      489.74818    
 143490000   275.20305     -403.90517     -311.73608     -403.59162      0              3274.6128      31.216999      21.524542      33.33288       22397.416      4983.7242      304.29326      4535.821      -290.59432     -1404.8474     -27.520321    
 143492000   275.88998     -402.93613     -310.53698     -402.59261      0              258.43141      31.216999      21.524542      33.493014      22505.015      8.4463491      423.21721      343.63067      1239.0911      435.44795      147.52306    
 143494000   274.75214     -403.36213     -311.34406     -403.09891      0              2657.0099      31.216999      21.524542      33.470348      22489.785      2846.0952      2558.036       2566.8987      1565.2114     -157.56241      226.7921     
 143496000   278.14181     -403.46699     -310.31367     -403.11766      0              2399.941       31.216999      21.524542      33.391026      22436.486      572.41365      4280.63        2346.7794      968.2484      -658.68624      1115.2304    
 143498000   278.12437     -405.10498     -311.9575      -404.77458      0              4116.7385      31.216999      21.524542      33.407564      22447.598      3027.646       4137.12        5185.4496     -229.57625     -386.30461      763.87477    
 143500000   271.92174     -404.58512     -313.51498     -404.26544      0              2452.5621      31.216999      21.524542      33.464685      22485.979      2308.8801      2169.5472      2879.2591      48.458625      575.21857      2277.1372    
 143502000   270.03555     -404.79739     -314.35897     -404.47486      0              3506.2083      31.216999      21.524542      33.512108      22517.845      5335.5917      3457.5534      1725.4798     -311.27235     -1366.1688     -1491.9116    
 143504000   275.66212     -405.5067      -313.18386     -405.19235      0              3688.0757      31.216999      21.524542      33.443821      22471.96       5025.2221      2546.975       3492.0302      27.353626     -1531.6283     -1575.0765    
 143506000   278.71681     -403.94598     -310.60008     -403.65645      0              4564.6427      31.216999      21.524542      33.440333      22469.617      5192.0942      4294.8203      4207.0134     -221.96409     -869.83296      452.63711    
 143508000   269.59728     -400.30841     -310.01676     -400.0789       0              3754.9561      31.216999      21.524542      33.524059      22525.874      3317.5596      4103.2398      3844.0689      1366.6765     -892.51101     -571.76549    
 143510000   281.81166     -402.84558     -308.46318     -402.57662      0              3282.738       31.216999      21.524542      33.220166      22321.68       2475.9819      4764.8682      2607.3639      451.74488     -1064.4266     -1821.0216    
 143512000   274.05985     -402.1022      -310.31599     -401.84755      0              2225.4037      31.216999      21.524542      33.330527      22395.835      1415.808       1652.9728      3607.4302      98.820719     -332.3568       513.83605    
 143514000   275.19428     -406.1988      -314.03265     -405.9215       0              1771.6413      31.216999      21.524542      33.202085      22309.53       2667.9781      1081.959       1564.987       1076.9344      441.14096     -1188.0026    
 143516000   281.82815     -403.66855     -309.28063     -403.38517      0              4585.4872      31.216999      21.524542      33.205127      22311.574      5577.6935      3722.346       4456.4222     -398.38541     -404.56333     -1157.0723    
 143518000   270.78132     -402.97485     -312.28666     -402.80138      0              3601.4527      31.216999      21.524542      33.166542      22285.648      3531.1001      4955.4044      2317.8537      209.10081      286.03173     -461.42325    
 143520000   277.26046     -403.07471     -310.21656     -402.90621      0              2147.9759      31.216999      21.524542      33.200346      22308.362      2011.3365      1668.3194      2764.2717     -238.97392     -738.23495     -1358.8721    
 143522000   273.08688     -403.2658      -311.80544     -403.01965      0              3572.8856      31.216999      21.524542      33.074527      22223.82       1392.7505      4950.4573      4375.449      -1501.1897      65.848039     -1012.1164    
 143524000   275.54304     -406.32627     -314.04331     -406.07459      0              4676.2319      31.216999      21.524542      33.170584      22288.364      5223.3621      5472.9099      3332.4239     -765.95029      1292.4672     -452.75756    
 143526000   271.4687      -403.6608      -312.7424      -403.39803      0              2874.826       31.216999      21.524542      33.26071       22348.922      1922.5017      2631.7758      4070.2005     -225.42635     -951.18016     -439.89072    
 143528000   285.41015     -402.46104     -306.87346     -402.26644      0              3591.3855      31.216999      21.524542      33.377211      22427.203      4840.1827      4005.6624      1928.3115     -1188.1074      1220.0421     -855.18208    
 143530000   272.65237     -403.10129     -311.78646     -402.84867      0              2984.6738      31.216999      21.524542      33.096161      22238.356      4001.5174      1431.8279      3520.6761     -890.55212     -172.66322     -398.72305    
 143532000   280.41468     -401.42333     -307.5088      -401.19494      0              1802.7915      31.216999      21.524542      33.300878      22375.912      1697.6369      1286.1614      2424.5763      1161.8921      2301.7484      2244.2811    
 143534000   274.71595     -405.6015      -313.59555     -405.27405      0              3763.2344      31.216999      21.524542      33.239978      22334.992      4293.2298      3612.3019      3384.1715      1184.8853      968.49975      10.287334    
 143536000   270.8496      -404.52562     -313.81456     -404.3075       0              1996.8767      31.216999      21.524542      33.136183      22265.249      1658.803       2255.8229      2076.0042     -478.52421      1211.3268     -2028.8561    
 143538000   271.5039      -400.59814     -309.66795     -400.32839      0              4270.3301      31.216999      21.524542      33.228371      22327.192      4034.0355      5523.0762      3253.8786      88.742013     -125.75592     -2513.0088    
 143540000   273.01735     -401.22489     -309.78782     -401.01425      0              1610.265       31.216999      21.524542      33.414884      22452.517      72.456561      3539.0897      1219.2486      1663.8359      872.74178      1425.577     
 143542000   276.51477     -404.04607     -311.43767     -403.81967      0              2705.372       31.216999      21.524542      33.479165      22495.709      3885.3845      1018.7298      3212.0017     -426.50019      2.8775086      24.773278    
 143544000   277.41913     -402.47791     -309.56663     -402.21144      0              2729.6895      31.216999      21.524542      33.472043      22490.924      2073.6095      3005.4723      3109.9868      520.00274     -1222.0984      171.04093    
 143546000   268.8315      -401.08081     -311.04563     -400.8235       0              1773.7282      31.216999      21.524542      33.53039       22530.129      99.984173      2975.9296      2245.2707     -1498.8337      1885.9804      44.965131    
 143548000   275.96574     -403.98997     -311.56544     -403.69102      0              2145.3771      31.216999      21.524542      33.463325      22485.065      2767.9905      2258.9413      1409.1994     -4.4475284      1220.6471     -23.917006    
 143550000   271.96746     -402.4059      -311.32045     -402.09144      0              2424.2779      31.216999      21.524542      33.56973       22556.562      2349.9969      3404.8969      1517.9398     -408.29795      768.14671     -932.11193    
 143552000   270.24772     -405.03868     -314.5292      -404.72655      0              3707.0203      31.216999      21.524542      33.420307      22456.161      3433.9775      4236.5503      3450.5332      1442.7417      512.70857      1442.2715    
 143554000   273.87267     -402.38438     -310.66086     -402.08776      0              1527.286       31.216999      21.524542      33.409765      22449.077      600.57148      1759.5266      2221.7599     -403.82206     -69.290857      357.76472    
 143556000   275.54775     -402.0939      -309.80937     -401.81256      0              4135.6942      31.216999      21.524542      33.483853      22498.859      3175.5884      5506.3686      3725.1257     -1293.7956     -222.26341     -891.83846    
 143558000   275.27114     -408.67058     -316.47869     -408.34845      0              1720.93        31.216999      21.524542      33.35223       22410.418      872.60604      2395.9053      1894.2787      1546.1777      2217.1538      533.76251    
 143560000   282.48782     -404.23426     -309.62541     -403.94258      0              3105.1562      31.216999      21.524542      33.518536      22522.164      2965.7428      4019.1355      2330.5903      3.4450183     -343.73892     -195.26885    
 143562000   272.68686     -406.76998     -315.4436      -406.45424      0              2047.9909      31.216999      21.524542      33.702721      22645.924      2517.8447      1292.4794      2333.6486      276.6091      -1226.0594     -1197.8921    
 143564000   269.04638     -404.7902      -314.68306     -404.55274      0              1345.8401      31.216999      21.524542      33.470278      22489.738      1131.8692      2497.5083      408.1428      -812.24748     -378.55461      86.196259    
 143566000   274.86996     -405.02568     -312.96815     -404.79989      0              4038.9545      31.216999      21.524542      33.58454       22566.514      2765.9209      5663.9138      3687.0287      427.64476     -986.72635      91.306243    
 143568000   269.2403      -404.61819     -314.4461      -404.33407      0              3365.4684      31.216999      21.524542      33.289044      22367.961      4175.3044      1700.5614      4220.5395     -1057.2553     -594.2056      -134.55378    
 143570000   278.12596     -405.64462     -312.49661     -405.35104      0              2807.8267      31.216999      21.524542      33.400593      22442.914      2531.7692      2131.9271      3759.7839     -1419.714      -636.98579      298.61554    
 143572000   276.81157     -403.30436     -310.59656     -403.1255       0              3574.5297      31.216999      21.524542      33.539512      22536.258      4336.368       4547.4945      1839.7265      268.06723      616.84218     -213.00768    
 143574000   278.88685     -405.77986     -312.37702     -405.51203      0              3536.7963      31.216999      21.524542      33.721294      22658.403      3355.4072      3218.2023      4036.7796     -929.70424     -1000.0938      1436.4153    
 143576000   279.28789     -403.10975     -309.57259     -402.90244      0              2942.9759      31.216999      21.524542      33.491572      22504.046      3991.8935      3461.1057      1375.9286      1184.4923     -671.93148     -1187.7038    
 143578000   270.33479     -404.64523     -314.10659     -404.43374      0              2178.8542      31.216999      21.524542      33.566984      22554.718      3346.3795      1402.7402      1787.4428     -58.234108      581.57719     -1210.1712    
 143580000   266.79003     -402.00579     -312.65433     -401.80483      0              3141.927       31.216999      21.524542      33.747026      22675.693      2486.222       4359.2915      2580.2674     -1465.1797      543.02965     -1249.6067    
 143582000   279.4107      -406.55861     -312.98033     -406.29516      0              1902.247       31.216999      21.524542      33.689985      22637.365     -151.84276      3373.0006      2485.5831      1613.3103     -489.23021      1487.504     
 143584000   276.56026     -402.78479     -310.16116     -402.54025      0              1841.9126      31.216999      21.524542      33.499684      22509.497      1513.8577      1708.6315      2303.2487     -287.64841     -350.71134     -49.666527    
 143586000   277.50191     -407.48988     -314.55087     -407.17702      0              1095.4923      31.216999      21.524542      33.235644      22332.08       2045.6494      1756.2885     -515.46092     -575.75885      266.13242     -295.39869    
 143588000   278.66081     -405.0712      -311.74407     -404.70141      0              4317.9979      31.216999      21.524542      33.288463      22367.571      3217.4934      4631.9461      5104.5542     -737.90177      26.786343     -2085.0731    
 143590000   279.04484     -403.63879     -310.18303     -403.36619      0              4041.319       31.216999      21.524542      33.409218      22448.71       4139.6852      4244.8878      3739.3841      489.77923     -1799.9253     -491.93471    
 143592000   270.04983     -403.13423     -312.69102     -402.82977      0              1955.1908      31.216999      21.524542      33.3279        22394.07       3939.8858     -1280.2367      3205.9234      960.78377     -1346.0539      447.83546    
 143594000   271.82564     -403.43946     -312.40151     -403.20194      0              4420.1202      31.216999      21.524542      33.439464      22469.033      3355.0907      5571.5815      4333.6884      17.455698     -276.9464       295.08701    
 143596000   273.66265     -405.32553     -313.67235     -405.1095       0              1250.9897      31.216999      21.524542      33.63886       22603.013      763.72209      1966.2586      1022.9884     -376.23908     -669.64308      1057.1311    
 143598000   277.47225     -402.82563     -309.89655     -402.55642      0              3982.3056      31.216999      21.524542      33.696596      22641.808      4236.4863      3258.5638      4451.8668     -338.99935     -1083.4942     -1081.3325    
 143600000   266.10143     -403.94995     -314.82911     -403.71619      0              2091.8645      31.216999      21.524542      33.475237      22493.07       3130.6738      610.14348      2534.7762      494.70055     -966.13466     -383.13355    
 143602000   282.39732     -405.71743     -311.13889     -405.43901      0              3782.0317      31.216999      21.524542      33.358095      22414.359      3558.349       3473.3403      4314.4057     -348.94202     -200.6102      -882.04517    
 143604000   279.38865     -403.40393     -309.83303     -403.12314      0              3698.0331      31.216999      21.524542      33.263098      22350.527      2873.299       4128.5063      4092.2941      952.60279      114.4923       72.333139    
 143606000   274.36696     -402.49961     -310.61054     -402.23105      0              4561.2151      31.216999      21.524542      33.229353      22327.853      4493.845       4049.6506      5140.1498      337.52919      70.162064     -572.31381    
 143608000   268.85693     -403.02553     -312.98184     -402.71263      0              2660.5447      31.216999      21.524542      33.318925      22388.039      2384.7075      2413.0906      3183.836      -614.02199     -1455.0199     -460.87334    
 143610000   278.59547     -405.95799     -312.65274     -405.68159      0              3075.7883      31.216999      21.524542      33.247371      22339.959      2961.9211      1265.165       5000.2788      350.69212     -347.98235     -559.81592    
 143612000   276.43646     -405.70528     -313.12311     -405.39023      0              2651.3404      31.216999      21.524542      33.382266      22430.6        2438.2827      3712.3711      1803.3673      336.92843     -437.62065     -1279.1835    
 143614000   274.02768     -405.84769     -314.07225     -405.52396      0              4717.5788      31.216999      21.524542      33.494997      22506.347      5826.8971      6228.6532      2097.1861     -388.1224      -776.06324     -1601.0436    
 143616000   275.43713     -403.13164     -310.88415     -402.79942      0              1311.6362      31.216999      21.524542      33.461939      22484.134      1357.6539      2544.5446      32.710153      228.26427      941.34858      414.06478    
 143618000   271.53959     -406.21991     -315.27776     -405.91932      0              2888.1891      31.216999      21.524542      33.566712      22554.535      3078.2152      3070.1502      2516.202       1237.1932      448.01851      783.46646    
 143620000   273.05542     -400.16673     -308.71691     -399.88035      0              1608.6793      31.216999      21.524542      33.714074      22653.552      2018.444       2128.6479      678.94609      900.88377      423.34223      40.918332    
 143622000   282.6305      -404.64217     -309.98553     -404.36145      0              336.32704      31.216999      21.524542      33.555081      22546.719      485.16034     -308.17727      831.99807     -137.68452     -1622.8464      2241.7035    
 143624000   276.34277     -402.47908     -309.92828     -402.24339      0              4471.4006      31.216999      21.524542      33.449694      22475.907      4264.4276      4052.5742      5097.2001     -19.825818     -16.326044      421.15042    
 143626000   277.79582     -403.88973     -310.85229     -403.59674      0              484.34543      31.216999      21.524542      33.326505      22393.132      1122.7798     -1444.9096      1775.1661     -1851.5716      610.24192      217.38297    
 143628000   283.60667     -404.60166     -309.61809     -404.32408      0              4282.1427      31.216999      21.524542      33.081719      22228.652      4330.4948      4788.5482      3727.385      -858.28544     -997.71694     -792.28964    
 143630000   284.42987     -403.39975     -308.14047     -403.09458      0              1714.0648      31.216999      21.524542      33.142956      22269.8        2734.9358     -250.06984      2657.3283      538.74949      156.34694      442.92752    
 143632000   271.20398     -402.87468     -312.04493     -402.61384      0              4715.4382      31.216999      21.524542      33.11977       22254.22       6093.9247      4855.3976      3196.9925     -38.972248     -1153.6501     -223.48775    
 143634000   276.42012     -403.10861     -310.53191     -402.7878       0              3490.3839      31.216999      21.524542      33.275327      22358.744      3017.5869      4276.5482      3177.0167     -293.73887     -79.405635     -1104.9013    
 143636000   264.39327     -402.34128     -313.79253     -402.08141      0              1781.4653      31.216999      21.524542      33.500394      22509.973      1520.9589      1549.4656      2273.9714      398.57342     -443.52258     -53.051305    
 143638000   269.69133     -405.56493     -315.24178     -405.28666      0              3380.5331      31.216999      21.524542      33.414864      22452.503      5563.506       949.73666      3628.3568     -1764.1511     -1438.379       784.9788     
 143640000   281.87363     -403.72432     -309.32116     -403.39704      0              4655.6032      31.216999      21.524542      33.48204       22497.641      3391.3938      5765.1438      4810.2721      68.534002      318.94074     -559.62221    
 143642000   275.03322     -405.19905     -313.08684     -404.91289      0              1703.4311      31.216999      21.524542      33.642213      22605.266      523.42153      2233.5887      2353.2831      64.345756      52.274812     -196.5384     
 143644000   278.78912     -404.48416     -311.11405     -404.16343      0              1677.7366      31.216999      21.524542      33.695501      22641.072      1625.44        2925.9211      481.84871     -703.50306     -740.45434     -197.1889     
 143646000   274.636       -403.92085     -311.94167     -403.59283      0              1910.7389      31.216999      21.524542      33.616683      22588.112      2785.3504      2008.847       938.01927      1238.6704     -242.47865      1059.5213    
 143648000   277.51668     -401.53557     -308.59162     -401.19125      0              3106.1763      31.216999      21.524542      33.584625      22566.571      3096.1866      1510.5725      4711.7698     -2365.8396     -4.2872384      1395.4932    
 143650000   265.37158     -402.5587      -313.6823      -402.17635      0              2301.0799      31.216999      21.524542      33.409115      22448.64       3933.4216      2104.6242      865.19392     -13.240543     -788.38113      825.03972    
 143652000   278.13258     -403.02068     -309.87046     -402.77692      0              1257.3952      31.216999      21.524542      33.637233      22601.92       605.4066       1982.9413      1183.8376      2320.8111     -40.375516      1408.9828    
 143654000   264.79189     -402.29263     -313.61038     -401.98609      0              3753.8716      31.216999      21.524542      33.281571      22362.94       2520.1006      5018.9044      3722.6099      1116.8722      51.916386      1002.1998    
 143656000   274.3964      -403.55335     -311.65442     -403.2059       0              4520.2855      31.216999      21.524542      33.257767      22346.945      3776.1916      4982.1601      4802.5048      1086.8671     -418.64557      755.89148    
 143658000   279.20504     -403.1526      -309.64319     -402.88672      0             -123.01317      31.216999      21.524542      33.581079      22564.188     -954.17353     -209.92971      795.06372      121.92038      1316.14       -421.2196     
 143660000   279.71115     -405.28218     -311.60327     -404.93399      0              2024.0356      31.216999      21.524542      33.378143      22427.829      2878.3471      2513.0028      680.757        215.34458     -1418.495       328.99697    
 143662000   274.94535     -405.0949      -313.01212     -404.77529      0              3895.859       31.216999      21.524542      33.272422      22356.792      3244.1582      5892.4786      2550.9402     -1094.4987     -120.95269      217.32787    
 143664000   269.64402     -406.68091     -316.37361     -406.3507       0              2044.1468      31.216999      21.524542      33.250052      22341.761      1730.7514      1362.0683      3039.6207      101.31704     -301.97208      763.91596    
 143666000   276.39975     -404.37612     -311.80625     -404.02182      0              2863.453       31.216999      21.524542      33.232343      22329.862      1471.4694      4411.7145      2707.1752     -191.12245      781.75868     -1637.7792    
 143668000   274.11651     -404.4409      -312.63571     -404.14427      0              3146.2114      31.216999      21.524542      33.081649      22228.605      1895.6935      4022.8106      3520.1302      882.76101      1042.1812      851.90263    
 143670000   274.0543      -404.20277     -312.41841     -403.90802      0              3845.0692      31.216999      21.524542      33.346435      22406.524      4250.0837      4290.0214      2995.1026     -1163.6892      422.43897     -1468.8376    
 143672000   275.86305     -404.95265     -312.56252     -404.63509      0              4464.3733      31.216999      21.524542      33.361932      22416.937      4499.3506      4610.5033      4283.2659     -140.9559      -225.07649     -646.2537     
 143674000   278.49221     -401.81561     -308.54494     -401.45412      0              3955.4792      31.216999      21.524542      33.369149      22421.786      3734.1007      3637.8761      4494.4608      329.15162      829.87387     -1684.7105    
 143676000   280.63716     -400.96646     -306.97742     -400.67193      0              3764.22        31.216999      21.524542      33.36265       22417.419      2282.4285      3304.8809      5705.3506     -291.88323      518.87282     -222.10724    
 143678000   274.78878     -408.46337     -316.43303     -408.07262      0              6162.3592      31.216999      21.524542      33.32354       22391.14       4270.4218      7402.2132      6814.4427     -252.9785       956.79375     -35.508319    
 143680000   268.92474     -403.8173      -313.7509      -403.54573      0              2541.8812      31.216999      21.524542      33.485949      22500.268      1930.7085      2718.3482      2976.587       158.22079     -415.80952     -1095.4549    
 143682000   275.26925     -403.71617     -311.52492     -403.33032      0              3332.1918      31.216999      21.524542      33.271113      22355.912      2542.8274      3320.9512      4132.7967      447.44133     -883.97568      227.08052    
 143684000   274.84767     -400.34002     -308.28995     -399.99506      0              3255.4268      31.216999      21.524542      33.585049      22566.856      3608.3714      3473.67        2684.2388     -1355.4104     -2000.4414      1566.2438    
 143686000   271.55824     -402.43864     -311.49025     -402.09848      0              4027.0384      31.216999      21.524542      33.593465      22572.511      4012.9518      4525.2818      3542.8815      1784.1608      209.62731     -73.065905    
 143688000   277.27118     -403.25048     -310.38875     -402.87765      0              3343.1376      31.216999      21.524542      33.603161      22579.026      1553.3176      4484.5619      3991.5332      254.09284     -820.2314       837.72109    
 143690000   271.29905     -401.14133     -310.27974     -400.85681      0              1929.5973      31.216999      21.524542      33.70861       22649.881      2022.1978      2485.3102      1281.2838      608.55764     -53.630115      479.61345    
 143692000   269.34178     -405.11268     -314.90661     -404.75997      0              975.25777      31.216999      21.524542      33.639143      22603.203      331.80751      1061.3599      1532.6059      1033.2866      936.32973      2160.6607    
 143694000   274.01196     -404.99157     -313.2214      -404.68781      0              2527.7478      31.216999      21.524542      33.46759       22487.931      2680.3175      3742.996       1159.93        1153.9366     -659.02867      584.47531    
 143696000   280.6974      -407.32557     -313.31635     -406.96911      0              996.16405      31.216999      21.524542      33.301664      22376.44      -3.7656401     -315.87503      3308.1328      1251.8221      641.34953     -391.30013    
 143698000   275.06209     -404.48958     -312.3677      -404.09936      0              3950.1388      31.216999      21.524542      33.169601      22287.703      4752.0806      2430.2238      4668.1122      1440.6693      139.92773      625.36448    
 143700000   268.23186     -403.60433     -313.76999     -403.27772      0              3475.6033      31.216999      21.524542      33.285782      22365.769      5770.6721      1613.4792      3042.6588      619.59621     -182.91446     -2434.0484    
 143702000   271.89723     -404.06977     -313.00784     -403.74338      0              4827.2364      31.216999      21.524542      33.300981      22375.981      4599.5493      7204.11        2678.05        79.237607      308.46554     -733.13672    
 143704000   275.03923     -401.00501     -308.89079     -400.65428      0              4289.7339      31.216999      21.524542      33.267189      22353.276      3742.1206      5231.7713      3895.31       -720.48385     -1095.832       498.50844    
 143706000   272.48323     -407.58729     -316.32911     -407.24116      0              2901.5289      31.216999      21.524542      33.418348      22454.845      3251.9203      1285.2816      4167.3847     -171.54851      109.67366      751.42489    
 143708000   274.27616     -403.00293     -311.14427     -402.72986      0              2983.3869      31.216999      21.524542      33.453209      22478.268      1931.7728      3986.8893      3031.4987      718.93376      1486.8143     -996.58546    
 143710000   272.64651     -405.21988     -313.90701     -404.91217      0              1236.9722      31.216999      21.524542      33.146464      22272.157      1009.2595      577.38317      2124.2738      321.80127      410.90126      346.09766    
 143712000   282.44022     -404.27639     -309.68348     -404.04929      0              4572.9019      31.216999      21.524542      33.294125      22371.375      3826.9118      5174.2228      4717.5712     -1729.244       927.69599      831.58454    
 143714000   261.5005      -402.25502     -314.67509     -401.97093      0              2100.6933      31.216999      21.524542      33.367414      22420.62       2747.0431      876.71055      2678.3263      263.30254     -747.08682      458.35876    
 143716000   269.74752     -406.21465     -315.87269     -405.88435      0              2197.3878      31.216999      21.524542      33.236557      22332.693      2341.2401      433.51172      3817.4115      1680.611      -131.73165     -134.81625    
 143718000   272.90384     -403.69268     -312.29362     -403.45259      0              4195.1642      31.216999      21.524542      33.297113      22373.383      3119.858       5813.9778      3651.6569      1721.6249      1304.5108     -242.29854    
 143720000   280.51434     -400.73004     -306.78213     -400.46308      0              4484.9197      31.216999      21.524542      33.159592      22280.978      3451.966       5162.009       4840.7842     -890.55815      1088.646       1176.5323    
 143722000   272.41404     -404.08211     -312.8471      -403.89182      0              4754.0584      31.216999      21.524542      33.296979      22373.293      5138.0511      3624.8531      5499.2711     -1486.3431      115.75586      1273.3234    
 143724000   272.68225     -403.5968      -312.27196     -403.36428      0              3796.6279      31.216999      21.524542      33.333863      22398.076      3658.2682      3666.2016      4065.4141     -991.37647      1241.5645     -239.39282    
 143726000   283.45159     -404.03675     -309.10512     -403.81815      0              3116.6309      31.216999      21.524542      33.417407      22454.212      2025.128       3387.9411      3936.8238     -709.02333      1179.8681      476.41771    
 143728000   279.16951     -402.32913     -308.83162     -402.02764      0              3856.0257      31.216999      21.524542      33.14519       22271.301      4317.7654      2744.2562      4506.0556      344.09567     -1088.0235     -530.63725    
 143730000   274.79067     -402.47892     -310.44794     -402.27103      0              5265.2071      31.216999      21.524542      33.320273      22388.944      5363.4883      5577.0952      4855.0379      250.56337      374.46713     -831.64443    
 143732000   282.42106     -399.43317     -304.84668     -399.25038      0              772.77114      31.216999      21.524542      33.355167      22412.391      1045.9916      1842.4819     -570.16006     -1355.5343     -1092.455      -1624.0737    
 143734000   281.89191     -402.20569     -307.79641     -401.96871      0              4383.4742      31.216999      21.524542      33.385565      22432.816      3334.911       5270.9812      4544.5304      795.24108      1306.0213     -748.76439    
 143736000   280.5219      -402.64735     -308.69691     -402.43086      0              3458.8713      31.216999      21.524542      33.337647      22400.618      3149.0937      3309.2815      3918.2388      899.91944     -821.06011      1429.8447    
 143738000   266.69469     -399.12017     -309.80064     -398.87024      0              2131.6451      31.216999      21.524542      33.519058      22522.514      2729.218       357.19453      3308.5229      125.3843       694.52638     -1352.5429    
 143740000   272.86848     -400.72757     -309.34036     -400.5444       0              2494.7753      31.216999      21.524542      33.529         22529.195      2125.8435      2177.532       3180.9504     -1976.3678     -526.83809      829.73913    
 143742000   271.2815      -401.67912     -310.8234      -401.46413      0              3279.3738      31.216999      21.524542      33.407761      22447.731      3669.0356      2292.4188      3876.6672     -1468.4936     -548.73338      160.16909    
 143744000   274.30723     -404.08406     -312.215       -403.82193      0              4237.9003      31.216999      21.524542      33.330526      22395.834      3914.5702      3877.2241      4921.9066     -88.85043       600.36051     -303.06235    
 143746000   269.49469     -405.22746     -314.97018     -404.91595      0              941.41969      31.216999      21.524542      33.316192      22386.203      1253.7394     -103.9135       1674.4331      283.16763      609.94252      1246.5496    
 143748000   275.7127      -407.02235     -314.68257     -406.72614      0              2145.7279      31.216999      21.524542      33.37843       22428.022      2088.063       4509.6706     -160.5498      -448.4594      -236.40252     -840.46039    
 143750000   280.44532     -402.75095     -308.82616     -402.37618      0              5616.6089      31.216999      21.524542      33.248759      22340.892      5975.9606      6863.3707      4010.4956     -717.14317     -443.00726     -415.90666    
 143752000   280.38458     -407.3889      -313.48444     -407.05211      0              1486.9556      31.216999      21.524542      33.407206      22447.358      3104.5537     -138.21359      1494.5268     -410.83235     -1112.137       109.67348    
 143754000   274.90824     -404.0328      -311.96245     -403.76813      0              3428.1177      31.216999      21.524542      33.300195      22375.454      4110.3025      2260.3932      3913.6573      474.23024      901.18268      952.72751    
 143756000   278.96983     -401.23704     -307.80641     -401.02435      0              2171.8208      31.216999      21.524542      33.332102      22396.893      2687.5472      2828.5472      999.36803      655.59188      839.07534      190.92517    
 143758000   275.78649     -406.28954     -313.92505     -405.98819      0              3426.6949      31.216999      21.524542      33.203089      22310.205      4182.8118      1707.1986      4390.0743     -398.68826     -555.08132      1886.2057    
 143760000   270.30274     -401.27297     -310.74506     -401.11467      0              5040.6597      31.216999      21.524542      33.351332      22409.814      4905.2835      5326.9258      4889.7699     -343.97462      443.35463     -1618.4219    
 143762000   272.15241     -405.1929      -314.04551     -404.91234      0              3074.9717      31.216999      21.524542      33.197164      22306.224      3695.6458      2930.0989      2599.1704      1144.362       401.49085     -1049.1586    
 143764000   272.94291     -400.87892     -309.46679     -400.6848       0              2023.5257      31.216999      21.524542      33.298466      22374.292      2191.5984      2942.9732      936.00552      866.28485      1261.7214      307.57446    
 143766000   282.4774      -402.98056     -308.37519     -402.81204      0              3416.907       31.216999      21.524542      33.237234      22333.148      4661.8438      2617.7016      2971.1756      113.64421     -77.186594     -679.39692    
 143768000   273.4789      -405.20714     -313.61549     -404.92444      0              4051.4077      31.216999      21.524542      33.194996      22304.767      3478.1478      4488.6052      4187.4702     -277.0293       825.78271     -1077.8297    
 143770000   275.7716      -405.1247      -312.7652      -404.89417      0              3667.7842      31.216999      21.524542      33.298886      22374.574      3041.2584      4222.98        3739.1142      577.90869     -883.28995      700.07266    
 143772000   271.0415      -405.39528     -314.61994     -405.14079      0              2301.7055      31.216999      21.524542      33.210752      22315.354      2201.3772      1170.7622      3532.9772     -1003.3115      217.56634      673.10392    
 143774000   278.17038     -402.36899     -309.20611     -402.15297      0              3152.4977      31.216999      21.524542      33.335004      22398.843      2980.6743      4606.9002      1869.9186     -472.53548      1028.631       634.27633    
 143776000   270.08282     -403.69224     -313.23798     -403.44674      0              3361.062       31.216999      21.524542      33.285737      22365.738      1878.916       4545.5621      3658.708      -452.23401     -641.75779     -1049.9972    
 143778000   270.25438     -401.54183     -311.03011     -401.36413      0              5135.5367      31.216999      21.524542      33.368093      22421.076      4495.3624      5496.4606      5414.7871      75.887015      189.79659      635.74374    
 143780000   269.11341     -403.73085     -313.60126     -403.53775      0              3133.902       31.216999      21.524542      33.214292      22317.733      4596.1414      3242.3852      1563.1796      1745.6865     -2687.3238     -118.44895    
 143782000   281.66251     -403.59677     -309.26433     -403.36598      0              3377.9121      31.216999      21.524542      33.314401      22384.999      4232.2525      3442.7977      2458.6861     -221.886       -128.60743      583.82448    
 143784000   275.79134     -404.19249     -311.82637     -404.0179       0              5471.2202      31.216999      21.524542      33.263278      22350.648      4073.5122      6481.1666      5858.9818      981.25331      499.09662      177.89004    
 143786000   276.31634     -403.40814     -310.8662      -403.20031      0              4289.7356      31.216999      21.524542      33.336753      22400.018      3781.6047      5562.692       3524.9101     -852.54669      1594.1502     -1052.5551    
 143788000   278.04079     -404.51021     -311.39073     -404.27099      0              3645.5351      31.216999      21.524542      33.294182      22371.413      5517.7961      713.1941       4705.615      -640.23222     -504.78041     -1683.0728    
 143790000   273.08839     -405.21079     -313.74993     -404.94463      0              4499.7994      31.216999      21.524542      33.349604      22408.653      4275.1275      5171.5993      4052.6713     -1651.9301      2076.2942     -1299.5299    
 143792000   274.37133     -403.02871     -311.13818     -402.82125      0              2725.6277      31.216999      21.524542      33.399065      22441.887      744.70414      3179.0157      4253.1633     -405.45756     -139.65913      523.03663    
 143794000   270.80065     -401.80187     -311.1072      -401.65491      0              2963.9481      31.216999      21.524542      33.400005      22442.519      2751.2862      3587.119       2553.4392     -1234.091      -310.72267     -1185.7859    
 143796000   278.18858     -403.0474      -309.87842     -402.91103      0              1384.5268      31.216999      21.524542      33.57668       22561.232      770.29989      917.09273      2466.1877      733.59956     -540.06579      1012.5923    
 143798000   272.71574     -407.22816     -315.8921      -407.02314      0              2051.7369      31.216999      21.524542      33.364384      22418.584      1139.0855      1053.1306      3962.9948     -333.07829      1614.2667     -623.03255    
 143800000   268.79581     -402.42872     -312.4055      -402.21959      0              3586.7646      31.216999      21.524542      33.213379      22317.119      733.47313      3624.7164      6402.1043      1833.0882     -161.46232      734.68761    
 143802000   285.89418     -402.79437     -307.04468     -402.57135      0              3932.2937      31.216999      21.524542      33.357197      22413.755      2885.0842      5023.0356      3888.7614      1037.3103      27.790228     -1478.8635    
 143804000   280.87786     -400.69418     -306.62452     -400.47563      0              2014.6409      31.216999      21.524542      33.248491      22340.712      1517.4877      3472.9187      1053.5162     -1157.9228     -1231.7894      912.89035    
 143806000   278.31249     -401.18531     -307.97482     -400.95117      0              5512.6333      31.216999      21.524542      33.214792      22318.069      5141.0382      5400.2408      5996.6209      222.65745      143.52942     -1252.1192    
 143808000   272.70709     -404.10974     -312.77658     -403.92194      0              1421.112       31.216999      21.524542      33.219983      22321.557      2310.3007      1979.0352     -25.999892      615.97038      1149.2142     -537.43943    
 143810000   280.40078     -401.60134     -307.69146     -401.38542      0              3679.625       31.216999      21.524542      33.356905      22413.559      3482.6221      2846.3703      4709.8827     -446.30155     -1096.0845      995.723      
 143812000   274.30756     -400.24601     -308.37683     -400.09687      0              3388.6951      31.216999      21.524542      33.208276      22313.69       1436.9052      2725.8981      6003.282      -286.61096     -211.29236     -2345.9167    
 143814000   275.33103     -399.92596     -307.71401     -399.70573      0              2545.2478      31.216999      21.524542      33.37231       22423.91       3318.4518      2702.1864      1615.1051      578.2808      -809.9034      -273.94374    
 143816000   270.80137     -400.0175      -309.32259     -399.85363      0              3914.1015      31.216999      21.524542      33.347672      22407.355      3509.2901      4474.7539      3758.2606      1991.7458     -2372.3012      350.59615    
 143818000   274.321       -402.22412     -310.35044     -401.9899       0              2709.1927      31.216999      21.524542      33.417809      22454.482      1955.4411      1490.4464      4681.6905      326.77447     -1527.8283      681.80614    
 143820000   278.80133     -404.18797     -310.81377     -403.93393      0              2268.4605      31.216999      21.524542      33.542061      22537.971      2027.5186      1804.2473      2973.6155      231.80328     -179.32335     -1021.0583    
 143822000   274.49654     -401.24985     -309.31739     -401.00294      0              3338.2413      31.216999      21.524542      33.537712      22535.049      2872.3148      3585.7592      3556.6499      1519.7866      655.26728      471.92091    
 143824000   273.63458     -405.32759     -313.68381     -405.11432      0              3020.2058      31.216999      21.524542      33.342995      22404.212      3450.1384      3545.2823      2065.1968     -564.33018     -830.93294      189.60563    
 143826000   276.17708     -401.60243     -309.10713     -401.46217      0              4811.4746      31.216999      21.524542      33.478893      22495.526      4998.3612      5429.7524      4006.3104      350.92114      1312.8811     -1503.5046    
 143828000   281.98145     -403.16627     -308.72701     -402.96271      0              2786.0881      31.216999      21.524542      33.576981      22561.435      2495.7611      5658.0764      204.42685     -174.144        861.57646      730.62742    
 143830000   279.44443     -403.75701     -310.16743     -403.52683      0              3202.1244      31.216999      21.524542      33.57585       22560.675      2033.0832      3256.6087      4316.6813      701.43067      1148.4923      1014.2283    
 143832000   275.05488     -404.52005     -312.40058     -404.27072      0              3096.2364      31.216999      21.524542      33.585378      22567.077      2225.7792      4554.6058      2508.3241     -588.90902     -1687.1571     -143.54377    
[...]
 150942000   271.95352     -402.63477     -311.554       -402.49722      0              3540.2815      31.216999      21.524542      33.441477      22470.386      4798.626       2254.1986      3568.0197     -1207.7235     -223.13236      318.20842    
 150944000   266.28041     -402.46767     -313.28689     -402.29258      0              2336.2147      31.216999      21.524542      33.398649      22441.608      2264.6346      1981.4603      2762.5492     -585.37293     -1055.0487      1964.6038    
 150946000   274.21911     -403.2359      -311.39635     -402.95047      0              2224.9641      31.216999      21.524542      33.477693      22494.72       3546.766       2022.034       1106.0922      53.74777       16.371966     -495.95076    
 150948000   283.12901     -404.59644     -309.77285     -404.27949      0              2953.1616      31.216999      21.524542      33.336556      22399.886      3223.295       3891.0674      1745.1224      734.83444      896.01309      459.77366    
 150950000   274.17016     -402.06363     -310.24047     -401.74978      0              3522.3216      31.216999      21.524542      33.437997      22468.047      4522.447       4296.9491      1747.5686     -211.61408     -76.299859      999.14094    
 150952000   275.39319     -404.03807     -311.8053      -403.74957      0              2033.412       31.216999      21.524542      33.615664      22587.427      1883.5198      2563.9805      1652.7357      103.89947     -1154.9582     -1311.827     
 150954000   273.02958     -403.67808     -312.23692     -403.39062      0              250.00573      31.216999      21.524542      33.452196      22477.588      1497.1761     -378.31347     -368.84542      743.13095     -30.624524     -793.33166    
 150956000   275.70417     -403.58626     -311.24934     -403.33159      0              4145.0714      31.216999      21.524542      33.386464      22433.42       3851.9191      2790.9406      5792.3545     -511.91148     -73.506168     -353.57311    
 150958000   278.60844     -403.13586     -309.82626     -402.81872      0              3931.8961      31.216999      21.524542      33.388468      22434.767      3245.5799      3897.7996      4652.3088     -1467.58        849.64243     -1574.6139    
 150960000   275.73999     -401.66759     -309.31867     -401.35001      0              1849.1258      31.216999      21.524542      33.35612       22413.031      1458.1714      1567.4337      2521.7724      435.629       -363.13362      913.81902    
 150962000   281.78764     -401.30466     -306.9303      -400.98862      0              3720.996       31.216999      21.524542      33.353036      22410.959      3665.9845      2731.7854      4765.218      -161.26656     -545.9193       119.07343    
 150964000   269.08156     -402.67594     -312.55702     -402.41901      0              1235.6223      31.216999      21.524542      33.569618      22556.487      2264.6227      444.03219      998.21212      326.31963     -804.57184     -522.99278    
 150966000   270.14518     -403.82376     -313.34862     -403.45767      0              1372.2872      31.216999      21.524542      33.473444      22491.865      2598.5282      1483.6098      34.723564     -193.04081     -467.83912      244.99919    
 150968000   283.11188     -403.76389     -308.94604     -403.42796      0              3373.9643      31.216999      21.524542      33.474872      22492.824      3480.9118      3974.2956      2666.6855     -1346.7109     -66.492881      2099.0601    
 150970000   275.54132     -400.1316      -307.84922     -399.80241      0              2377.7754      31.216999      21.524542      33.457943      22481.449      2380.8987      895.62097      3856.8065      828.66357     -29.43593       678.35386    
 150972000   276.12751     -403.98969     -311.51099     -403.71765      0              2453.4732      31.216999      21.524542      33.281234      22362.713      1869.884       2780.1876      2710.348      -602.4792       410.70886      1022.1971    
 150974000   270.92372     -405.12217     -314.38629     -404.81648      0              2110.9144      31.216999      21.524542      33.294493      22371.622      1136.164       3196.4032      2000.1759      392.38946     -215.08101      280.26123    
 150976000   267.82116     -399.42096     -309.72416     -399.23719      0              2514.0199      31.216999      21.524542      33.526054      22527.215      2114.4914      2286.9723      3140.596      -1549.9336     -749.79668      322.83491    
 150978000   278.26158     -404.64684     -311.4534      -404.44357      0              4559.1053      31.216999      21.524542      33.636273      22601.275      5009.1026      5609.528       3058.6853      955.90167      9.6078713      687.90615    
 150980000   284.02634     -404.34619     -309.22206     -404.10127      0              1775.7372      31.216999      21.524542      33.490811      22503.534      3402.6445      283.79439      1640.7728      309.26486     -1085.2865      273.43787    
 150982000   273.29348     -401.57847     -310.04892     -401.34486      0              4240.4588      31.216999      21.524542      33.411711      22450.385      4762.4939      3256.6202      4702.2623      1040.9389      1669.3847      1209.1777    
 150984000   272.0629      -403.54012     -312.42271     -403.21522      0              2105.1815      31.216999      21.524542      33.333576      22397.883      2328.3595      1826.0341      2161.1509      443.54654      956.93779      1325.9865    
 150986000   271.29364     -404.23925     -313.37947     -403.9295       0              3305.1731      31.216999      21.524542      33.448789      22475.299      4696.5013      2780.8383      2438.1797     -1301.9259     -1111.5381     -510.40954    
 150988000   276.38967     -402.45419     -309.88769     -402.16714      0              6441.9242      31.216999      21.524542      33.52564       22526.937      6619.0719      7733.5483      4973.1524      1594.9175      434.52545      787.71737    
 150990000   274.49641     -402.83383     -310.9014      -402.62697      0              890.32044      31.216999      21.524542      33.680875      22631.245      1504.9893      502.32485      663.64716     -360.48462      963.56294     -1186.0879    
 150992000   276.08501     -401.82961     -309.36514     -401.64138      0              4299.9257      31.216999      21.524542      33.641756      22604.959      4799.0604      4709.1306      3391.5862     -1356.5941      678.774        305.05442    
 150994000   274.19241     -403.07675     -311.24614     -402.8055       0              3353.8164      31.216999      21.524542      33.622745      22592.185      3759.206       4547.4819      1754.7612     -955.92699      658.65047     -1283.1608    
 150996000   272.96215     -402.70155     -311.28297     -402.47022      0              2858.0997      31.216999      21.524542      33.501767      22510.896      2772.4496      4910.1752      891.67438     -1210.4985      227.62348     -2331.1067    
 150998000   280.77674     -402.87989     -308.8441      -402.59818      0              2105.9572      31.216999      21.524542      33.687434      22635.652      2693.8343      1589.9912      2034.0463     -315.9049      -424.87676      9.2725228    
 151000000   281.72675     -402.05206     -307.6981      -401.77458      0              2148.4168      31.216999      21.524542      33.534299      22532.755      1930.115       4020.4063      494.72914      1503.8014      1114.7593      1429.0203    
 151002000   274.90302     -400.63795     -308.56935     -400.39866      0              3062.2668      31.216999      21.524542      33.338318      22401.07       5670.273       1340.4598      2176.0676      1181.4981      557.45972      265.78782    
 151004000   273.7085      -402.02434     -310.35579     -401.78917      0              3256.4472      31.216999      21.524542      33.458431      22481.777      3237.5487      2916.6753      3615.1175      994.36607      1315.9437      1799.0122    
 151006000   274.37746     -404.98392     -313.09133     -404.67615      0              5920.7599      31.216999      21.524542      33.287811      22367.132      7569.6788      5410.8041      4781.7967      19.713932     -990.17823      810.81928    
 151008000   277.8663      -403.77892     -310.71788     -403.49632      0              4819.1285      31.216999      21.524542      33.320199      22388.895      3889.1951      6159.5103      4408.6801      662.55266      600.11014      1169.6001    
 151010000   273.65362     -403.52602     -311.87586     -403.2381       0              2129.6982      31.216999      21.524542      33.39957       22442.227      3354.8457      1339.081       1695.168      -99.372487      490.5819      -1686.2089    
 151012000   280.35317     -404.49816     -310.60423     -404.15133      0              1588.0062      31.216999      21.524542      33.403374      22444.783      1491.2738      3209.754       62.990871      1041.1312      9.7692146     -848.97162    
 151014000   276.8636      -401.65799     -308.93276     -401.36081      0              5183.7947      31.216999      21.524542      33.247803      22340.25       6515.4266      2975.9264      6060.0311      457.38013      418.95627      1091.4915    
 151016000   274.57018     -402.9389      -310.98176     -402.66199      0              1829.768       31.216999      21.524542      33.142759      22269.667      2032.191       1080.7939      2376.3193     -659.50498      439.63991     -112.00498    
 151018000   279.23562     -403.26179     -309.74214     -403.09576      0              3819.9743      31.216999      21.524542      33.412556      22450.952      3559.7848      1853.2284      6046.9096      1596.4573     -657.28949     -1260.5179    
 151020000   272.52264     -401.14505     -309.87367     -401.02486      0              4478.8301      31.216999      21.524542      33.440602      22469.798      5323.9893      3637.0342      4475.4667     -491.46232     -537.29258     -392.53617    
 151022000   278.80753     -403.91658     -310.5403      -403.69644      0              2419.3811      31.216999      21.524542      33.188284      22300.257      3987.6694      2087.8022      1182.6717     -1335.0366     -620.30183     -2238.4023    
 151024000   268.93352     -402.78403     -312.71469     -402.51527      0              3854.1705      31.216999      21.524542      33.178428      22293.635      4692.7832      3102.3264      3767.4018      291.64103     -2201.0742      923.21015    
 151026000   273.16128     -404.2773      -312.79203     -403.98786      0              2404.5423      31.216999      21.524542      33.198613      22307.197      2354.3623      2513.0845      2346.18        908.47804      1484.9345      466.65168    
 151028000   275.08233     -405.52328     -313.39462     -405.27988      0              3759.4745      31.216999      21.524542      33.36628       22419.858      3158.362       3306.5114      4813.5502     -85.009286     -234.59872     -575.7335     
 151030000   270.6703      -404.23357     -313.58256     -403.92616      0              3108.1978      31.216999      21.524542      33.118446      22253.331      2940.7454      2288.0432      4095.8048     -433.94007     -1190.7962     -837.35427    
 151032000   274.68779     -405.17812     -313.18159     -404.89287      0              6140.5438      31.216999      21.524542      33.303604      22377.744      6665.2758      7173.7737      4582.5817      397.62873     -316.83852      375.70569    
 151034000   275.5716      -401.79805     -309.50553     -401.52419      0              3607.5981      31.216999      21.524542      33.248928      22341.006      4154.5832      3550.3109      3117.9002     -363.02402     -26.276251     -717.62863    
 151036000   275.46206     -405.57248     -313.31664     -405.25394      0              3366.3417      31.216999      21.524542      33.084977      22230.842      4112.0579      2555.5637      3431.4036      92.705834     -373.02234     -1379.5403    
 151038000   270.3045      -405.53643     -315.00793     -405.3556       0              2389.1654      31.216999      21.524542      33.271082      22355.891      5431.1528      742.13481      994.20858     -615.15251     -1888.5226      61.979913    
 151040000   276.90439     -401.04421     -308.30532     -400.80474      0              2918.0135      31.216999      21.524542      33.303292      22377.535      2757.0703      1514.3966      4482.5736     -405.39129      497.24617      460.28509    
 151042000   273.12875     -402.20248     -310.7281      -401.95096      0              1320.6204      31.216999      21.524542      33.57553       22560.46       4110.0461     -77.38983      -70.795186     -1063.3763     -1395.8491      952.74902    
 151044000   278.51252     -400.65256     -307.37509     -400.46415      0              2575.344       31.216999      21.524542      33.461958      22484.147      2452.739       1605.0428      3668.2501     -151.91976     -288.61803     -190.26569    
 151046000   264.36216     -402.10706     -313.56872     -401.8804       0              3751.6357      31.216999      21.524542      33.427348      22460.892      3566.4317      2939.6318      4748.8437      536.86851      2888.9222     -1317.7629    
 151048000   281.33461     -404.97883     -310.75621     -404.76134      0              1644.748       31.216999      21.524542      33.619146      22589.767      3.9765835      3096.9215      1833.346       77.882567     -702.62269     -1157.0163    
 151050000   280.24496     -403.39954     -309.54185     -403.20757      0              4032.4764      31.216999      21.524542      33.416334      22453.491      3749.0062      4512.6219      3835.8012     -913.0215      -928.78755     -148.8004     
 151052000   281.92653     -404.22799     -309.80712     -404.01072      0              3381.1767      31.216999      21.524542      33.764535      22687.458      3931.2921      4324.9283      1887.3096      320.87043     -420.09548     -750.84115    
 151054000   278.45339     -401.6617      -308.40403     -401.43298      0              2071.6827      31.216999      21.524542      33.474278      22492.425      1853.3639      2182.2913      2179.3929      310.56289      631.68111      1201.1122    
 151056000   282.58237     -403.24949     -308.60897     -403.02585      0              2532.9862      31.216999      21.524542      33.367282      22420.532      47.023259      3340.5922      4211.343       945.34181     -467.38166      268.58621    
 151058000   273.23378     -398.60126     -307.09171     -398.39594      0              4218.1548      31.216999      21.524542      33.24656       22339.415      5755.593       3725.432       3173.4395     -1189.9714      11.915738      2318.166     
 151060000   272.96651     -399.54186     -308.12182     -399.34988      0              3080.4396      31.216999      21.524542      33.462465      22484.488      4191.5728      2230.7158      2819.0302     -988.63713     -1930.2417      634.5709     
 151062000   270.28776     -404.18489     -313.66199     -403.92094      0              3710.5683      31.216999      21.524542      33.18522       22298.198      3629.4272      3567.0104      3935.2674     -430.06968     -73.097928     -100.69809    
 151064000   272.33836     -406.26098     -315.05131     -406.03738      0              2205.8702      31.216999      21.524542      33.357424      22413.908      2432.8978      3027.9516      1156.7612     -1770.9988     -136.30471     -1509.2542    
 151066000   277.66785     -404.8679      -311.87332     -404.63543      0              2430.8272      31.216999      21.524542      33.466619      22487.279      2158.137       2803.7144      2330.6302      1059.8489      479.59066     -1534.7055    
 151068000   273.60709     -404.69429     -313.05971     -404.42909      0              3516.2775      31.216999      21.524542      33.36989       22422.283      3191.0446      3490.0668      3867.721      -1420.684       482.38294     -480.40852    
 151070000   279.93626     -404.23709     -310.48279     -403.99091      0              4647.2176      31.216999      21.524542      33.621427      22591.3        4316.1639      5326.6309      4298.8582      2150.7534     -1.9759933     -829.29346    
 151072000   277.59126     -403.32611     -310.35718     -403.13302      0             -34.004732      31.216999      21.524542      33.667621      22622.339      494.67961     -552.96986     -43.723946      575.32612      434.34814      253.63407    
 151074000   275.47519     -403.4791      -311.21887     -403.32574      0              3840.7804      31.216999      21.524542      33.569783      22556.598      3731.4212      3533.0086      4257.9114     -264.25415     -1649.3875      712.07941    
 151076000   285.24715     -402.79361     -307.26063     -402.58629      0              3884.4174      31.216999      21.524542      33.514769      22519.632      4514.8565      2864.3463      4274.0495     -882.96386     -696.08151     -1308.6031    
 151078000   273.5381      -400.87487     -309.2634      -400.71934      0              1451.3054      31.216999      21.524542      33.727449      22662.539      2073.7182      1244.6218      1035.5762     -69.711507     -902.57528      2561.8318    
 151080000   265.63842     -402.06563     -313.09986     -401.8662       0              3912.3442      31.216999      21.524542      33.501021      22510.395      4230.2751      4500.5187      3006.2389     -1193.2219      76.740034     -1427.3291    
 151082000   259.01989     -403.93103     -317.18189     -403.73023      0              2243.6275      31.216999      21.524542      33.440154      22469.496      5298.9286      649.65102      782.30293     -727.53315     -321.57769      2246.3546    
 151084000   275.25616     -404.42918     -312.24231     -404.1819       0              2516.4388      31.216999      21.524542      33.388988      22435.116      1884.8985      2733.2358      2931.1821      107.72416      94.321895     -113.1439     
WARNING: Wall time limit reached (../timer.cpp:193)
Loop time of 85802.9 on 4 procs for 7819000 steps with 2592 atoms

Performance: 3.937 ns/day, 6.096 hours/ns, 91.127 timesteps/s
1480.6% CPU use with 4 MPI tasks x no OpenMP threads

MPI task timing breakdown:
Section |  min time  |  avg time  |  max time  |%varavg| %total
---------------------------------------------------------------
Pair    | 21814      | 22058      | 22219      | 105.6 | 25.71
Bond    | 0.75361    | 0.78053    | 0.81143    |   2.6 |  0.00
Neigh   | 655.77     | 668.43     | 680.57     |  38.6 |  0.78
Comm    | 2639.8     | 2801.9     | 3054.7     | 306.5 |  3.27
Output  | 4186.7     | 4186.7     | 4186.8     |   0.1 |  4.88
Modify  | 56060      | 56066      | 56070      |   1.8 | 65.34
Other   |            | 21.33      |            |       |  0.02

Nlocal:            648 ave         666 max         637 min
Histogram: 2 0 0 0 0 1 0 0 0 1
Nghost:        4157.75 ave        4179 max        4125 min
Histogram: 1 0 0 0 0 0 1 1 0 1
Neighs:              0 ave           0 max           0 min
Histogram: 4 0 0 0 0 0 0 0 0 0
FullNghs:       160181 ave      167363 max      155639 min
Histogram: 2 0 0 0 1 0 0 0 0 1

Total # of neighbors = 640724
Ave neighs/atom = 247.1929
Ave special neighs/atom = 0
Neighbor list builds = 156380
Dangerous builds not checked
unfix 3
unfix 1
unfix 2


# Finalize simulation
write_restart	restart.lmp.${pid}
write_restart	restart.lmp.0
System init for write_restart ...
Generated 0 of 1 mixed pair_coeff terms from geometric mixing rule
write_data	data.final.${pid} nocoeff
write_data	data.final.0 nocoeff
System init for write_data ...
Generated 0 of 1 mixed pair_coeff terms from geometric mixing rule
Total wall time: 23:50:19
