LAMMPS (23 Jun 2022)
include procedure.lmp
echo both
include		in.partitions
variable        pid world 0
include		in.temp
variable	temperature equal 275
variable        tempDamp equal 0.100 # this is 0.1 ps
include		in.pressure
variable        pressure equal 3039.75
variable        pressureDamp equal 1.0 #this is 1ps

variable	barostat string	   tri
variable	direction string   z
variable	direction_x_bool equal 0
variable	direction_y_bool equal 0
variable	direction_z_bool equal 1

include		in.seed
variable        seed world 745823

units           metal
atom_style	full
box tilt large
read_restart 	restart.lmp.${pid}
read_restart 	restart.lmp.0
Reading restart file ...
  restart file = 23 Jun 2022, LAMMPS = 23 Jun 2022
  restoring atom style full from restart
  triclinic box = (0 0 -0.77909053) to (31.216999 21.524542 32.57481) with tilt (-9.212092 0.77410664 -11.234359)
WARNING: Triclinic box skew is large (../domain.cpp:224)
  2 by 1 by 2 MPI processor grid
Summary of lammps deepmd module ...
  >>> Info of deepmd-kit:
  installed to:       /u/sigbjobo/software/DEEPMD_FROM_SOURCE/deepmd-kit/install
  source:             v2.1.3
  source branch:       master
  source commit:      5a32c49
  source commit at:   2022-07-01 09:52:58 +0800
  surpport model ver.:1.1 
  build float prec:   double
  build with tf inc:  /u/sigbjobo/software/DEEPMD_FROM_SOURCE/tensorflow/install/include;/u/sigbjobo/software/DEEPMD_FROM_SOURCE/tensorflow/install/include
  build with tf lib:  /u/sigbjobo/software/DEEPMD_FROM_SOURCE/tensorflow/install/lib/libtensorflow_cc.so;/u/sigbjobo/software/DEEPMD_FROM_SOURCE/tensorflow/install/lib/libtensorflow_framework.so
  set tf intra_op_parallelism_threads: 0
  set tf inter_op_parallelism_threads: 0
  >>> Info of lammps module:
  use deepmd-kit at:  /u/sigbjobo/software/DEEPMD_FROM_SOURCE/deepmd-kit/install
  source:             v2.1.3
  source branch:      master
  source commit:      5a32c49
  source commit at:   2022-07-01 09:52:58 +0800
  build float prec:   double
  build with tf inc:  /u/sigbjobo/software/DEEPMD_FROM_SOURCE/tensorflow/install/include;/u/sigbjobo/software/DEEPMD_FROM_SOURCE/tensorflow/install/include
  build with tf lib:  /u/sigbjobo/software/DEEPMD_FROM_SOURCE/tensorflow/install/lib/libtensorflow_cc.so;/u/sigbjobo/software/DEEPMD_FROM_SOURCE/tensorflow/install/lib/libtensorflow_framework.so
  restoring pair style deepmd from restart
  2592 atoms
Finding 1-2 1-3 1-4 neighbors ...
  special bond factors lj:    0        0        0       
  special bond factors coul:  0        0        0       
     0 = max # of 1-2 neighbors
     0 = max # of 1-3 neighbors
     0 = max # of 1-4 neighbors
     1 = max # of special neighbors
  special bonds CPU = 0.000 seconds
  read_restart CPU = 0.035 seconds
include 	in.setup
variable	out_freq equal 2000
variable	out_freq2 equal 2000

timestep        0.0005

neigh_modify    delay 7 every 1

include         in.deepmd
# This is deepMD model

# create groups ###
#group ox type 2
#group hy type 1

mass 2 15.999
mass 1 1.008

pair_style      deepmd ../graph.pb
pair_coeff      * *

bond_style      none
angle_style     none
dihedral_style  none
improper_style  none
neigh_modify exclude none


neighbor        2.0 bin
neigh_modify    every 50 delay 0 check no

thermo          ${out_freq}
thermo          2000
thermo_style 	custom step temp pe etotal epair emol press lx ly lz vol pxx pyy pzz pxy pxz pyz

restart 	${out_freq} restart.lmp.${pid} restart2.lmp.${pid}
restart 	2000 restart.lmp.${pid} restart2.lmp.${pid}
restart 	2000 restart.lmp.0 restart2.lmp.${pid}
restart 	2000 restart.lmp.0 restart2.lmp.0


timer           timeout 23:50:00 every 1000
New timer settings: style=normal  mode=nosync  timeout=23:50:00


# Set number of time steps
variable 	nsteps_wall		equal	 6000000
variable 	nsteps_enhanced_coex    equal	300000000

variable     nsteps_enhanced_coex_upto equal (${nsteps_wall}+${nsteps_enhanced_coex})
variable     nsteps_enhanced_coex_upto equal (6000000+${nsteps_enhanced_coex})
variable     nsteps_enhanced_coex_upto equal (6000000+300000000)


# Set temperature for first step
if "$(step) < 1  " then    "velocity 	all create ${temperature} ${seed} dist gaussian"


# Always run thermo and barostat


######################################
# Run simulation with wall potential #
######################################
if " $(step) < ${nsteps_wall} " then    "fix             3 all plumed plumedfile plumed.equil.dat outfile plumed.equil.out"   "fix             1 all nph ${direction} ${pressure} ${pressure} ${pressureDamp}"   "fix             2 all temp/csvr ${temperature} ${temperature} ${tempDamp} ${seed}"   "run             ${nsteps_wall} upto"
if " $(step) == ${nsteps_wall} " then    "unfix 3"   "unfix 1"   "unfix 2"


############################
# Run enhanced coesistence #
############################
if "$(step) == ${nsteps_wall}" then    "fix             3 all plumed plumedfile plumed.start.dat outfile plumed.out" else    "fix             3 all plumed plumedfile plumed.dat outfile plumed.out"
fix             3 all plumed plumedfile plumed.dat outfile plumed.out

if "$(step) < ${nsteps_enhanced_coex_upto} && $(step) >= ${nsteps_wall} " then    "include         in.dump"    "fix             1 all nph ${direction} ${pressure} ${pressure} ${pressureDamp}"   "fix             2 all temp/csvr ${temperature} ${temperature} ${tempDamp} ${seed}"   "run             ${nsteps_enhanced_coex_upto} upto"    "unfix 3"   "unfix 1"   "unfix 2"
include         in.dump
dump            myDump all atom ${out_freq2} dump.water.${pid}
dump            myDump all atom 2000 dump.water.${pid}
dump            myDump all atom 2000 dump.water.0
dump            myDump2 all dcd ${out_freq2} dump.${pid}.dcd
dump            myDump2 all dcd 2000 dump.${pid}.dcd
dump            myDump2 all dcd 2000 dump.0.dcd
dump_modify     myDump append yes
dump_modify     myDump2 append yes

fix             1 all nph ${direction} ${pressure} ${pressure} ${pressureDamp}
fix             1 all nph z ${pressure} ${pressure} ${pressureDamp}
fix             1 all nph z 3039.75 ${pressure} ${pressureDamp}
fix             1 all nph z 3039.75 3039.75 ${pressureDamp}
fix             1 all nph z 3039.75 3039.75 1
fix             2 all temp/csvr ${temperature} ${temperature} ${tempDamp} ${seed}
fix             2 all temp/csvr 275 ${temperature} ${tempDamp} ${seed}
fix             2 all temp/csvr 275 275 ${tempDamp} ${seed}
fix             2 all temp/csvr 275 275 0.1 ${seed}
fix             2 all temp/csvr 275 275 0.1 745823
run             ${nsteps_enhanced_coex_upto} upto
run             306000000 upto

CITE-CITE-CITE-CITE-CITE-CITE-CITE-CITE-CITE-CITE-CITE-CITE-CITE

Your simulation uses code contributions which should be cited:

- USER-DEEPMD package:

@article{Wang_ComputPhysCommun_2018_v228_p178,
  author = {Wang, Han and Zhang, Linfeng and Han, Jiequn and E, Weinan},
  doi = {10.1016/j.cpc.2018.03.016},
  url = {https://doi.org/10.1016/j.cpc.2018.03.016},
  year = 2018,
  month = {jul},
  publisher = {Elsevier {BV}},
  volume = 228,
  journal = {Comput. Phys. Commun.},
  title = {{DeePMD-kit: A deep learning package for many-body potential energy representation and molecular dynamics}},
  pages = {178--184}
}

CITE-CITE-CITE-CITE-CITE-CITE-CITE-CITE-CITE-CITE-CITE-CITE-CITE

Generated 0 of 1 mixed pair_coeff terms from geometric mixing rule
Neighbor list info ...
  update every 50 steps, delay 0 steps, check no
  max neighbors/atom: 2000, page size: 100000
  master list distance cutoff = 8
  ghost atom cutoff = 8
  binsize = 4, bins = 11 9 9
  1 neighbor lists, perpetual/occasional/extra = 1 0 0
  (1) pair deepmd, perpetual
      attributes: full, newton on
      pair build: full/bin
      stencil: full/bin/3d
      bin: standard
Per MPI rank memory allocation (min/avg/max) = 7.304 | 7.305 | 7.305 Mbytes
   Step          Temp          PotEng         TotEng         E_pair         E_mol          Press            Lx             Ly             Lz           Volume          Pxx            Pyy            Pzz            Pxy            Pxz            Pyz      
 213328000   277.9257      -404.02203     -310.9411      -404.02203      0              2276.8088      31.216999      21.524542      33.3539        22411.54       1681.5524      2778.0218      2370.8523     -882.70999      1384.4549     -99.24221     
 213330000   275.24114     -400.89231     -308.71047     -400.69676      0              4527.8146      31.216999      21.524542      33.388218      22434.599      5291.552       4431.9561      3859.9356     -234.18897      1692.5595     -672.60951    
 213332000   273.1543      -404.03728     -312.55434     -403.79918      0              4977.0145      31.216999      21.524542      33.385993      22433.104      4240.631       4302.9009      6387.5115     -1532.9267     -637.73632     -667.38661    
 213334000   274.38391     -402.17557     -310.28082     -401.91651      0              4419.8197      31.216999      21.524542      33.346386      22406.49       4116.9483      4796.5112      4345.9994     -1458.7732     -919.42367     -1016.0085    
 213336000   274.53397     -403.43603     -311.49102     -403.21529      0              3740.0018      31.216999      21.524542      33.602881      22578.838      2620.2603      3527.837       5071.908       1082.2698      1504.2105      45.036502    
 213338000   276.12853     -398.85249     -306.37344     -398.73171      0              2236.4903      31.216999      21.524542      33.533902      22532.489      2126.0658      2328.4624      2254.9427      841.29967     -5.1564717      929.04783    
 213340000   278.37674     -400.68502     -307.45302     -400.52434      0              2802.8525      31.216999      21.524542      33.321859      22390.01       2183.4462      3055.9931      3169.1181     -590.04277     -478.83328      112.67167    
 213342000   272.59051     -403.33534     -312.04122     -403.10503      0              1462.751       31.216999      21.524542      33.464741      22486.017      1801.9349      2350.0941      236.22389     -854.40067      958.2668      -609.40795    
 213344000   280.75798     -403.89684     -309.86734     -403.75911      0              3351.2515      31.216999      21.524542      33.382087      22430.479      3188.7352      3318.1765      3546.8427     -381.52393     -973.81716      109.926      
 213346000   266.37914     -401.85542     -312.64157     -401.60214      0              294.0096       31.216999      21.524542      33.426332      22460.209     -701.93339      588.56514      995.39704     -993.43175     -2201.1374      497.02146    
 213348000   272.94689     -403.87839     -312.46492     -403.6428       0              3369.5031      31.216999      21.524542      33.451931      22477.41       3012.2294      3464.8411      3631.439      -616.11538     -607.71686      422.75349    
 213350000   272.69774     -402.62739     -311.29736     -402.40741      0              2238.1883      31.216999      21.524542      33.379054      22428.441      3167.6352      3708.8725     -161.94276      388.07553      646.56282     -830.4406     
 213352000   280.9199      -402.70532     -308.62158     -402.57221      0              3058.0744      31.216999      21.524542      33.517223      22521.282      4009.7515      3093.9637      2070.508       207.11629     -2130.4402      72.674384    
 213354000   284.50618     -400.54609     -305.26126     -400.45274      0              4178.3982      31.216999      21.524542      33.445778      22473.275      5775.1137      2210.9808      4549.1003     -44.379367     -275.88451     -499.29213    
 213356000   268.35655     -400.55774     -310.68163     -400.41978      0              1893.103       31.216999      21.524542      33.503491      22512.055      853.04897      1763.1108      3063.1493     -966.31149      1688.1118      826.97145    
 213358000   285.53744     -399.28518     -303.65497     -399.16838      0              4063.7152      31.216999      21.524542      33.466475      22487.182      4127.2598      5036.142       3027.7437     -1644.2811     -338.42322      641.68652    
 213360000   272.23424     -402.02581     -310.85101     -401.80777      0              2895.9056      31.216999      21.524542      33.304657      22378.452      3721.7811      3578.186       1387.7497     -1517.4327     -502.19628     -253.61707    
 213362000   267.00175     -402.70887     -313.28651     -402.46221      0              1255.9673      31.216999      21.524542      33.500229      22509.863      2787.98        1012.6466     -32.724613     -1044.6656      2046.9586     -72.390308    
 213364000   267.00512     -400.84056     -311.41706     -400.58446      0              3169.6033      31.216999      21.524542      33.322426      22390.391      5018.8743      2983.0661      1506.8694      5.9421302     -666.99108      591.32464    
 213366000   280.74288     -401.41904     -307.39459     -401.19884      0              2693.1548      31.216999      21.524542      33.382463      22430.732      2695.4096      1988.4572      3395.5975      225.64074     -603.06835      564.50934    
 213368000   270.98565     -403.27683     -312.5202      -403.04136      0              3006.3318      31.216999      21.524542      33.669389      22623.526      3918.3411      3410.3561      1690.2981     -174.33792      637.85274     -1116.1566    
 213370000   275.76589     -404.46505     -312.10746     -404.18542      0              4997.3111      31.216999      21.524542      33.484448      22499.259      5201.7102      3939.7213      5850.5019      788.28756      707.07849      1400.6198    
 213372000   269.03854     -403.79154     -313.68702     -403.47654      0              2471.9185      31.216999      21.524542      33.514286      22519.308      1832.0044      2654.0785      2929.6727     -227.58867     -1067.1733     -2211.0449    
 213374000   274.85494     -403.29818     -311.24568     -402.9528       0              3253.7553      31.216999      21.524542      33.339867      22402.11       2045.7687      3876.9762      3838.5209      934.97524      782.58197      2292.3588    
 213376000   276.61064     -405.57402     -312.93351     -405.26113      0              1878.3904      31.216999      21.524542      33.329017      22394.82       959.75067      925.32891      3750.0915     -1084.4435      409.37245     -1216.1849    
 213378000   280.51734     -402.87086     -308.92194     -402.58025      0              2624.1823      31.216999      21.524542      33.393703      22438.285      2690.4405      2092.0298      3090.0766     -320.09065      1907.4878      1206.2965    
 213380000   271.29743     -404.03721     -313.17616     -403.7908       0              825.72467      31.216999      21.524542      33.411907      22450.517      417.46368      42.317895      2017.3924      850.6584      -941.90411      2418.1628    
 213382000   280.50846     -402.36857     -308.42263     -402.09221      0              4503.2404      31.216999      21.524542      33.194195      22304.229      4299.3014      4881.5979      4328.8219     -93.294037     -439.28373     -248.19704    
 213384000   274.61518     -400.88298     -308.91078     -400.70074      0              1680.7196      31.216999      21.524542      33.43763       22467.801      2090.1414      917.34128      2034.6763      664.56045      67.417416      1087.4895    
 213386000   274.03074     -403.70567     -311.9292      -403.4152       0              2654.4122      31.216999      21.524542      33.24843       22340.671      163.60283      4447.3795      3352.2542      197.0511      -1191.6344      241.24063    
 213388000   277.94481     -404.52293     -311.43559     -404.20482      0              1672.8355      31.216999      21.524542      33.262536      22350.149      1634.8227      1061.4579      2322.2258     -482.57582     -658.47247     -815.65625    
 213390000   282.34272     -404.59656     -310.03631     -404.30017      0              4909.521       31.216999      21.524542      33.48919       22502.446      4556.8378      4712.083       5459.6424      184.09517     -199.01413     -27.349312    
 213392000   274.44948     -400.39533     -308.47862     -400.13668      0              3032.6115      31.216999      21.524542      33.427902      22461.264      844.35955      4584.7835      3668.6916     -576.70824      320.47289     -1542.7497    
 213394000   283.02163     -401.7106      -306.92297     -401.44225      0              1998.2684      31.216999      21.524542      33.530575      22530.253      590.30309      3478.6555      1925.8465      800.70952     -987.97031      177.86069    
 213396000   272.84078     -406.5107      -315.13276     -406.20656      0              742.26885      31.216999      21.524542      33.471377      22490.476      492.12528     -686.41039      2421.0917      359.63524      32.266987     -1310.0479    
 213398000   274.35852     -405.32876     -313.44252     -405.06785      0              4302.6813      31.216999      21.524542      33.399291      22442.039      3603.0825      5300.8319      4004.1294     -983.23793      650.89879     -1305.6863    
 213400000   281.0235      -400.49966     -306.38122     -400.23305      0              2423.8473      31.216999      21.524542      33.628602      22596.12       1210.3218      2662.758       3398.462      -962.60358     -876.01886      138.82672    
 213402000   271.79278     -402.99362     -311.96668     -402.72729      0              2563.6434      31.216999      21.524542      33.656559      22614.905      3076.1682      2721.2607      1893.5014     -558.05969     -97.229556      1397.4507    
 213404000   269.96276     -401.96934     -311.5553      -401.71311      0              517.99213      31.216999      21.524542      33.569856      22556.647      268.69778      1253.7084      31.570181     -368.8186       296.36209     -1592.7052    
 213406000   279.94249     -402.15339     -308.397       -401.93423      0              3152.2328      31.216999      21.524542      33.661691      22618.354      5197.9752      2343.8827      1914.8405     -243.45341     -890.86124      2219.2768    
 213408000   278.17968     -404.04541     -310.87941     -403.78998      0             -859.17475      31.216999      21.524542      33.462417      22484.455      4.7506035     -937.6207      -1644.6542     -63.530602     -268.70956      203.56093    
 213410000   270.76444     -405.88978     -315.20724     -405.53121      0              3560.2518      31.216999      21.524542      33.424381      22458.898      4239.2407      4111.6218      2329.8929     -418.3243      -1282.264      -1428.3015    
 213412000   276.30765     -402.68944     -310.1504      -402.43749      0              3354.9793      31.216999      21.524542      33.56281       22551.913      1258.1326      5144.207       3662.5982      910.60189      873.11564     -1551.0396    
 213414000   274.96405     -405.48027     -313.39122     -405.16147      0              2689.8273      31.216999      21.524542      33.476356      22493.822      2886.0706      4695.9321      487.47921      394.14207     -433.36178     -2643.9358    
 213416000   282.27327     -406.63243     -312.09543     -406.34892      0              2392.0244      31.216999      21.524542      33.533478      22532.204      1554.6611      3032.0927      2589.3193     -242.62663     -549.27295     -1596.2957    
 213418000   272.38554     -408.34247     -317.117       -408.07195      0              3853.8163      31.216999      21.524542      33.537421      22534.853      3535.4639      4678.9389      3347.046       972.22033     -1076.8306      83.829789    
 213420000   279.33186     -404.46578     -310.9139      -404.14277      0              3747.2191      31.216999      21.524542      33.462392      22484.439      3051.4425      3611.4899      4578.725      -214.20494      69.120472      768.18188    
 213422000   272.23088     -404.65264     -313.47897     -404.40909      0              1125.0182      31.216999      21.524542      33.511538      22517.461      380.62965      742.06328      2252.3616     -602.48979      898.72016      1445.8211    
 213424000   268.95366     -404.61053     -314.53445     -404.3152       0              4030.8478      31.216999      21.524542      33.395151      22439.257      4980.0363      3381.2043      3731.3027     -251.88418      709.63183     -388.72003    
 213426000   275.13113     -406.27346     -314.12845     -406.01442      0              1964.3514      31.216999      21.524542      33.254867      22344.996      3464.6413      1449.9904      978.42249      1156.1372      1013.1326      104.98263    
 213428000   274.32127     -402.58672     -310.71295     -402.3465       0              3344.6924      31.216999      21.524542      33.472455      22491.2        5115.8705      4934.0727     -15.866164     -699.43221     -154.33389     -1121.36      
 213430000   275.63359     -405.11889     -312.8056      -404.78146      0              2842.8655      31.216999      21.524542      33.142437      22269.451      4087.7651      2210.2488      2230.5824      983.33658     -1136.7267     -26.853295    
 213432000   275.18548     -404.86619     -312.70298     -404.52548      0              3956.4651      31.216999      21.524542      33.229482      22327.939      3603.7221      4403.5009      3862.1724      548.02962      299.87833     -1133.0934    
 213434000   281.1995      -405.90981     -311.73243     -405.59786      0              2612.5352      31.216999      21.524542      33.460752      22483.337      2156.4611      2024.6115      3656.5331      718.42506     -1945.5412     -523.54658    
 213436000   274.1752      -402.82035     -310.9955      -402.47388      0              3336.8393      31.216999      21.524542      33.296365      22372.88       4431.1547      2789.8161      2789.5471     -919.77891      919.94531      437.2888     
 213438000   277.33727     -404.45833     -311.57446     -404.1703       0              2519.7377      31.216999      21.524542      33.28556       22365.62       3042.1865      2325.8756      2191.1509     -779.44757      322.76568      330.90687    
 213440000   270.79208     -404.8737      -314.1819      -404.56761      0              1384.5435      31.216999      21.524542      33.401801      22443.726      714.00745      649.58918      2790.0338      161.09995     -463.16465     -1415.4385    
 213442000   277.46974     -406.02002     -313.09179     -405.65917      0              3786.9344      31.216999      21.524542      33.329739      22395.305      4010.7565      3831.7213      3518.3252     -1212.7772      1248.4115     -1096.6094    
 213444000   264.48953     -404.8692      -316.28821     -404.55308      0              3420.6104      31.216999      21.524542      33.460483      22483.156      2886.5736      5644.1237      1731.134       1155.1404     -1550.006      -952.70446    
 213446000   274.44276     -407.79212     -315.87766     -407.47514      0              2821.962       31.216999      21.524542      33.290535      22368.963      2311.759       4403.8069      1750.3202      558.90556      441.03487      565.73986    
 213448000   278.35716     -407.17588     -313.95044     -406.91198      0              3405.3367      31.216999      21.524542      33.753176      22679.826      3302.8609      2969.9208      3943.2283     -92.875753      314.66018      1269.5446    
 213450000   272.06298     -404.97606     -313.85862     -404.6825       0              3226.6985      31.216999      21.524542      33.600303      22577.105      2164.3095      3999.0614      3516.7245      1185.705       97.864982     -56.529979    
 213452000   276.38181     -405.46832     -312.90445     -405.10101      0              2864.5945      31.216999      21.524542      33.503288      22511.918      2012.5256      4243.9883      2337.2697      548.81423      5.1111877      1370.632     
 213454000   279.107       -408.03277     -314.5562      -407.64286      0              2761.2388      31.216999      21.524542      33.256262      22345.933      4516.2452      2240.3371      1527.134       72.363553     -1063.0357      218.14183    
 213456000   273.2805      -406.37757     -314.85237     -406.04428      0              5002.7194      31.216999      21.524542      33.172183      22289.438      4972.7251      4020.3262      6015.1069     -1141.7502      878.59086      327.19627    
 213458000   275.52438     -408.32022     -316.04351     -407.93618      0              3623.5945      31.216999      21.524542      33.385381      22432.693      2416.886       4716.1926      3737.705       853.51188      1072.4702     -344.30315    
 213460000   278.89172     -409.893       -316.48853     -409.50774      0              3908.1264      31.216999      21.524542      33.375642      22426.149      1881.1232      2747.977       7095.2791     -747.7687      -386.8596      -203.0035     
 213462000   272.8819      -406.22556     -314.83386     -405.89436      0              3382.9169      31.216999      21.524542      33.187476      22299.714      3312.3945      3785.7585      3050.5978      1164.5424     -1380.1498     -2208.8594    
 213464000   270.04808     -405.70305     -315.26042     -405.34342      0              4626.1419      31.216999      21.524542      33.245804      22338.906      5620.1893      3373.402       4884.8344     -584.67313     -1049.4778      1358.665     
 213466000   272.22746     -403.99112     -312.8186      -403.60469      0              4134.593       31.216999      21.524542      33.298169      22374.092      4470.504       4721.3476      3211.9274     -94.489646      1419.313       265.38245    
 213468000   277.39648     -404.36158     -311.45788     -404.06157      0              2270.7142      31.216999      21.524542      33.249405      22341.326      524.85412      2602.981       3684.3074     -1003.8986      1072.0021      1047.0776    
 213470000   277.72691     -406.75976     -313.7454      -406.36975      0              2302.0059      31.216999      21.524542      33.341391      22403.134      589.15815      3105.6181      3211.2415      465.42005     -224.42236      611.96933    
 213472000   280.80141     -406.99341     -312.94936     -406.67494      0              2943.0031      31.216999      21.524542      33.34027       22402.381      3208.5171      2977.0682      2643.4239      588.40189     -447.91079     -938.53325    
 213474000   276.65869     -406.53567     -313.87907     -406.16355      0              4065.3508      31.216999      21.524542      33.065604      22217.824      4044.5236      3958.7372      4192.7916     -1929.2064      1680.7252      470.05889    
 213476000   276.61597     -406.54778     -313.90549     -406.22532      0              2664.4222      31.216999      21.524542      33.145657      22271.615      2976.4324      3211.3161      1805.5182      1119.069       783.01394     -1309.9931    
 213478000   273.98708     -406.71997     -314.95813     -406.35615      0              3814.108       31.216999      21.524542      33.445713      22473.232      2830.2365      5821.5817      2790.5058     -55.465995     -28.045491     -206.0355     
 213480000   269.49247     -404.19409     -313.93755     -403.86507      0              1763.6033      31.216999      21.524542      33.231808      22329.502      2335.2334      4233.8314     -1278.2549      779.75342     -1617.4626     -1329.2445    
 213482000   276.62449     -404.60956     -311.96441     -404.28596      0              4093.666       31.216999      21.524542      33.42216       22457.406      4071.4637      5403.3225      2806.2118     -153.01345     -112.96154      5.1233368    
 213484000   267.94998     -407.05979     -317.31985     -406.66801      0              3689.307       31.216999      21.524542      33.390075      22435.847      4902.7814      4908.1175      1257.0222     -601.25257      18.849751      178.70955    
 213486000   272.80585     -407.06086     -315.69463     -406.6698       0              5028.5093      31.216999      21.524542      33.277485      22360.194      4848.216       3098.9936      7138.3183      526.07638     -424.94623      674.69897    
 213488000   273.95712     -404.26261     -312.5108      -403.98462      0              1846.8439      31.216999      21.524542      33.444509      22472.423      1592.0989      837.09939      3111.3336     -881.40959      1248.1287      1191.4724    
 213490000   270.75879     -402.45785     -311.7772      -402.21101      0              2418.2311      31.216999      21.524542      33.475781      22493.435      1599.425       3515.2099      2140.0586     -170.61714     -1201.5326     -1045.6561    
 213492000   273.4558      -403.46487     -311.88095     -403.25443      0              1283.1479      31.216999      21.524542      33.620746      22590.842      290.46421      2366.0779      1192.9017     -333.81173      1270.1757      1516.4792    
 213494000   279.14757     -404.66054     -311.17038     -404.43404      0              3568.1747      31.216999      21.524542      33.734338      22667.168      3566.0757      4017.2651      3121.1833      1626.858       1071.8591      210.38991    
 213496000   271.01849     -403.80525     -313.03763     -403.55671      0              2968.6497      31.216999      21.524542      33.502489      22511.381      2393.2173      3867.6493      2645.0826      59.827745      1848.083      -194.30284    
 213498000   277.99745     -404.74344     -311.63848     -404.50613      0              5191.5157      31.216999      21.524542      33.584861      22566.729      5084.7902      6077.9991      4411.7579     -275.22096      1154.3548     -464.90448    
 213500000   278.28565     -406.17        -312.96851     -405.89978      0              2894.1253      31.216999      21.524542      33.619299      22589.87       3147.2109      4214.2019      1320.9629      82.103803      382.99676     -659.41444    
 213502000   271.50003     -405.22957     -314.30067     -404.95991      0              4089.7862      31.216999      21.524542      33.395904      22439.764      2218.7038      4740.6884      5309.9663     -118.1506       1065.6359     -1352.146     
 213504000   266.97464     -405.20787     -315.79458     -404.96619      0              3652.8149      31.216999      21.524542      33.459202      22482.296      6024.4472      2939.7552      1994.2424      142.59272     -164.3149      -383.48776    
 213506000   276.96586     -403.71497     -310.95549     -403.43768      0              4328.8393      31.216999      21.524542      33.371769      22423.546      2736.5787      7185.4527      3064.4866      1896.4063      540.21512     -918.48381    
 213508000   272.55185     -404.41406     -313.13289     -404.16601      0              2879.4742      31.216999      21.524542      33.273539      22357.542      3048.0714      2879.7623      2710.5889     -1669.9653      1557.4805     -2498.7001    
 213510000   273.29482     -403.65481     -312.12481     -403.37636      0              2112.6492      31.216999      21.524542      33.29022       22368.751      1607.4397      2917.117       1813.391       632.37614      166.91351      133.39589    
 213512000   273.1168      -401.45827     -309.98789     -401.18108      0              2124.7701      31.216999      21.524542      33.462624      22484.595      599.94301      1083.5148      4690.8524      2277.5195      1101.4728      376.57193    
 213514000   273.37405     -399.89085     -308.33432     -399.64127      0              4799.6996      31.216999      21.524542      33.545252      22540.115      4004.0212      5638.6773      4756.4004      949.16929     -391.87144     -1035.1951    
 213516000   273.36374     -401.1578      -309.60472     -400.93232      0              3882.4312      31.216999      21.524542      33.623146      22592.455      4489.2809      2902.1402      4255.8724     -551.57338     -843.94264      997.54267    
 213518000   281.75019     -400.39573     -306.03392     -400.10705      0              4036.6369      31.216999      21.524542      33.49091       22503.601      2294.6663      5632.4391      4182.8052     -663.06293     -1673.1827      497.50369    
 213520000   273.09034     -399.79989     -308.33838     -399.61493      0              2585.0513      31.216999      21.524542      33.419865      22455.863      4100.9249      1990.4537      1663.7751      569.09148     -45.93555      -1156.8957    
 213522000   272.62434     -402.18188     -310.87643     -402.04567      0              4326.8489      31.216999      21.524542      33.327897      22394.067      4417.9695      5177.8864      3384.6908     -1185.3002     -2573.4069      252.44153    
 213524000   280.92985     -402.51678     -308.42971     -402.27456      0              2397.2988      31.216999      21.524542      33.575314      22560.315      2497.8928      1945.098       2748.9056     -1070.4486      1767.8444      552.03045    
 213526000   276.61873     -402.92801     -310.28479     -402.72547      0              3784.5173      31.216999      21.524542      33.427505      22460.997      1370.8167      5272.4465      4710.2886      981.42264      541.14761      1995.4615    
 213528000   269.86948     -400.21245     -309.82964     -399.97802      0              1713.0361      31.216999      21.524542      33.424713      22459.121     -289.39265      2680.1137      2748.3873     -2230.8097      1639.7864      40.788435    
 213530000   276.43708     -401.5005      -308.91812     -401.25859      0              3995.6403      31.216999      21.524542      33.411027      22449.925      5066.5061      4377.7704      2542.6445      690.87615     -992.55357      151.67854    
 213532000   272.9484      -401.85188     -310.4379      -401.61724      0              3362.848       31.216999      21.524542      33.195229      22304.924      2623.1023      3983.7932      3481.6484     -923.70263     -1114.4096      332.9158     
 213534000   270.58221     -403.5135      -312.89199     -403.21129      0              2797.0999      31.216999      21.524542      33.282769      22363.744      1060.9112      2157.5708      5172.8177     -1070.7612      1186.4898     -371.77386    
 213536000   271.53622     -402.56259     -311.62157     -402.25442      0              3310.0731      31.216999      21.524542      33.419496      22455.616      3483.3304      3531.2135      2915.6753     -1159.1403     -81.960669     -498.64014    
 213538000   278.55696     -402.47234     -309.17999     -402.19785      0              964.60491      31.216999      21.524542      33.528912      22529.136     -189.64701      2560.1114      523.35038      1277.6307      793.24968      532.69541    
 213540000   279.22752     -406.27941     -312.76247     -405.98337      0              2449.401       31.216999      21.524542      33.336387      22399.772      1895.2085      2235.3248      3217.6696      134.63965      1082.6781      400.72359    
 213542000   277.43309     -402.42514     -309.50918     -402.13361      0              1332.9937      31.216999      21.524542      33.406228      22446.7       -174.7526       1403.2201      2770.5137      1377.6865      977.08938      159.1678     
 213544000   276.39664     -406.72494     -314.15611     -406.43838      0              4256.9168      31.216999      21.524542      33.175707      22291.806      4670.3333      3436.1447      4664.2725     -737.91156      304.57963     -959.37905    
 213546000   276.81977     -404.46992     -311.75937     -404.20075      0              2417.1911      31.216999      21.524542      33.298029      22373.998      2267.8433      2362.0104      2621.7196      1159.3093      285.60937      401.90897    
 213548000   276.67467     -405.48608     -312.82413     -405.15325      0              4000.6756      31.216999      21.524542      33.355967      22412.928      2468.7029      4327.5042      5205.8197      401.84142      888.70924     -136.28753    
 213550000   266.73456     -405.21255     -315.87967     -404.92259      0              2400.233       31.216999      21.524542      33.289172      22368.047      1422.7222      4662.2642      1115.7127      675.21556      248.24312     -781.29036    
 213552000   281.13718     -404.4122      -310.2557      -404.07364      0              2638.1561      31.216999      21.524542      33.292849      22370.518      967.28184      2634.2076      4312.979       1095.4008      1861.6054      923.52826    
 213554000   268.39246     -403.56877     -313.68064     -403.32388      0              1538.2656      31.216999      21.524542      33.418972      22455.263      1232.9178      864.2432       2517.6358      929.26041     -515.26192     -149.22573    
 213556000   283.69061     -403.59772     -308.58604     -403.36374      0              3053.7499      31.216999      21.524542      33.4209        22456.559      2187.8713      3866.8544      3106.5241     -117.64024     -872.101        1278.3143    
 213558000   272.00264     -403.80931     -312.71208     -403.64651      0              2251.2791      31.216999      21.524542      33.704692      22647.248      3888.5529      2316.8642      548.42026      2040.7898      42.303713     -491.74797    
 213560000   274.07665     -404.20893     -312.41709     -404.00987      0              1839.5761      31.216999      21.524542      33.688929      22636.656      3287.043      -18.224397      2249.9098      231.00696     -1216.5889      515.88977    
 213562000   276.71359     -405.22059     -312.5456      -404.95901      0              2857.4396      31.216999      21.524542      33.635703      22600.892      4525.9387      2167.8645      1878.5155     -2017.641       2465.726       680.65777    
 213564000   266.80454     -402.84476     -313.48844     -402.60233      0              4213.3166      31.216999      21.524542      33.58917       22569.625      4660.4646      4120.9617      3858.5234     -679.62993     -104.59477     -2170.0784    
 213566000   279.60578     -404.41011     -310.76649     -404.22546      0              2284.9047      31.216999      21.524542      33.778034      22696.529      2358.1318      1979.5028      2517.0793     -927.32925      1104.9121      1362.2605    
 213568000   270.65912     -401.26328     -310.61601     -401.10015      0              1680.6491      31.216999      21.524542      33.669123      22623.348      830.39826      1642.51        2569.039       147.53607      1622.0193      1307.6976    
 213570000   279.09138     -401.95653     -308.48519     -401.7447       0              1253.0425      31.216999      21.524542      33.586862      22568.074      2854.1384     -657.89574      1562.8847     -1373.5699      359.48605      803.49893    
 213572000   272.38971     -403.50413     -312.27727     -403.27528      0              3289.7012      31.216999      21.524542      33.50473       22512.887      3761.8407      3973.1497      2134.1132      1784.2922      1450.0086     -346.23625    
 213574000   274.34252     -400.15199     -308.2711      -400.12202      0              2168.1426      31.216999      21.524542      33.738451      22669.931      1270.1978      1673.2575      3560.9726     -366.89581     -81.943765      194.73494    
 213576000   268.98706     -401.17009     -311.08281     -401.00942      0              923.97935      31.216999      21.524542      33.673879      22626.544     -271.80439      2558.9708      484.7716       1222.9241     -1426.3667      841.99459    
 213578000   275.7839      -398.34138     -305.97776     -398.16811      0              3024.0557      31.216999      21.524542      33.56619       22554.184      3016.8434      3441.7191      2613.6047      925.55972      2116.1698     -81.829551    
 213580000   268.41383     -402.58693     -312.69164     -402.43833      0              3220.0346      31.216999      21.524542      33.454656      22479.241      2162.059       3854.9885      3643.0562      2011.1078      1464.9715     -1172.9124    
 213582000   278.43534     -402.30422     -309.0526      -402.14609      0              3879.6666      31.216999      21.524542      33.633198      22599.209      3334.5909      3372.7564      4931.6526      1154.588       843.94271      1877.9071    
 213584000   283.62408     -401.56309     -306.57369     -401.41354      0              4824.2387      31.216999      21.524542      33.358395      22414.56       4284.5572      4361.4679      5826.6911     -929.0755       854.34571     -514.21005    
 213586000   271.61795     -402.97596     -312.00757     -402.77991      0              2717.8716      31.216999      21.524542      33.327316      22393.677      1371.5882      3745.7277      3036.2989     -120.78287      1826.381      -735.50705    
 213588000   267.22782     -404.48298     -314.9849      -404.22439      0              2132.8228      31.216999      21.524542      33.486388      22500.563      858.37789      2044.1639      3495.9266     -947.69576      270.49252      1482.4151    
 213590000   278.66876     -403.94076     -310.61096     -403.67053      0              2975.3714      31.216999      21.524542      33.223342      22323.813      610.62595      3732.5951      4582.8932     -753.67925      195.64236     -34.354796    
 213592000   275.21941     -402.7263      -310.55173     -402.41113      0              1854.5637      31.216999      21.524542      33.401626      22443.608      1819.409       2365.5973      1378.6848     -395.61984      781.44618      269.38792    
 213594000   271.40669     -405.98347     -315.08583     -405.66446      0              1379.9883      31.216999      21.524542      33.641327      22604.671      674.14334      1743.933       1721.8887      187.11742      871.36478      1896.5816    
 213596000   272.08907     -403.8442      -312.71802     -403.57834      0              2206.7998      31.216999      21.524542      33.511906      22517.709      2805.733       2625.4848      1189.1817      558.05379     -927.40247      102.09667    
 213598000   278.16159     -405.01359     -311.85364     -404.75647      0              1004.4115      31.216999      21.524542      33.619715      22590.149     -295.74221      2140.1883      1168.7885      449.7542      -574.09919      988.37269    
 213600000   280.82237     -402.35637     -308.3053      -402.10396      0              2630.3648      31.216999      21.524542      33.728627      22663.33       3981.7508      1025.5787      2883.7648      8.5555826     -1278.005      -152.7508     
 213602000   276.792       -400.84503     -308.14378     -400.58606      0              2862.6149      31.216999      21.524542      33.513951      22519.083      2866.613       2495.8963      3225.3353      1130.8328      515.83866      906.24252    
 213604000   275.17622     -402.57208     -310.41197     -402.23583      0              3165.4639      31.216999      21.524542      33.474923      22492.859      2515.7694      2882.935       4097.6871      643.00812     -676.74007      112.80729    
 213606000   273.89853     -402.14256     -310.41037     -401.91497      0              2700.3079      31.216999      21.524542      33.592083      22571.582      3382.6345      2829.2249      1889.0644      511.18042      84.495814     -97.440845    
 213608000   287.37487     -403.80031     -307.55472     -403.52654      0              4335.2839      31.216999      21.524542      33.615721      22587.465      4831.612       4712.0247      3462.215      -335.68104     -352.3639      -306.15803    
 213610000   277.31749     -401.94515     -309.06791     -401.68719      0              1933.1565      31.216999      21.524542      33.299071      22374.698      766.75453      3332.628       1700.0869      420.04428      26.896423     -933.0093     
 213612000   283.27306     -401.93022     -307.05837     -401.7041       0              2297.5041      31.216999      21.524542      33.545288      22540.139      2344.0846      1774.0486      2774.3792     -226.15811     -1095.1148      52.829797    
 213614000   276.22725     -406.25903     -313.74692     -406.01861      0              4447.8268      31.216999      21.524542      33.253355      22343.981      6184.18        3303.4203      3855.8802     -633.39563      1265.4533     -1153.4504    
 213616000   270.94966     -405.57872     -314.83415     -405.39602      0              2176.9522      31.216999      21.524542      33.352585      22410.656      1637.817       1787.5673      3105.4723     -110.97767     -16.398217     -1244.0706    
 213618000   274.06677     -401.89798     -310.10945     -401.6574       0              4518.3777      31.216999      21.524542      33.368462      22421.324      3696.0728      6927.4774      2931.5828      883.57998     -277.7217      -1869.2288    
 213620000   276.34344     -402.99962     -310.4486      -402.74896      0              3258.1015      31.216999      21.524542      33.531807      22531.081      3457.1433      5323.9179      993.24348      505.63532      841.15073      892.28395    
 213622000   273.59433     -402.6551      -311.02479     -402.29726      0              3705.0923      31.216999      21.524542      33.444837      22472.643      3765.3303      4014.0982      3335.8485     -193.76769     -1131.7183     -889.77928    
 213624000   278.90883     -404.35341     -310.9432      -404.06533      0              4100.029       31.216999      21.524542      33.291122      22369.357      4339.342       4693.5595      3267.1856     -59.419227      254.34256     -1161.7056    
 213626000   273.90395     -406.17068     -314.43668     -405.84634      0              1732.2016      31.216999      21.524542      33.563192      22552.169      1867.7119      1930.36        1398.533      -1275.096       2273.6206     -49.437491    
 213628000   278.17006     -403.37177     -310.20899     -403.09284      0              2712.4858      31.216999      21.524542      33.71178       22652.011      4787.2832      2493.6905      856.48376      592.78676      569.85331      94.150738    
 213630000   273.49262     -403.12487     -311.52862     -402.90516      0              3397.8769      31.216999      21.524542      33.503812      22512.27       3637.9986      2338.1135      4217.5186      1328.9385     -528.33626      721.40661    
 213632000   274.74223     -404.30642     -312.29166     -404.07763      0              3070.6323      31.216999      21.524542      33.213055      22316.902      3124.7574      2587.3463      3499.7931      1273.2472     -620.20962     -868.22016    
 213634000   275.41728     -402.9094      -310.66856     -402.6274       0              2845.5347      31.216999      21.524542      33.346495      22406.564      3161.4211      2317.3554      3057.8276     -629.77785     -265.42359     -698.4551     
 213636000   270.11693     -401.65972     -311.19404     -401.43512      0              2807.2666      31.216999      21.524542      33.403027      22444.549      3087.3731      3192.0456      2142.3812     -235.1958       81.899469     -779.87768    
 213638000   280.27444     -402.72578     -308.85822     -402.57507      0              3402.6299      31.216999      21.524542      33.407347      22447.452      4455.5967      3646.0441      2106.2489      929.78035     -646.21678      743.88191    
 213640000   281.8613      -404.32526     -309.92624     -404.18602      0              3470.58        31.216999      21.524542      33.502711      22511.531      3388.9646      5229.4275      1793.348      -687.86989     -383.92958     -1498.5623    
 213642000   281.67131     -401.78279     -307.4474      -401.61671      0              4402.1386      31.216999      21.524542      33.569968      22556.723      3079.9784      4073.8062      6052.6314     -1960.6125     -422.06519     -1173.3197    
 213644000   278.57282     -401.85331     -308.55564     -401.74181      0              4513.784       31.216999      21.524542      33.311235      22382.872      4385.0586      4715.6009      4440.6923     -342.85884     -647.02678     -160.27357    
 213646000   277.77969     -404.64265     -311.61061     -404.43984      0              2357.2931      31.216999      21.524542      33.260404      22348.717      3382.6048      3279.949       409.32546      1620.9379     -959.3248      -1049.3499    
 213648000   283.37594     -404.66582     -309.75953     -404.40182      0              4766.6844      31.216999      21.524542      33.188512      22300.41       5442.3237      5475.4398      3382.2898      693.3701      -1160.7324     -246.53206    
 213650000   274.45269     -402.91071     -310.99292     -402.76381      0              3112.6054      31.216999      21.524542      33.221183      22322.363      2741.8566      2112.0704      4483.8891     -514.55341      1983.4149      1300.3857    
 213652000   277.81937     -404.53635     -311.49102     -404.29665      0              1136.5058      31.216999      21.524542      33.15491       22277.832      1242.3034     -372.46486      2539.6789     -248.29151      1603.9027      2082.7179    
 213654000   277.37193     -404.26034     -311.36487     -404.01112      0              2935.63        31.216999      21.524542      33.399932      22442.47       3194.0893      2524.0283      3088.7724      157.88447      612.59822      118.77463    
 213656000   277.60689     -402.53237     -309.5582      -402.32599      0              1961.691       31.216999      21.524542      33.156706      22279.039      562.86813      4584.8303      737.37452     -1551.9647      1046.0166     -1521.3294    
 213658000   273.26359     -399.05126     -307.53172     -398.89556      0              4701.4752      31.216999      21.524542      33.45716       22480.923      5276.846       4246.8285      4580.7511      244.85727      1024.4696     -38.907486    
 213660000   277.59585     -400.18776     -307.21729     -400.07898      0              4136.1543      31.216999      21.524542      33.391902      22437.074      4371.3061      4926.9909      3110.1659      346.5841       596.08983     -1339.321     
 213662000   275.37307     -401.14709     -308.92106     -400.99925      0              4002.8046      31.216999      21.524542      33.596366      22574.46       3885.1039      4783.0551      3340.2549      588.9231       1297.8824      108.80048    
 213664000   276.06586     -402.50374     -310.04569     -402.31397      0              3702.544       31.216999      21.524542      33.492323      22504.55       417.66317      6145.6172      4544.3515      1340.9606      817.96515      1045.7908    
 213666000   268.41056     -403.53789     -313.64369     -403.35827      0              4267.3702      31.216999      21.524542      33.568292      22555.597      2010.6268      7151.8831      3639.6009      891.0043      -405.22214      912.77025    
 213668000   282.92882     -403.54944     -308.79289     -403.38041      0              2558.06        31.216999      21.524542      33.438887      22468.645      1482.2288      3199.9505      2992.0007     -708.04383     -1189.8801      29.777772    
 213670000   274.77576     -402.3685      -310.34252     -402.17275      0              2234.1262      31.216999      21.524542      33.396251      22439.996      1319.3071      4376.6598      1006.4117     -1117.6868     -383.77222     -365.52487    
 213672000   273.49905     -404.45837     -312.85997     -404.3473       0              4638.5542      31.216999      21.524542      33.454408      22479.074      5343.6663      5842.8578      2729.1385      874.83947     -381.12801     -744.00492    
 213674000   274.64799     -405.30855     -313.32535     -405.08358      0              735.17619      31.216999      21.524542      33.372846      22424.27       1319.4281      1766.0709     -879.97048      708.30852     -1616.2566     -1032.0825    
 213676000   270.46915     -403.97574     -313.3921      -403.79982      0              839.69732      31.216999      21.524542      33.448359      22475.009      2252.4853      355.44107     -88.834459      184.8678      -1212.6223      1010.0332    
 213678000   280.01487     -404.35755     -310.57692     -404.17944      0              3635.8983      31.216999      21.524542      33.328799      22394.673      2897.2514      2951.063       5059.3806     -2274.9419     -1358.1543      1187.5162    
 213680000   270.76347     -400.79206     -310.10984     -400.69866      0              3757.1502      31.216999      21.524542      33.319857      22388.665      2562.3589      4183.4257      4525.666      -1579.5884      1010.3263      781.16797    
 213682000   278.21753     -403.38681     -310.20813     -403.27345      0              3634.9001      31.216999      21.524542      33.484271      22499.14       3010.2611      1948.3785      5946.0607     -1340.8563      341.88363      90.670114    
 213684000   275.56679     -403.20408     -310.91317     -403.04869      0              1943.8634      31.216999      21.524542      33.412257      22450.752      1890.4226      1379.1957      2561.9719     -1679.727       18.067656      121.0132     
 213686000   276.43529     -404.38481     -311.80303     -404.32384      0              1815.0169      31.216999      21.524542      33.418013      22454.619      824.69338      2080.7356      2539.6218      1453.5553     -187.3428       466.87221    
 213688000   268.90886     -399.50835     -309.44727     -399.42053      0              4937.6547      31.216999      21.524542      33.442639      22471.166      6195.0368      4731.4278      3886.4995      391.29906     -286.20104      1305.6433    
 213690000   276.9091      -404.48927     -311.7488      -404.2731       0              3258.0847      31.216999      21.524542      33.438808      22468.592      5045.4498      2315.0031      2413.8011      1209.4972      403.2875       621.0268     
 213692000   279.09508     -401.60057     -308.12799     -401.37556      0              1795.4154      31.216999      21.524542      33.409334      22448.787      2413.4886      1376.4987      1596.2588      290.30543      108.43914     -174.83329    
 213694000   277.17975     -399.51487     -306.68376     -399.30624      0              5721.3661      31.216999      21.524542      33.305827      22379.238      6114.9283      6050.3684      4998.8015     -1097.5562     -884.00227      370.31907    
 213696000   274.45911     -401.46399     -309.54405     -401.27146      0              3397.5972      31.216999      21.524542      33.332965      22397.473      4128.1928      2238.2959      3826.3028     -2203.2206     -73.047466      20.926304    
 213698000   276.50769     -400.5948      -307.98877     -400.44314      0              4375.0938      31.216999      21.524542      33.52637       22527.428      3698.0715      3220.6699      6206.5401     -61.99576       25.574254      456.5189     
 213700000   276.49014     -401.70143     -309.10128     -401.61874      0              6154.4452      31.216999      21.524542      33.391483      22436.793      4154.5367      8022.4022      6286.3968      421.81621     -826.81062      1090.842     
 213702000   275.30837     -402.34221     -310.13785     -402.19833      0              5027.0269      31.216999      21.524542      33.235105      22331.717      5547.3836      4481.4519      5052.2454     -403.74166     -109.06102     -1333.2564    
 213704000   279.034       -401.54271     -308.09058     -401.35758      0              4627.5329      31.216999      21.524542      33.455459      22479.78       5031.6587      4618.645       4232.2952     -1626.2265      919.25278     -1615.1838    
 213706000   277.04736     -403.42319     -310.63642     -403.20391      0              2732.0614      31.216999      21.524542      33.386096      22433.173      1895.9324      3048.7381      3251.5136      1205.7989     -1286.5404     -680.50117    
 213708000   270.27228     -406.10996     -315.59225     -405.97267      0              2433.143       31.216999      21.524542      33.574491      22559.762      2619.2189      3301.0478      1379.1623      177.24761     -879.84658      855.59271    
 213710000   277.66228     -402.71226     -309.71954     -402.60588      0              4305.8967      31.216999      21.524542      33.352656      22410.704      3275.3481      4452.6555      5189.6865     -2148.662      -1172.5414     -898.45655    
 213712000   273.43151     -404.4051      -312.82932     -404.27777      0              4108.4997      31.216999      21.524542      33.342101      22403.611      2996.2914      5416.8895      3912.318       397.49046     -734.41442      789.93595    
 213714000   274.96341     -403.28527     -311.19644     -403.1791       0              3033.977       31.216999      21.524542      33.232816      22330.179      2015.0925      3188.8171      3898.0215      876.51916     -367.78425      308.81052    
 213716000   274.40301     -405.03062     -313.12947     -404.78187      0              3549.7594      31.216999      21.524542      33.346017      22406.243      3782.6557      3067.8456      3798.7768      589.23951      101.66894      1022.2383    
 213718000   270.34812     -408.21469     -317.67158     -408.02347      0              2453.4301      31.216999      21.524542      33.41291       22451.19       2557.0267      1954.4807      2848.7831     -632.57694     -349.39793      164.83355    
 213720000   278.41085     -406.74353     -313.50011     -406.59873      0              1248.3715      31.216999      21.524542      33.624031      22593.049      384.13207      1292.4688      2068.5137      610.72591      215.1762       338.7802     
 213722000   273.73987     -405.2473      -313.56825     -405.13378      0              2869.6549      31.216999      21.524542      33.60863       22582.701      1552.7659      5833.7837      1222.415      -783.12726      1825.3313      373.34159    
 213724000   271.54187     -404.23497     -313.29206     -404.06035      0              3929.0021      31.216999      21.524542      33.603544      22579.283      4858.1795      1749.8466      5178.9802     -22.346449      442.69435      172.11816    
 213726000   277.86906     -403.61488     -310.55291     -403.40817      0              3134.7755      31.216999      21.524542      33.457927      22481.439      3837.6514      1761.93        3804.7451      222.68118      172.36925      444.835      
 213728000   271.69886     -403.72367     -312.72818     -403.55695      0              2036.2137      31.216999      21.524542      33.531259      22530.713      279.04947      2811.5765      3018.0152      893.75029      869.20302      89.87909     
 213730000   273.48468     -402.39464     -310.80105     -402.21142      0              2871.4499      31.216999      21.524542      33.689601      22637.108      3081.2615      2370.6748      3162.4134     -1161.6258      524.41816      2596.9606    
 213732000   269.58345     -403.21794     -312.93093     -403.12672      0              2990.0013      31.216999      21.524542      33.707845      22649.366      4159.9901      3954.7059      855.30787      875.36834      522.71376     -346.26032    
 213734000   283.20117     -402.8188      -307.97103     -402.69391      0              1689.1316      31.216999      21.524542      33.4474        22474.365      2541.6904      1145.8925      1379.8118     -1443.7153      1625.2974     -19.918951    
 213736000   276.04269     -400.72        -308.2697      -400.5611       0              3772.0865      31.216999      21.524542      33.642345      22605.355      7099.1868      1951.4408      2265.6317      396.8394      -1653.4644      769.74028    
 213738000   269.13548     -398.95712     -308.82014     -398.86334      0              1899.3934      31.216999      21.524542      33.492977      22504.99       1406.688       3935.4587      356.03365     -881.92883     -390.61273     -421.56027    
 213740000   277.70817     -401.00441     -307.99632     -400.96076      0              3523.462       31.216999      21.524542      33.556881      22547.929      4099.1928      4468.4558      2002.7373     -792.43898     -994.99312      4.5026469    
 213742000   269.89005     -400.95949     -310.56979     -400.8537       0              2522.9547      31.216999      21.524542      33.281393      22362.82       2891.2284      2874.0983      1803.5375     -314.65003     -869.44945      766.33097    
 213744000   275.28835     -402.93732     -310.73966     -402.74877      0              1383.4257      31.216999      21.524542      33.460017      22482.843      1442.411       2797.2702     -89.404192     -451.79122      893.17239     -264.51418    
 213746000   278.11613     -404.61495     -311.47023     -404.50105      0              4204.0845      31.216999      21.524542      33.493694      22505.471      6143.027       1145.3328      5323.8938     -152.63482     -2194.2619     -407.3977     
 213748000   274.78704     -402.73166     -310.7019      -402.55534      0              2421.6174      31.216999      21.524542      33.338888      22401.453      936.18195      2427.5041      3901.1662      1264.7338     -203.27887     -1485.0152    
 213750000   277.77602     -401.58345     -308.55264     -401.47952      0              3268.8509      31.216999      21.524542      33.337937      22400.814      4564.6175      3055.6499      2186.2852      1238.102      -723.53574      246.3695     
 213752000   271.01133     -404.7529      -313.98767     -404.59721      0              3551.89        31.216999      21.524542      33.291686      22369.736      3046.8054      2205.2695      5403.595       85.517663      181.94035     -698.44911    
 213754000   271.63721     -400.96231     -309.98747     -400.82372      0              3717.5088      31.216999      21.524542      33.349531      22408.604      2995.8529      4127.8114      4028.8621      2873.0326      1983.8191      1443.4755    
 213756000   276.99425     -404.53478     -311.76579     -404.34062      0              2132.648       31.216999      21.524542      33.356333      22413.174      2635.8992      2671.928       1090.1167     -798.56175      504.40684      556.42666    
 213758000   279.13166     -405.88443     -312.3996      -405.74304      0              1847.0407      31.216999      21.524542      33.371502      22423.367      1971.8749      559.06212      3010.1852     -1001.7119     -283.91824     -323.78742    
 213760000   276.19146     -402.31073     -309.81061     -402.12609      0              3329.9619      31.216999      21.524542      33.511176      22517.219      826.52483      4116.1975      5047.1634     -959.32307      1127.9495     -398.23184    
 213762000   280.92797     -406.37188     -312.28544     -406.17716      0              2000.8597      31.216999      21.524542      33.476639      22494.012      595.84571      3294.0111      2112.7223      1050.609       355.81977      1821.8138    
 213764000   268.36086     -404.93744     -315.05989     -404.70945      0              2017.6227      31.216999      21.524542      33.297446      22373.606      3683.8645      2063.9945      305.00902     -5.8353073     -655.77886      348.302      
 213766000   274.53052     -406.14168     -314.19783     -405.929        0              3386.2693      31.216999      21.524542      33.422905      22457.906      2802.782       2267.9328      5088.093       788.19215     -159.09883      2089.0415    
 213768000   268.2197      -404.24339     -314.41311     -404.0159       0              2593.3601      31.216999      21.524542      33.31834       22387.646      2164.0853      3000.1088      2615.8862      2023.0888      1273.6666     -405.49579    
 213770000   268.6048      -402.84344     -312.88419     -402.65348      0              1733.6581      31.216999      21.524542      33.416272      22453.449      242.03568      1499.7731      3459.1655     -273.14227      892.12081      1046.5428    
 213772000   276.91904     -406.35578     -313.61198     -406.11724      0              3942.7841      31.216999      21.524542      33.393198      22437.945      3358.4261      4243.9057      4226.0206      642.06486      520.54068     -46.360896    
 213774000   274.23721     -403.53346     -311.68784     -403.36518      0              3628.4988      31.216999      21.524542      33.573546      22559.126      3039.4739      4586.5574      3259.4651      803.63494     -127.21331     -701.91852    
 213776000   270.07916     -402.85227     -312.39924     -402.68782      0              848.99813      31.216999      21.524542      33.50269       22511.516      608.73451      740.98188      1197.278       820.72052      6.8145842     -358.22712    
 213778000   277.04346     -403.83278     -311.04732     -403.74873      0              3399.2791      31.216999      21.524542      33.472764      22491.408      2352.5029      4308.0404      3537.2939      1873.2145     -63.099294     -1502.7633    
 213780000   272.70445     -402.24633     -310.91406     -402.2126       0              3769.8836      31.216999      21.524542      33.471849      22490.793      2703.603       4838.9849      3767.0629     -1275.4625     -276.97368     -24.141089    
 213782000   274.53207     -399.54354     -307.59917     -399.48523      0              2195.632       31.216999      21.524542      33.635095      22600.483      1706.2435      2023.0544      2857.5979      360.61104     -971.82621     -170.9004     
 213784000   273.13021     -401.21075     -309.73588     -401.09106      0              2817.99        31.216999      21.524542      33.458026      22481.505      4778.0251      746.86218      2929.0826      1331.701      -1239.7298     -60.445362    
 213786000   271.28677     -403.84423     -312.98675     -403.70245      0              2484.012       31.216999      21.524542      33.469902      22489.485      3432.5735      2291.5672      1727.8953      639.8567       289.94153      923.39821    
 213788000   276.76381     -403.64867     -310.95686     -403.54808      0              3979.8315      31.216999      21.524542      33.621216      22591.158      3915.4586      1923.1089      6100.9268     -837.76627      739.32778      366.5573     
 213790000   277.928       -404.01967     -310.93796     -403.85567      0              3787.6733      31.216999      21.524542      33.590904      22570.79       1995.1941      6493.1091      2874.7169      1910.7547     -1200.9833      239.91318    
 213792000   273.978       -402.26835     -310.50954     -402.09164      0              2491.4432      31.216999      21.524542      33.668607      22623.001      3470.2683      3686.8227      317.2385       735.75342     -2485.9661     -34.869355    
 213794000   279.90058     -406.04773     -312.30538     -405.79907      0              2294.2218      31.216999      21.524542      33.643157      22605.901      2659.6797      2936.8336      1286.1519     -1095.8698      1246.3436      618.06329    
 213796000   279.80446     -404.9642      -311.25403     -404.75093      0              3826.8379      31.216999      21.524542      33.455163      22479.581      2717.6194      4371.116       4391.7784     -993.01484      568.1952      -1000.3891    
 213798000   275.54163     -403.70024     -311.41775     -403.41673      0              3860.4656      31.216999      21.524542      33.394762      22438.996      3823.4959      3523.8441      4234.0569     -1208.0575      35.360598      1017.873     
 213800000   273.98443     -401.72504     -309.96408     -401.5307       0              2071.3732      31.216999      21.524542      33.701283      22644.957      2073.0484      2446.4693      1694.6018     -1560.5849      2962.1797     -399.85199    
 213802000   279.33472     -406.20558     -312.65274     -405.97546      0              4628.9554      31.216999      21.524542      33.522496      22524.825      4628.6992      4147.1779      5110.9891      525.3262      -1973.7328      889.4695     
 213804000   275.71616     -401.36091     -309.01998     -401.03662      0              2694.8599      31.216999      21.524542      33.345056      22405.597      3321.6143      471.16596      4291.7995     -1004.6116      22.398058      91.401806    
 213806000   276.82416     -402.17985     -309.46783     -401.85092      0              1778.9036      31.216999      21.524542      33.336148      22399.611      2052.2754      2787.4886      496.94668      473.75485     -615.25683     -118.05159    
 213808000   275.26094     -403.98029     -311.79182     -403.72302      0              3151.1415      31.216999      21.524542      33.370938      22422.988      5378.9296      2713.6687      1360.8261     -1011.3797      943.56183     -423.16393    
 213810000   272.58642     -405.95697     -314.66423     -405.67633      0              3652.7995      31.216999      21.524542      33.516948      22521.096      2917.4517      4431.0714      3609.8755     -1024.7261      406.75841      973.25363    
 213812000   272.79522     -403.19084     -311.82817     -402.95142      0              4137.6572      31.216999      21.524542      33.360436      22415.931      3351.9787      4301.9169      4759.0761      315.00425      526.40818      1153.3224    
 213814000   261.95581     -403.4668      -315.73439     -403.22253      0              2445.9807      31.216999      21.524542      33.500168      22509.822      1411.7173      3132.2356      2793.9891     -331.38389     -734.36138     -441.82291    
 213816000   278.68039     -404.78636     -311.45266     -404.51813      0              4274.2105      31.216999      21.524542      33.430007      22462.678      3095.6685      7195.7493      2531.2137     -902.60576      192.84177     -1661.8578    
 213818000   281.65993     -404.22859     -309.89701     -403.92468      0              4255.9915      31.216999      21.524542      33.401586      22443.581      2970.773       6446.413       3350.7886     -329.83119      1536.3053      526.90116    
 213820000   277.94288     -405.25591     -312.16922     -405.02214      0              901.49973      31.216999      21.524542      33.458655      22481.928      911.81813      1048.9389      743.74213     -724.83434     -1065.7047      1938.137     
 213822000   276.9143      -403.16973     -310.42752     -402.95174      0              2881.6677      31.216999      21.524542      33.532186      22531.336      3606.3186      3041.7699      1996.9147     -1674.8477      502.8878       158.572      
 213824000   270.51146     -401.58248     -310.98467     -401.2998       0              2960.1452      31.216999      21.524542      33.317791      22387.277      1268.7261      5653.8802      1957.8291     -452.31781      213.63012     -1532.5269    
 213826000   270.66428     -404.91607     -314.26708     -404.60039      0              4246.4293      31.216999      21.524542      33.232767      22330.147      4171.5035      3960.6718      4607.1126      1622.9021      970.34295      582.74009    
 213828000   277.99007     -403.95405     -310.85155     -403.62282      0              3668.1218      31.216999      21.524542      33.137087      22265.856      4181.5476      4167.9914      2654.8264      1334.9719     -622.15331     -1421.0301    
 213830000   277.9178      -405.22453     -312.14623     -404.86108      0              948.52961      31.216999      21.524542      33.204028      22310.836     -2172.202       3512.2657      1505.5251     -26.03498       847.69061     -1610.4837    
 213832000   269.37596     -406.47824     -316.26072     -406.15444      0              2080.8105      31.216999      21.524542      33.288861      22367.838     -758.21234      3363.0873      3637.5566      638.47625      154.12398     -362.68923    
 213834000   271.78962     -402.73951     -311.71362     -402.44946      0              3505.9057      31.216999      21.524542      33.312158      22383.492      4606.7413      4046.4598      1864.516       2125.1026     -160.87496      1181.0022    
 213836000   282.80127     -402.23826     -307.52443     -402.00712      0              2149.3041      31.216999      21.524542      33.231297      22329.159      1472.411       3571.9342      1403.5673      446.45555     -1305.6833     -1385.9636    
 213838000   275.79538     -404.04242     -311.67495     -403.74556      0              6033.437       31.216999      21.524542      33.147422      22272.801      5019.6311      7515.0677      5565.6122     -901.01345     -157.24357     -322.66761    
 213840000   274.70851     -402.62996     -310.6265      -402.39576      0              3136.7168      31.216999      21.524542      33.362654      22417.422      2657.956       3452.3917      3299.8026     -392.07307     -56.308592     -400.78645    
 213842000   281.20306     -401.70908     -307.53051     -401.42316      0              3881.79        31.216999      21.524542      33.310285      22382.233      3639.7625      4166.0363      3839.5712      153.63875      1335.5448      1145.4234    
 213844000   275.20946     -403.87305     -311.70181     -403.65646      0              4393.3295      31.216999      21.524542      33.216975      22319.535      4111.0349      5054.7504      4014.2031      1309.7939      1323.9539     -1873.6383    
 213846000   274.69278     -406.08704     -314.08885     -405.83855      0              4831.3871      31.216999      21.524542      33.307614      22380.439      6160.5777      2117.1766      6216.4071     -1614.8707     -770.23214      673.07245    
 213848000   280.24841     -404.10291     -310.24406     -403.86133      0              4514.3429      31.216999      21.524542      33.146939      22272.476      3545.1937      5829.9126      4167.9225      34.569431      990.24887     -1617.4597    
 213850000   272.21943     -404.47801     -313.30818     -404.23836      0              5077.8822      31.216999      21.524542      33.215379      22318.463      3875.3512      5652.5009      5705.7946      478.74545     -1085.5483     -413.91444    
 213852000   278.93412     -404.69324     -311.27457     -404.3757       0              3073.6397      31.216999      21.524542      33.309623      22381.789      4237.5899      1624.2871      3359.0422     -896.42502     -1140.6312      2104.8898    
 213854000   270.29358     -404.65974     -314.1349      -404.38045      0              2130.7788      31.216999      21.524542      33.138195      22266.601      2207.2582      2641.153       1543.9252      827.68782     -582.19905     -337.17524    
 213856000   277.51594     -404.59571     -311.652       -404.29576      0              3663.0117      31.216999      21.524542      33.119883      22254.296      2246.4698      4291.8153      4450.7501     -278.0979       234.72677     -741.76607    
 213858000   274.89665     -404.56442     -312.49795     -404.23089      0              4032.9845      31.216999      21.524542      33.113593      22250.07       4431.8063      5643.2631      2023.8841      920.41114      449.77151      1326.978     
 213860000   283.64104     -403.82968     -308.8346      -403.51981      0              4593.6882      31.216999      21.524542      33.105856      22244.871      4337.9994      5509.3233      3933.7418      443.78553     -1091.5844     -812.95829    
 213862000   284.36881     -404.69754     -309.45872     -404.39805      0              2336.6034      31.216999      21.524542      33.19485       22304.669      1755.7921      3297.0497      1956.9685      276.46183     -734.17868     -1108.7787    
 213864000   272.46653     -405.70969     -314.4571      -405.46168      0              4047.9597      31.216999      21.524542      33.192845      22303.322      4438.9043      4993.7091      2711.2656      227.81871     -855.18641     -1346.0303    
 213866000   280.39203     -403.88542     -309.97848     -403.53771      0              3746.3838      31.216999      21.524542      33.227544      22326.637      5047.8874      4058.9267      2132.3374      572.48201      3073.4109     -2095.138     
 213868000   272.33213     -402.91287     -311.70529     -402.64138      0              2962.7454      31.216999      21.524542      33.258982      22347.762      3712.9694      3498.2532      1677.0137     -2573.9817      572.29565     -213.52417    
 213870000   270.53485     -403.97973     -313.37408     -403.68984      0              717.56375      31.216999      21.524542      33.227938      22326.901     -353.24058      1500.9923      1004.9395      2413.0853     -1003.7486      61.313199    
 213872000   269.67856     -401.42266     -311.1038      -401.18596      0              1714.3625      31.216999      21.524542      33.370424      22422.642      4072.1806      190.11602      880.79086      494.02541     -314.54091      822.03794    
 213874000   275.31028     -403.00048     -310.79548     -402.68957      0              2023.3481      31.216999      21.524542      33.263354      22350.699      4252.7753      2014.9165     -197.6474      -986.16261     -1096.3095     -854.30627    
 213876000   281.27958     -405.31463     -311.11043     -404.9568       0              2581.4243      31.216999      21.524542      33.313098      22384.124      3460.9776      3889.6334      393.66195      842.62639     -1724.7671      129.14711    
 213878000   271.80178     -403.31364     -312.28368     -402.96193      0              2215.9259      31.216999      21.524542      33.014616      22183.564      2035.5266      2050.773       2561.4781     -1013.687       1356.2964     -67.089992    
 213880000   267.77462     -405.32312     -315.64191     -404.96469      0              3322.0971      31.216999      21.524542      33.073133      22222.884      4327.2306      3292.8185      2346.2423      1587.4293      424.95133     -1559.4201    
 213882000   280.13526     -404.16854     -310.34759     -403.87985      0              1746.8092      31.216999      21.524542      33.246889      22339.636      108.76318      3107.6473      2024.0172     -1129.7517      2318.0334      1417.6181    
 213884000   274.28213     -405.46137     -313.60071     -405.0767       0              2791.5434      31.216999      21.524542      33.210035      22314.872      4818.4038      1653.6785      1902.548       874.06118      81.613934      69.334031    
 213886000   273.05924     -404.0434      -312.5923      -403.74235      0              3652.8401      31.216999      21.524542      33.114439      22250.638      4828.3686      1460.6064      4669.5455     -535.26284      476.21317     -1206.9937    
 213888000   280.19178     -403.04397     -309.20409     -402.77748      0              4689.6601      31.216999      21.524542      33.307367      22380.273      4710.4468      4090.6743      5267.8593     -907.8593       504.56517     -1835.5002    
 213890000   274.23674     -402.80188     -310.95642     -402.54409      0              2788.6799      31.216999      21.524542      33.25899       22347.767      2756.6962      2742.0232      2867.3202      1765.9488     -1294.8471      10.668397    
 213892000   275.69474     -405.01767     -312.68391     -404.74459      0              3971.9023      31.216999      21.524542      33.252161      22343.178      2356.9673      6470.35        3088.3897      114.06595     -759.71556      7.4754569    
 213894000   280.86102     -401.8794      -307.81539     -401.62706      0              1911.7871      31.216999      21.524542      33.365067      22419.043      3564.7713      742.21951      1428.3705      246.61436     -145.84566     -389.35931    
 213896000   276.34077     -403.04879     -310.49866     -402.75542      0              2726.5464      31.216999      21.524542      33.436665      22467.152      1696.7433      3914.8613      2568.0347      2333.2119      418.85665     -391.12377    
[...]
 215446000   277.63713     -401.85564     -308.87135     -401.75714      0              5878.1094      31.216999      21.524542      33.479925      22496.22       6269.7154      6112.7905      5251.8224     -1368.4534      784.90579      584.15103    
 215448000   275.62399     -402.50935     -310.19928     -402.41579      0             -60.523407      31.216999      21.524542      33.641645      22604.884      49.16068      -444.43835      213.70745      1026.8342      1238.1392     -344.00913    
 215450000   276.02621     -404.81612     -312.37134     -404.59031      0              2655.2831      31.216999      21.524542      33.597664      22575.332      2857.9244      2621.9142      2486.0108     -555.19684     -1623.8473      784.91183    
 215452000   264.73396     -404.22223     -315.55937     -404.0557       0              1930.5375      31.216999      21.524542      33.280767      22362.399      3015.9258      780.91715      1994.7696      1412.2738     -1036.8876     -328.13012    
 215454000   276.2435      -403.81753     -311.29998     -403.65509      0              3388.6246      31.216999      21.524542      33.442841      22471.302      4809.5085      2691.612       2664.7532     -70.279831      1266.6881      371.86651    
 215456000   279.72623     -402.45535     -308.77139     -402.33625      0              1094.6589      31.216999      21.524542      33.447112      22474.172      1909.4357      1384.5226     -9.9814142      7.4030559     -596.01744     -64.891857    
 215458000   271.19812     -403.6845      -312.85671     -403.48039      0              3033.4605      31.216999      21.524542      33.400355      22442.754      1911.9418      2788.7438      4399.6961     -26.339346      355.42671     -1462.9885    
 215460000   273.58668     -404.67023     -313.04248     -404.52052      0              2642.261       31.216999      21.524542      33.568247      22555.566      2958.3003      2272.7442      2695.7385      202.46029      724.02183      126.71235    
 215462000   277.73391     -401.17088     -308.15417     -401.10156      0              4309.0167      31.216999      21.524542      33.531219      22530.686      4723.2288      2968.4382      5235.3832      387.48302     -492.89071     -734.28415    
 215464000   270.79755     -403.63108     -312.93745     -403.52422      0              2380.9325      31.216999      21.524542      33.618177      22589.116      3263.2024      1502.4917      2377.1034      774.20792      909.42777     -1138.6727    
 215466000   281.78219     -401.31695     -306.94443     -401.25814      0              1592.2579      31.216999      21.524542      33.594379      22573.125      2301.8708      884.46501      1590.438      -1038.2311      1014.0725      145.24542    
 215468000   273.99476     -402.20639     -310.44198     -402.1161       0              3203.0049      31.216999      21.524542      33.472727      22491.383      3543.7454      4102.9818      1962.2876     -890.50579     -297.05384     -1636.4022    
 215470000   280.12257     -401.81828     -308.00158     -401.73837      0              765.22969      31.216999      21.524542      33.449076      22475.491      1861.1231      552.52582     -117.95988      1385.4393     -990.24889     -1239.1672    
 215472000   274.71727     -401.25184     -309.24545     -401.04093      0              3038.3134      31.216999      21.524542      33.508014      22515.094      3291.0608      1331.5772      4492.3021      1407.0129     -242.07425      944.82959    
 215474000   282.28512     -402.45209     -307.91113     -402.34609      0              1222.7653      31.216999      21.524542      33.503736      22512.219      2859.0833     -762.60225      1571.8147      1765.1607      555.85118      375.30894    
 215476000   271.95578     -399.62485     -308.54332     -399.57951      0              4291.6846      31.216999      21.524542      33.575592      22560.501      5395.1262      3020.9152      4459.0123     -1037.7545      385.82436      71.061174    
 215478000   276.48182     -404.98666     -312.38929     -404.91834      0              4113.8783      31.216999      21.524542      33.405684      22446.335      3067.0512      4817.1071      4457.4765      1246.8482     -528.55248     -316.02997    
 215480000   273.20988     -401.61414     -310.11259     -401.48729      0              3125.9844      31.216999      21.524542      33.328107      22394.209      3833.2274      2981.5067      2563.219       56.821293      97.845196      1787.0652    
 215482000   282.76506     -402.93228     -308.23058     -402.79412      0              4355.9491      31.216999      21.524542      33.28444       22364.867      4221.4422      4099.8053      4746.5998      185.7696      -973.58038     -1407.8903    
 215484000   273.04652     -401.7937      -310.34686     -401.77915      0              1645.619       31.216999      21.524542      33.555421      22546.948      1009.9208      2585.6235      1341.3128      1040.0306     -531.09395      160.78068    
 215486000   265.86761     -399.43565     -310.39312     -399.43827      0              735.32838      31.216999      21.524542      33.461919      22484.121      1636.2785      425.62149      144.08518     -379.50617     -1107.568      -742.48205    
 215488000   266.82313     -400.77772     -311.41517     -400.70962      0              3449.1549      31.216999      21.524542      33.427038      22460.683      4680.2623      3438.0022      2229.2001      591.9244      -1138.257       865.79359    
 215490000   275.46528     -402.49872     -310.2418      -402.36765      0              2370.0102      31.216999      21.524542      33.390549      22436.165      2355.6101      1467.8458      3286.5748      944.67322      809.99651     -210.44403    
 215492000   271.08823     -399.07193     -308.28095     -398.95614      0              3787.5502      31.216999      21.524542      33.442964      22471.384      5765.6662      5089.4582      507.52621     -130.45611     -11.472099     -856.26664    
 215494000   269.07441     -400.82909     -310.71256     -400.76282      0              4316.1429      31.216999      21.524542      33.277507      22360.209      3716.9387      4418.0476      4813.4425      319.0914       1343.4099      2104.1024    
 215496000   270.08485     -399.67533     -309.22039     -399.6142       0              2892.1019      31.216999      21.524542      33.310135      22382.132      2370.3333      3016.8773      3289.095       381.20149     -1375.18       -115.91901    
 215498000   275.03011     -398.76216     -306.65099     -398.72792      0              2510.4483      31.216999      21.524542      33.312203      22383.522      3444.9779      2956.9934      1129.3737      2330.3579     -326.804       -309.68917    
 215500000   269.15615     -397.75845     -307.61455     -397.72644      0              3872.3642      31.216999      21.524542      33.388315      22434.664      3374.9627      4829.81        3412.32       -172.95685     -1163.8075     -1146.4043    
 215502000   274.5118      -401.58992     -309.65234     -401.50014      0              2435.8828      31.216999      21.524542      33.318504      22387.756      3445.4106      1276.6562      2585.5816     -411.81627     -229.17031     -2342.3291    
 215504000   272.85876     -399.88492     -308.50097     -399.8051       0              6072.6407      31.216999      21.524542      33.278227      22360.692      7427.0422      6708.5632      4082.3166      28.875417      636.61774     -613.70417    
 215506000   272.12462     -401.06702     -309.92894     -401.04535      0              2772.5975      31.216999      21.524542      33.335792      22399.373      2463.4531      2516.4237      3337.9157     -401.69952      578.5145       175.02699    
 215508000   277.23826     -398.72088     -305.87017     -398.72499      0              2933.0655      31.216999      21.524542      33.221189      22322.367      2481.3011      4088.3833      2229.5121      522.78454      452.96802      1668.1319    
 215510000   272.50154     -399.8952      -308.63088     -399.88828      0              3726.3327      31.216999      21.524542      33.304969      22378.661      3109.7061      3936.3939      4132.8981      253.92531     -1488.622      -1124.7871    
 215512000   271.80134     -401.12699     -310.09718     -401.07044      0              2336.9166      31.216999      21.524542      33.36966       22422.129      1291.7126      2890.0411      2828.9961      958.64866      990.51716      1807.47      
 215514000   281.69842     -402.32812     -307.98365     -402.23456      0              1168.8537      31.216999      21.524542      33.305819      22379.232      1488.7019      2363.5262     -345.66687     -270.61173      67.135961     -41.028769    
 215516000   270.15487     -398.16312     -307.68473     -398.13273      0              2433.1023      31.216999      21.524542      33.362476      22417.302      2996.0736      1275.6535      3027.5797     -993.90907      223.38245      1516.3025    
 215518000   267.70772     -400.31409     -310.65529     -400.28062      0              5675.9223      31.216999      21.524542      33.231751      22329.464      6441.2223      4877.1765      5709.3682      392.00053     -590.3523       730.72717    
 215520000   270.53893     -400.91452     -310.3075      -400.89968      0              4431.4013      31.216999      21.524542      33.153005      22276.552      3451.7881      5354.3576      4488.0583     -1063.491       1297.5644      145.9034     
 215522000   274.52873     -398.9226      -306.97935     -398.7993       0              4782.8763      31.216999      21.524542      32.925309      22123.556      5106.9736      4877.0989      4364.5563     -199.60606      999.88204     -352.073      
 215524000   283.2235      -401.99155     -307.13631     -401.92908      0              2260.4267      31.216999      21.524542      33.225937      22325.557      1742.5473      3846.5488      1192.1841     -361.35191     -40.509729     -1445.5475    
 215526000   277.57846     -400.12576     -307.16112     -399.98099      0              2956.4622      31.216999      21.524542      33.09717       22239.035      2716.6582      1316.525       4836.2033     -1155.5305      788.79748      1552.2931    
 215528000   280.71705     -398.89073     -304.87493     -398.66497      0              2172.9996      31.216999      21.524542      33.106833      22245.528      120.46887      3323.275       3075.255      -847.71991      307.38005      1844.1705    
 215530000   277.83371     -399.46881     -306.41868     -399.30702      0              3826.8034      31.216999      21.524542      33.255315      22345.297      4920.0815      5393.0891      1167.2397     -1779.2434      211.86074      598.11612    
 215532000   264.88889     -398.81045     -310.09571     -398.60504      0              3994.0428      31.216999      21.524542      33.148781      22273.714      5282.2179      2718.5903      3981.3203      602.51284      36.498658     -581.9562     
 215534000   281.22065     -395.13348     -300.94902     -395.06392      0              3186.2494      31.216999      21.524542      33.201239      22308.962      3144.9195      2314.5505      4099.2783     -1611.7922      289.08892     -244.66292    
 215536000   279.04694     -398.03807     -304.58161     -397.94037      0              3702.9539      31.216999      21.524542      33.20086       22308.707      4308.5114      4285.8755      2514.4748      1561.4597      28.613396     -192.13696    
 215538000   273.55854     -400.26329     -308.64497     -400.17488      0              3385.8901      31.216999      21.524542      33.490615      22503.403      3247.9522      4161.0096      2748.7084      135.41779     -612.34017      515.25021    
 215540000   280.6652      -398.97501     -304.97657     -398.94305      0              1279.7996      31.216999      21.524542      33.510447      22516.728      441.1263       1843.4418      1554.8305     -575.66166     -21.065828     -149.28013    
 215542000   279.29082     -398.43904     -304.9009      -398.3606       0              2026.7367      31.216999      21.524542      33.388598      22434.854      2248.0059      3198.4873      633.71698      1244.9804      163.32438     -1068.3964    
 215544000   275.30716     -399.79608     -307.59212     -399.74918      0              3348.7238      31.216999      21.524542      33.437429      22467.665      2527.465       5727.0632      1791.6433      249.08279     -1221.8336      511.96482    
 215546000   269.98569     -401.06917     -310.64744     -400.9829       0              2197.9835      31.216999      21.524542      33.48215       22497.715      2984.6874      1558.4143      2050.8489     -1113.6523      396.85889     -28.642051    
 215548000   274.47801     -402.7399      -310.81364     -402.64368      0              1882.8307      31.216999      21.524542      33.273643      22357.612      1173.7595      3372.2757      1102.4568     -1004.9965     -1017.4894     -1154.2869    
 215550000   277.62034     -399.33217     -306.3535      -399.23419      0              2836.1912      31.216999      21.524542      33.185023      22298.066      5077.4001      969.64697      2461.5266     -767.03401      832.49302      264.94767    
 215552000   273.83947     -397.89785     -306.18544     -397.83535      0              2005.208       31.216999      21.524542      33.443336      22471.634      169.36922      2890.7276      2955.5273     -11.043626      1583.9908      578.69258    
 215554000   278.76818     -398.58527     -305.22217     -398.59323      0              3002.5161      31.216999      21.524542      33.36815       22421.115      1417.728       3661.3705      3928.4498      278.03026      2053.1544     -1433.5371    
 215556000   276.04897     -402.01918     -309.56678     -402.00956      0              3938.6092      31.216999      21.524542      33.516679      22520.916      2556.9307      4679.1608      4579.736       775.76292      169.68489      525.12491    
 215558000   270.88047     -399.57739     -308.85599     -399.57092      0              4029.5437      31.216999      21.524542      33.453314      22478.339      2198.6462      4765.4151      5124.5697      45.829934      805.74296     -123.59849    
 215560000   278.25538     -400.77152     -307.58017     -400.71668      0              3917.1989      31.216999      21.524542      33.495429      22506.637      4250.0833      5305.1867      2196.3267     -159.98182      1351.2021     -907.52308    
 215562000   271.37887     -397.60737     -306.71905     -397.59257      0              2355.0861      31.216999      21.524542      33.688476      22636.352      2173.0579      1329.0146      3563.1857     -1012.5003      571.40341      1227.6741    
 215564000   272.92767     -400.00264     -308.5956      -399.93889      0              3530.069       31.216999      21.524542      33.247102      22339.778      4132.642       3783.3466      2674.2183     -1004.9555     -1106.3289     -118.08142    
 215566000   273.60482     -398.48625     -306.85243     -398.47967      0              3860.0877      31.216999      21.524542      33.180829      22295.247      3424.9515      2454.5811      5700.7305     -365.62525      209.04419      1003.824     
 215568000   271.59029     -400.68682     -309.72769     -400.60532      0              2552.0281      31.216999      21.524542      33.425584      22459.706      3040.9041      1699.3519      2915.8282      383.68368     -23.153718     -669.64663    
 215570000   274.21332     -400.65972     -308.82211     -400.62073      0              3181.2034      31.216999      21.524542      33.24426       22337.869      1039.032       5511.9852      2992.5931      2334.4144      249.86314     -1094.8213    
 215572000   277.5635      -400.47741     -307.51778     -400.4441       0              3388.1314      31.216999      21.524542      33.401072      22443.236      5255.0119      2012.1773      2897.2049      1057.1373     -973.60814     -381.89425    
 215574000   269.15413     -399.49995     -309.35672     -399.38957      0              4740.0697      31.216999      21.524542      33.451756      22477.292      3943.6236      3655.9109      6620.6747      2065.5267     -1064.1899      575.07828    
 215576000   274.93279     -398.36879     -306.29022     -398.36338      0              2790.2836      31.216999      21.524542      33.541281      22537.447      3050.6532      3008.7825      2311.4151      974.17923     -1453.6347      1030.2264    
 215578000   282.38695     -399.44948     -304.87441     -399.33337      0              3694.3646      31.216999      21.524542      33.525288      22526.7        1737.8547      5271.113       4074.1263      578.17521     -1157.6449     -2106.4416    
 215580000   271.04007     -398.6348      -307.85994     -398.49756      0              2646.5582      31.216999      21.524542      33.429289      22462.196      3758.4816      1729.0492      2452.1438      2017.8492      1137.0983      2148.1384    
 215582000   277.61801     -397.88312     -304.90523     -397.82062      0              2134.5265      31.216999      21.524542      33.432175      22464.135      2096.7674      2722.8485      1583.9637     -236.39107     -807.13353      424.43039    
 215584000   281.37343     -402.83388     -308.59826     -402.67527      0              3273.7703      31.216999      21.524542      33.631733      22598.225      2975.9866      4263.3646      2581.9596      405.32897      66.587464     -262.5743     
 215586000   273.53054     -401.93931     -310.33037     -401.91289      0              2082.5657      31.216999      21.524542      33.500167      22509.821      2363.5695      2410.0181      1474.1094     -116.78012     -161.18365     -624.27068    
 215588000   265.7811      -399.30727     -310.29371     -399.18558      0              3804.8724      31.216999      21.524542      33.645341      22607.368      3578.3055      4821.6703      3014.6416     -135.43494     -1120.7066      1041.5235    
 215590000   280.00078     -403.647       -309.87109     -403.44896      0              2753.1254      31.216999      21.524542      33.39457       22438.867      1932.0496      4332.6469      1994.6797     -1240.0758      1400.8452     -1012.6182    
 215592000   276.26956     -399.67374     -307.14746     -399.50158      0              3389.2937      31.216999      21.524542      33.479053      22495.634      3679.2005      4973.6099      1515.0706      2235.0094     -183.67728     -251.7577     
 215594000   268.42102     -403.28004     -313.38234     -403.10694      0              2747.0349      31.216999      21.524542      33.659586      22616.939      1583.4796      5080.1235      1577.5015     -1266.9845      1299.6482     -743.77046    
 215596000   270.9125      -399.34382     -308.6117      -399.21335      0              1043.6927      31.216999      21.524542      33.616608      22588.061      2512.0977     -678.85077      1297.8312     -1400.7668     -1457.3536      582.66796    
 215598000   281.17122     -401.20305     -307.03514     -401.05812      0              2386.8069      31.216999      21.524542      33.472148      22490.994      2323.7146      2085.1659      2751.5401      380.22692      1538.9002     -1784.7039    
 215600000   275.1976      -404.36167     -312.19441     -404.16636      0              4201.8268      31.216999      21.524542      33.233112      22330.378      3440.038       3660.8378      5504.6045     -813.091       -9.6912628      499.70909    
 215602000   271.0359      -402.304       -311.53054     -402.13574      0              6377.1987      31.216999      21.524542      33.253774      22344.262      6169.4082      5267.5322      7694.6556     -1019.2216     -792.37896     -935.88067    
 215604000   286.00323