LAMMPS data file via write_data, version 29 Sep 2021, timestep = 2000000

864 atoms
2 atom types

0.35635314995580636 17.851219850035847 xlo xhi
0.41973692125546336 21.026378078746312 ylo yhi
0.4347500001900677 21.77844599980557 zlo zhi

Masses

1 1.008
2 15.999

Atoms # full

187 0 1 -1.1794 3.9660143010830304 1.9958678322005015 1.9774300768284776 0 1 1
188 0 2 0.5897 3.5640996298920493 2.1879629619777115 1.0867321515679471 0 0 1
308 0 2 0.5897 0.4283528230828096 4.3194788212581 2.1089347459321965 1 0 0
189 0 2 0.5897 4.016512038847246 2.891872977900277 2.3519236221161828 0 1 1
94 0 1 -1.1794 4.4614436990247714 3.9457681307109733 3.909648598996414 0 0 1
548 0 2 0.5897 1.163200059250053 3.332566512711805 4.25839264959846 1 1 0
95 0 2 0.5897 4.322445864379168 3.3864711131672425 4.665176437555378 0 0 1
395 0 2 0.5897 5.5863824960441475 1.3811682710975952 1.3787701128164946 0 1 0
396 0 2 0.5897 7.254128990484513 1.4561576699551804 1.3579158340145603 0 1 1
498 0 2 0.5897 8.203423905536841 2.961493918186505 3.043358841714062 0 0 0
96 0 2 0.5897 5.387482233666139 4.17839422517166 3.992018868841947 0 0 1
394 0 1 -1.1794 6.425318468669153 0.975104382048551 1.1235334912714579 0 1 1
496 0 1 -1.1794 8.51758723616288 2.5827867172480197 2.1970857327063102 0 0 0
497 0 2 0.5897 8.428615437279152 3.3398094381542887 1.540644815256034 0 0 0
322 0 1 -1.1794 7.369348764998408 3.841206943667435 4.336146154646052 0 1 0
473 0 2 0.5897 11.481978541193454 4.374365303631595 2.484301728568971 0 1 0
472 0 1 -1.1794 11.877850791529522 4.001840306795789 3.307730431157636 0 1 0
140 0 2 0.5897 9.688064897049799 1.3603816448274348 2.070417754814959 0 0 0
139 0 1 -1.1794 10.090693449106334 0.45171490672181525 2.1722909135536606 0 0 0
527 0 2 0.5897 13.564607223412127 3.7084856156606447 2.691643550206468 -1 0 0
307 0 1 -1.1794 17.52767077856378 3.981274060504989 1.2689437933470131 0 0 0
309 0 2 0.5897 17.25204990310869 3.038705702104002 1.4708026672418009 0 0 0
526 0 1 -1.1794 14.384488710835964 3.293623365073356 2.388826786531227 -1 0 0
703 0 1 -1.1794 16.782534003830598 1.2179260728725678 1.1800288816944868 -1 0 1
275 0 2 0.5897 15.487656232486136 3.3069579220675336 3.785403374402224 0 0 0
528 0 2 0.5897 14.264056192487033 2.386939177747144 2.264862644077347 -1 0 0
704 0 2 0.5897 15.97701877188888 0.7727818074071585 1.5073496193576885 -1 0 1
274 0 1 -1.1794 15.82736197141933 3.492004660829828 4.695651187954903 0 0 0
612 0 2 0.5897 2.7594019438129846 4.854821475940779 3.702322346128749 1 1 0
610 0 1 -1.1794 1.918441209953034 4.801397912395309 3.2338318782195294 1 1 0
611 0 2 0.5897 1.551612918479163 5.6771554929763575 3.387228902502114 1 1 0
824 0 2 0.5897 3.8993604325770876 7.937880780223295 3.776577020743627 1 0 0
448 0 1 -1.1794 1.0945125301755563 7.5286486324010236 0.782331686334347 0 1 0
449 0 2 0.5897 1.2053801302956502 7.328590916768947 1.706776819668953 0 1 0
169 0 1 -1.1794 4.361937871236552 5.653749732442024 1.4913132658682189 0 0 0
170 0 2 0.5897 4.571184366664907 5.389719812990469 2.4142022962738894 0 0 0
171 0 2 0.5897 3.39271953862377 5.771092941013794 1.4176582060174763 0 0 0
823 0 1 -1.1794 4.411975629471601 7.170540017357271 4.043739738742699 1 0 0
69 0 2 0.5897 1.4766754102019475 7.973563571957142 4.048239840777678 1 0 0
67 0 1 -1.1794 0.8801912813298951 7.545589442640056 3.444379898117369 0 0 0
324 0 2 0.5897 7.382777429444043 4.823950507036057 4.1177331690547705 0 1 0
658 0 1 -1.1794 6.91800868061911 6.825818666216319 3.6590753641515774 -1 0 0
816 0 2 0.5897 8.222869156570919 6.369580511311836 2.0624821537889595 0 0 1
659 0 2 0.5897 6.052176543859365 7.171803172481148 3.981458493088298 -1 0 0
660 0 2 0.5897 7.601606225717517 7.093782214730344 4.300987449282168 -1 0 0
814 0 1 -1.1794 8.777578184092645 6.11793698092193 1.3555474058787231 0 0 1
815 0 2 0.5897 8.26032961332066 5.418447780111808 0.8967598617207458 0 0 1
656 0 2 0.5897 5.321621754305095 7.1419277872662095 0.9704544638227807 0 0 1
657 0 2 0.5897 6.086174903869296 8.398665399993597 1.1637994151927762 0 0 1
474 0 2 0.5897 11.70961280125655 4.701215086163309 3.999178452264174 0 1 0
337 0 1 -1.1794 11.207752562656445 5.291914323757477 0.9717616335633414 0 0 1
339 0 2 0.5897 11.897451533617328 5.964484783214194 1.0135368122418313 0 0 1
338 0 2 0.5897 10.3863462138882 5.715054599215803 1.1624528227880522 0 0 1
149 0 2 0.5897 9.967120931538984 7.957317145728435 0.9506892411768704 -1 0 1
508 0 1 -1.1794 13.399513613783485 7.149620929814318 1.5608948467830508 0 1 1
150 0 2 0.5897 11.405478075942844 8.085214772893957 1.2183061136980333 -1 0 1
148 0 1 -1.1794 10.702688706213753 8.58255038747793 0.7700669615455029 -1 0 1
844 0 1 -1.1794 10.88334779433 8.143425731327063 3.4517688108676374 0 0 0
846 0 2 0.5897 11.546671081295242 8.534211733616457 4.006555829369089 0 0 0
68 0 2 0.5897 17.634008282258655 7.258280596254021 4.055703476037905 -1 0 0
30 0 2 0.5897 16.042288566383267 5.025087983110075 0.8616776022877768 -1 0 1
509 0 2 0.5897 13.545909761683546 7.4794011110104135 2.450217482553031 0 1 1
510 0 2 0.5897 14.10637004809235 6.467550820978826 1.5150634948012491 0 0 1
221 0 2 0.5897 14.007095544212236 8.535873274713438 0.5494521203631967 -1 0 1
358 0 1 -1.1794 13.808691503519855 7.668025146537521 4.359629035926474 0 0 0
360 0 2 0.5897 14.571077572905287 7.0541034864043395 4.3144028379171075 0 0 0
462 0 2 0.5897 2.7432785741463044 9.22111255202789 1.766738083754597 0 0 0
461 0 2 0.5897 3.0902188291483377 10.137699574682243 2.851872169327311 0 0 0
460 0 1 -1.1794 2.9119075206489136 9.18417540473382 2.7361531367209526 0 0 0
766 0 1 -1.1794 2.79061163368467 12.106660174718684 1.0633440948257262 1 0 0
318 0 2 0.5897 2.4568579282834677 12.297898425743943 4.483485868067675 0 0 0
570 0 2 0.5897 1.6845757508695989 12.376604837555432 2.5043173606758726 1 0 0
568 0 1 -1.1794 1.0977330694973226 12.732089611711256 3.216145810245868 1 0 0
747 0 2 0.5897 4.619730777555597 12.69280097480532 1.8357373878574985 1 0 0
800 0 2 0.5897 4.848941047654813 11.161558875936239 4.086982338168239 0 0 0
545 0 2 0.5897 6.6331793106087575 9.955188370891081 2.72367600490261 1 0 1
197 0 2 0.5897 8.474891460107212 10.031148990433845 2.9237010713339844 1 0 0
544 0 1 -1.1794 7.08318411144778 9.734368942996037 1.8882468486795778 1 0 0
546 0 2 0.5897 7.024535409342623 10.564805894246636 1.3584268401398383 1 0 0
799 0 1 -1.1794 5.651065537717681 10.583071913101916 4.097278672102258 0 0 0
198 0 2 0.5897 9.05380082867203 10.369591535805212 4.391440721350659 0 0 0
458 0 2 0.5897 6.885590909869185 11.873810262261753 4.364508509741165 0 0 0
196 0 1 -1.1794 9.256824132300038 10.385976233924666 3.421452879764652 0 0 0
845 0 2 0.5897 10.367098820731119 8.967112838417304 3.204458346999089 0 0 0
342 0 2 0.5897 10.560825707867071 11.362604796206893 2.5194591363934378 0 0 0
86 0 2 0.5897 13.137804105382468 11.858650140244588 1.9871062430197082 0 0 0
340 0 1 -1.1794 11.215484987965688 11.517922945883821 1.8097409068012187 0 0 0
481 0 1 -1.1794 13.204212720514322 11.302467952557512 4.045869088098101 0 0 0
341 0 2 0.5897 11.05699709943531 10.739650990223058 1.1897235125422903 0 0 1
408 0 2 0.5897 17.30568593571877 9.039225371851202 0.8053420184316056 0 0 0
87 0 2 0.5897 14.043918832140603 10.84272390601213 1.3150305966736435 0 0 0
85 0 1 -1.1794 13.918577983494608 11.784417896407096 1.3885201941113725 0 0 0
483 0 2 0.5897 14.105989049520906 11.12079240108039 3.8035462873804464 0 0 0
428 0 2 0.5897 16.99395868574436 11.648029783193156 3.568091245120727 0 0 0
429 0 2 0.5897 16.560309823920726 10.399171604633873 3.0465303288306536 0 0 0
427 0 1 -1.1794 16.243873313447267 11.03431586363951 3.7014305119745217 0 0 0
406 0 1 -1.1794 16.763306468749057 9.77090966486421 1.1335671866477908 0 0 0
222 0 2 0.5897 15.30065467818295 9.330708565874298 0.4453637029178846 -1 0 1
407 0 2 0.5897 17.012590392057135 10.555445515096839 0.6074030572088945 0 0 0
767 0 2 0.5897 2.9096677469767758 12.926594392185487 0.5375289345816768 0 0 0
158 0 2 0.5897 2.825439444630023 15.902509057746265 3.966362450453167 1 0 0
687 0 2 0.5897 2.4697234557161507 15.82360505302075 0.5641090296512631 0 0 0
569 0 2 0.5897 0.7054795868745509 13.541857052909648 2.940991289956402 1 0 0
200 0 2 0.5897 4.414771397255404 14.32115238555042 3.4675484655561783 0 0 0
157 0 1 -1.1794 1.9645184862546783 16.432719192197485 3.906209710367122 1 0 0
199 0 1 -1.1794 3.9971021418664003 14.636042595640175 4.309289709844233 0 0 0
685 0 1 -1.1794 2.472672493569789 16.635255835601267 1.090676109438349 0 0 0
159 0 2 0.5897 1.8506611500137475 16.463342752128984 2.9298410177194256 1 -1 0
686 0 2 0.5897 3.328667717667486 16.819303346147205 1.4855141706457988 0 0 0
459 0 2 0.5897 6.812117135904506 13.051762509309874 3.4633481685103185 0 0 0
745 0 1 -1.1794 5.152088716489945 13.414131936563402 2.215249393560647 1 0 0
746 0 2 0.5897 5.68473563852668 13.88333158629584 1.5682772513573306 1 0 0
701 0 2 0.5897 7.785473765422828 15.011190649209928 1.2773075962536216 0 0 0
700 0 1 -1.1794 7.181756700437523 14.484783567796388 0.7188891944623196 0 0 0
632 0 2 0.5897 8.706901942584688 13.638462994600586 4.5013970992939045 0 0 0
421 0 1 -1.1794 8.929358241545232 15.797877914857944 2.2289704253494955 0 -1 1
423 0 2 0.5897 8.996341205900867 15.319867647216448 3.0597680114973627 0 -1 1
422 0 2 0.5897 8.677117610495445 16.72733591074918 2.452079337085078 0 -1 1
457 0 1 -1.1794 7.1314835178644795 12.820529026392984 4.35671856705132 0 0 0
692 0 2 0.5897 12.209516388423948 16.433763984742818 2.965853281056453 0 0 0
691 0 1 -1.1794 12.456831549983137 16.655663421047844 3.8716630446655307 0 0 0
334 0 1 -1.1794 12.78898468855385 15.49720915655209 1.4388448823701405 0 0 1
335 0 2 0.5897 12.043915804396548 14.983091624217694 1.0232006594634637 0 0 1
693 0 2 0.5897 13.437272306303399 16.862481802342646 3.8275734533928207 0 0 0
631 0 1 -1.1794 9.303653615440735 14.381703938138934 4.344833496370427 0 0 0
633 0 2 0.5897 10.253747374450079 14.029159993064702 4.503267899059599 0 0 0
414 0 2 0.5897 10.765667946667365 13.053746270451478 0.8119751447410914 0 -1 1
413 0 2 0.5897 9.819118834658159 14.31912729724565 0.9643042734462673 0 -1 1
696 0 2 0.5897 12.529015187592835 12.96939447483937 4.499602165560073 0 0 0
695 0 2 0.5897 12.40969028556535 14.524853354067998 4.532927477328868 0 0 0
33 0 2 0.5897 14.82534804157283 13.152181290944693 2.2824931571772646 0 0 0
336 0 2 0.5897 13.514853421633461 14.893299404571597 1.7876938887787435 0 0 1
120 0 2 0.5897 17.471863211240994 14.800082020919229 1.294789519478992 0 -1 0
118 0 1 -1.1794 17.23605451015812 15.049116226242722 2.234344215710173 0 -1 0
119 0 2 0.5897 17.150705351416775 16.008852893294 2.17113363527204 0 -1 0
31 0 1 -1.1794 14.764248413027778 14.081393721329386 2.5569597345525694 0 0 1
32 0 2 0.5897 15.670387845333819 14.440365661649242 2.4301866926556563 0 0 1
51 0 2 0.5897 14.95480431170835 14.17583193384728 4.46750050454823 0 0 1
803 0 2 0.5897 14.01218820100013 16.78411838786613 0.7451020428776054 0 0 1
743 0 2 0.5897 3.3547027639033704 20.749724546158273 2.3995702201506615 0 0 0
742 0 1 -1.1794 3.324548195731245 19.86132851559296 2.754690302563628 0 0 0
744 0 2 0.5897 3.737476016564084 19.252012176357102 2.1155465415577517 0 0 0
249 0 2 0.5897 1.6547839601001373 19.610468650339204 2.426673101229192 1 0 0
247 0 1 -1.1794 0.712978357176579 19.676421480881242 2.515893077002769 1 0 0
624 0 2 0.5897 0.5668079828321607 20.438014102287557 4.121169573165721 0 0 0
186 0 2 0.5897 4.57481782440779 19.769719109586298 4.30349583023075 0 -1 0
248 0 2 0.5897 0.48321265989683915 20.50313639655081 1.980050327388619 1 0 0
670 0 1 -1.1794 4.763118581897176 17.460948506232917 2.309492366737519 -1 -1 1
672 0 2 0.5897 5.211434357761569 17.28526329235423 3.1718111514751195 -1 -1 1
671 0 2 0.5897 5.497813041876873 17.817266216552966 1.7721710061448717 -1 -1 1
203 0 2 0.5897 6.280347801289664 19.61609196043171 1.016357213376883 0 0 1
75 0 2 0.5897 7.823670290550027 18.635018153671755 2.14980645021865 0 0 0
202 0 1 -1.1794 6.513460884784024 18.66719482292848 0.920873209559092 0 0 1
73 0 1 -1.1794 8.58090182673116 18.91965531765913 2.6356728544246093 0 0 0
74 0 2 0.5897 8.231072161392852 19.040065058144528 3.504085751597772 0 0 0
2 0 2 0.5897 10.45287292524104 20.983799002208023 0.5785833567053165 -1 0 1
141 0 2 0.5897 9.427104267046435 20.483788919872165 2.586258209973936 0 -1 0
24 0 2 0.5897 11.686716328370345 20.701749428295965 2.9658834839281694 0 0 0
22 0 1 -1.1794 12.331973742459127 20.151989282363587 3.4427742608051872 0 0 0
23 0 2 0.5897 11.76499031172695 19.714088622114442 4.093416171358847 0 0 0
252 0 2 0.5897 13.741705596712169 20.482384438113446 2.4695111808238646 0 -1 1
250 0 1 -1.1794 14.275302096902774 20.928221170561798 1.7760689305821236 0 -1 1
128 0 2 0.5897 15.354146875983991 17.014740070524326 4.640921937452178 0 0 1
127 0 1 -1.1794 14.760072940594467 17.437601508132335 4.026755159662404 0 0 1
129 0 2 0.5897 15.3996717580073 17.613303886467072 3.2818077530570045 0 0 1
297 0 2 0.5897 17.280933359230104 18.296681077736917 2.0477778329224843 0 0 0
295 0 1 -1.1794 16.590575047049477 17.574247143988313 2.0747150001782018 0 0 0
296 0 2 0.5897 15.946755688535964 17.582501375412626 1.2899136951326513 0 0 0
251 0 2 0.5897 14.094294118582063 20.354451391642215 0.9780914602279386 0 -1 1
547 0 1 -1.1794 0.9029387102344529 2.6417955215717464 4.875097536959651 1 1 0
549 0 2 0.5897 1.5241535896366807 2.6890020205227896 5.6004929607228595 1 1 0
715 0 1 -1.1794 2.874602893765997 3.4594849772320346 7.025160959233273 1 0 0
716 0 2 0.5897 3.607401904803614 2.865658275406066 6.9078224252428155 1 0 0
717 0 2 0.5897 2.3403557998341427 3.31658811364139 7.824220418472251 1 0 0
320 0 2 0.5897 1.3330634020314533 0.6127114592252088 8.228512939580224 1 1 1
623 0 2 0.5897 0.5178596181161106 0.9601021153588599 5.139843170298517 0 1 0
550 0 1 -1.1794 0.8475862492302917 3.908227347161914 8.741687549244702 1 1 0
323 0 2 0.5897 7.62983237707366 3.768472293275392 5.318143486530753 0 1 0
781 0 1 -1.1794 5.175179432188316 1.9480700369175707 5.94138093729835 0 0 0
783 0 2 0.5897 5.110708677512291 1.013371305916557 5.677777345702197 0 0 0
782 0 2 0.5897 6.089470521577102 2.1513270662252477 6.2017858263400685 0 0 0
286 0 1 -1.1794 7.8622426050610805 3.044623562657457 6.75959108079879 0 0 0
287 0 2 0.5897 8.481311061021426 2.332113396688099 6.715025179067245 0 0 0
288 0 2 0.5897 8.322552127464213 3.6728752741288555 7.340204088312493 0 0 0
595 0 1 -1.1794 6.195881628220766 4.021198778074898 8.736496829246091 0 1 0
597 0 2 0.5897 6.189708974453901 3.298026462666634 8.149050430823035 0 1 0
6 0 2 0.5897 7.657419171972255 1.1805402433650736 8.124205217522327 0 1 0
4 0 1 -1.1794 7.251929788728626 0.9382569794776926 8.966816522385098 0 1 0
853 0 1 -1.1794 9.4410196145948 4.243436297317725 8.524914059927752 0 1 0
664 0 1 -1.1794 9.356089429660772 0.5508344805577876 6.812631177638233 0 1 0
56 0 2 0.5897 11.405142903936602 2.6532771259826267 4.780152392891789 0 1 0
55 0 1 -1.1794 11.2144415980817 1.8057450716738586 5.229157437902322 0 1 0
354 0 2 0.5897 12.191871437764268 3.8773333761113222 8.04102633534552 0 0 1
419 0 2 0.5897 13.088356000569645 1.9568247762861497 8.660286543918534 0 1 0
665 0 2 0.5897 10.133088050853598 0.8653415615951648 6.308180040731157 0 1 0
854 0 2 0.5897 10.312344436903581 4.529117842973048 8.233473504023156 0 1 0
764 0 2 0.5897 10.359697394867519 0.7713783238936395 8.836472288274885 0 1 0
57 0 2 0.5897 12.067826962984082 1.3269569448119882 5.135605543622082 0 1 0
276 0 2 0.5897 16.73213548956953 3.1333881271728985 4.887359898053589 0 0 0
714 0 2 0.5897 14.419471093330456 0.9946734758189227 6.607355644521751 0 1 0
712 0 1 -1.1794 14.527809713616442 1.8447792779414964 7.1114245312643725 0 1 0
713 0 2 0.5897 14.734118740018616 2.463048581467298 6.42700141930582 0 1 0
440 0 2 0.5897 16.251480302771824 1.1761167366165353 8.052991891319895 0 1 1
439 0 1 -1.1794 17.039334271446442 1.3851434241555471 8.565544591274016 0 1 1
551 0 2 0.5897 17.699454518849322 3.1801468667651607 8.625738159749094 0 1 0
825 0 2 0.5897 3.9652528061425576 6.916141259786154 4.844133451062014 1 0 0
239 0 2 0.5897 3.5012061504853897 5.019559288796423 6.5917037249773305 1 0 0
238 0 1 -1.1794 3.6742222454531404 5.983655396446845 6.4509938608541875 1 0 0
240 0 2 0.5897 3.0945435353698465 6.477716118222396 7.096720535805372 1 0 0
403 0 1 -1.1794 1.8978573543648947 7.6430891357584905 8.019896930225407 0 0 0
405 0 2 0.5897 1.0196382316051473 7.199069821558971 8.041081124457136 0 0 0
404 0 2 0.5897 2.1959816606020786 7.654587363033926 8.91868307286044 0 0 0
494 0 2 0.5897 5.751580300037181 6.458753624302631 6.706319594638042 1 0 1
493 0 1 -1.1794 6.645255287362521 6.826223231549579 6.8632355683730095 1 0 1
495 0 2 0.5897 6.998694594020106 6.317300630504777 7.590008478251645 1 0 0
242 0 2 0.5897 6.291750938004522 8.505667668832372 6.925693060987124 0 0 0
855 0 2 0.5897 8.979091577999824 5.03135291968545 8.899109552699159 0 1 0
12 0 2 0.5897 8.934392827043137 7.345164038221467 6.149422624529511 0 1 1
357 0 2 0.5897 12.210184561941833 6.4935173556252375 5.262353196823041 0 0 0
355 0 1 -1.1794 11.567375119259843 5.7855244780231905 5.50998369266029 0 0 0
11 0 2 0.5897 9.661408428248414 7.879740203902958 4.9295581493861995 0 1 1
10 0 1 -1.1794 9.104497156104411 7.14708620743655 5.26994885749335 0 1 1
356 0 2 0.5897 10.68614422690689 6.263612384073391 5.352165168732444 0 0 0
353 0 2 0.5897 11.902201826830368 5.054978095362669 6.979284011411011 0 0 1
719 0 2 0.5897 10.94647432047832 7.363810856695654 8.805070553793328 0 0 0
352 0 1 -1.1794 12.254616530612022 4.865277159319093 7.885763305733903 0 0 1
720 0 2 0.5897 11.884003160300624 6.097935573136551 8.94086039228307 0 0 0
502 0 1 -1.1794 9.878665260627827 8.331620329751956 7.877679249315088 0 0 1
738 0 2 0.5897 13.872420106636794 5.808770064090942 8.129428727448317 0 1 0
368 0 2 0.5897 16.310910772934893 5.342502250313314 4.87305979036697 -1 0 1
359 0 2 0.5897 14.082304260941413 8.300758608092226 5.051097595474884 0 0 0
843 0 2 0.5897 17.52761562974861 5.293327459631551 7.960568691442709 0 0 0
367 0 1 -1.1794 16.432397466052755 6.295818419083186 5.00001924626439 -1 0 1
841 0 1 -1.1794 17.151574237224466 6.164434681881005 7.641474600610348 0 0 0
369 0 2 0.5897 16.74193925279858 6.379745180672841 5.902952986989887 -1 0 1
771 0 2 0.5897 14.815317044119169 7.9271757444901105 7.6035071816498565 0 0 0
842 0 2 0.5897 16.281683858336212 6.135642101152609 8.078634919608312 0 0 0
769 0 1 -1.1794 14.572417738346502 8.549640364932312 6.904078548105377 0 0 0
736 0 1 -1.1794 14.57079586063239 6.313344069252153 8.592685148713207 0 1 0
316 0 1 -1.1794 3.0943570238485 11.585354729065351 4.79040600877621 0 0 0
599 0 2 0.5897 1.7972951058346556 8.793857307550985 6.554409960513679 0 0 0
598 0 1 -1.1794 1.446157617476623 9.13240666731296 5.711921050412107 0 0 0
600 0 2 0.5897 1.9656400380004633 9.849879180654662 5.388149198997008 0 0 0
317 0 2 0.5897 3.2035858474573544 11.738859140469177 5.71005710798738 0 0 0
374 0 2 0.5897 2.5902046438703814 10.955950413535865 8.139694233676071 1 0 0
375 0 2 0.5897 4.027618771150417 11.726504114452634 8.164134597528093 1 0 0
373 0 1 -1.1794 3.267829338502868 11.432974137436586 7.620007082548355 1 0 0
688 0 1 -1.1794 0.6009724595029806 10.733427514393089 8.55595049119246 0 0 0
241 0 1 -1.1794 6.271278927347918 9.466728023814412 6.89886955683468 0 0 0
243 0 2 0.5897 5.722259658636283 9.68025398153752 7.717207494051171 0 0 0
801 0 2 0.5897 5.6345922499735925 10.050764577250346 4.947125686182098 0 0 0
266 0 2 0.5897 7.923033205874832 10.279544823888454 6.4215905965313045 0 0 0
265 0 1 -1.1794 8.79169745511005 10.424823088357765 6.052992698065747 0 0 0
267 0 2 0.5897 9.037240591351033 11.282200371079545 6.389260327980583 0 0 0
503 0 2 0.5897 9.087966213626212 8.855363649146243 8.209697784619879 0 0 1
504 0 2 0.5897 10.284161306304524 8.988513505212918 7.26558684834958 0 0 1
475 0 1 -1.1794 12.243125063678862 9.896647864490275 6.4871607735389905 -1 0 0
476 0 2 0.5897 12.31343942285181 10.82053930609556 6.835306421294804 -1 0 0
477 0 2 0.5897 12.996961367999441 9.336462521677793 6.88010307561524 -1 0 0
698 0 2 0.5897 13.202181306976488 12.532742025562767 7.502765889303886 -1 0 0
482 0 2 0.5897 13.04890480724653 10.766273029246253 4.823955508550795 0 0 0
399 0 2 0.5897 9.555710888263489 12.645079638736705 7.921578008641246 0 0 0
697 0 1 -1.1794 12.23826505561295 12.473133679623915 7.339377672713256 -1 0 0
728 0 2 0.5897 11.335728029392955 12.627176362374701 8.937149518764521 0 0 0
152 0 2 0.5897 17.206538018481403 12.030212185308503 6.407570685410403 0 0 0
134 0 2 0.5897 16.211693756750986 10.596272433808885 5.188506795795487 0 0 0
770 0 2 0.5897 15.327147671905365 9.229984397136363 6.891943864152863 0 0 0
135 0 2 0.5897 17.1823622957331 9.916765740414368 6.205934796346544 0 0 0
133 0 1 -1.1794 16.32696793834603 10.406175985813237 6.158939198485482 0 0 0
84 0 2 0.5897 15.397039005483236 11.543761452589147 7.448281899936696 0 0 1
82 0 1 -1.1794 14.791601915166757 11.901211970994273 8.078024177043279 -1 0 1
83 0 2 0.5897 14.896727336553045 11.39483691354032 8.928749040134685 -1 0 1
690 0 2 0.5897 17.7863916662334 11.592500438193841 8.821440051886086 -1 0 0
201 0 2 0.5897 4.721930375912393 15.207843433385307 4.744600817007519 0 0 0
810 0 2 0.5897 2.626943107697555 13.123349294975585 7.289220097579837 0 0 0
808 0 1 -1.1794 2.352535716021157 13.954654550441948 6.864510934334441 0 0 0
809 0 2 0.5897 2.844653350800667 13.96352303974712 6.017690004264706 0 0 0
792 0 2 0.5897 3.0449068274991133 15.253529179768844 8.143455834424813 1 0 0
153 0 2 0.5897 0.5949372666009936 13.377823381586278 6.42365938696206 1 1 0
791 0 2 0.5897 2.724970574501266 16.60434214788341 8.682164782274045 1 0 0
790 0 1 -1.1794 3.440414462315623 15.896624502645498 8.723365850241443 1 0 0
108 0 2 0.5897 0.5691465244927433 16.116187421344094 4.89158676808082 0 0 1
397 0 1 -1.1794 9.08206212086943 12.882028868901111 7.051607377404183 0 0 0
398 0 2 0.5897 8.211890014169494 13.226944926000321 7.330778091886032 0 0 0
93 0 2 0.5897 6.081072014835533 13.842776434949638 7.673914739648671 0 0 0
92 0 2 0.5897 6.370335742852202 13.712089610608722 6.069073736192483 0 0 0
91 0 1 -1.1794 6.666000869092403 14.142173560090901 6.937698027573167 0 0 0
780 0 2 0.5897 8.827485403399535 15.707286190080705 5.215280791593236 0 -1 0
778 0 1 -1.1794 8.643667115616761 16.631069912669314 5.40956749294875 0 -1 0
531 0 2 0.5897 8.28922741200468 16.879993223924078 7.296630111944417 0 -1 0
180 0 2 0.5897 6.745712866224533 16.403681528561847 5.211533117231726 0 0 1
178 0 1 -1.1794 5.850781147271969 16.709349510837843 4.980049145800005 0 0 1
694 0 1 -1.1794 11.94952007370731 13.704582313765403 4.7743228567082365 0 0 0
699 0 2 0.5897 12.004144919680442 12.852111086875077 6.443333514703759 -1 0 0
647 0 2 0.5897 10.04979492942682 14.94601131342105 7.048528238050289 0 0 0
646 0 1 -1.1794 10.497284579611799 15.612142803888094 7.568761666659611 0 0 0
648 0 2 0.5897 11.42162142448614 15.435247921094916 7.25654222405989 0 0 0
325 0 1 -1.1794 13.121897195400875 15.828108137507442 7.097779406613714 -1 0 0
326 0 2 0.5897 13.422276178337217 15.678871030792822 6.149294308129411 -1 0 0
680 0 2 0.5897 17.449991927896477 15.777480786841261 7.4661622908144984 -1 1 1
679 0 1 -1.1794 17.408295572511108 15.458506318027254 8.356256217605011 -1 0 1
151 0 1 -1.1794 17.22076620852802 13.001950919815366 6.283471941890477 0 0 0
327 0 2 0.5897 13.752050473031638 15.367328334731798 7.6579043856952635 -1 0 0
50 0 2 0.5897 15.755172940234292 13.788799011913678 5.801921304298146 0 0 1
49 0 1 -1.1794 15.126126762282151 14.422108847250795 5.416778763965512 0 0 1
107 0 2 0.5897 16.75629598528156 15.43725755409795 5.298583242123992 -1 0 0
106 0 1 -1.1794 17.43158061512903 16.08904654126524 5.611300038657241 -1 0 0
681 0 2 0.5897 16.488188509623164 15.37391541535939 8.546947139757652 -1 0 1
99 0 2 0.5897 15.07233267352462 13.615935269538664 8.686700993946403 0 0 0
97 0 1 -1.1794 14.853864912173293 14.53421343660612 8.804323614874608 0 0 0
319 0 1 -1.1794 2.161191533078571 20.92846723750598 8.609602127798114 1 0 1
622 0 1 -1.1794 0.6162883277752851 20.591393791777936 5.082301972265366 0 0 0
432 0 2 0.5897 2.236802084522398 17.94773022338096 5.001350407729599 1 0 0
430 0 1 -1.1794 2.3735172721472155 18.615065339389904 5.66303734891949 0 0 0
431 0 2 0.5897 1.7282659358243384 19.26300981717536 5.524471486161974 1 0 0
524 0 2 0.5897 2.036993027510881 18.14447009811334 7.557515697160066 0 0 1
185 0 2 0.5897 4.128462198766788 19.512699334052375 5.748972957527352 0 -1 0
321 0 2 0.5897 2.0656995574774957 20.002054068539046 8.815097506669842 1 0 1
863 0 2 0.5897 4.24879168047852 20.96979247173384 8.597053374086796 0 0 0
755 0 2 0.5897 4.729272213222725 16.987824922287405 7.928094079068953 0 0 0
523 0 1 -1.1794 1.7550211291122202 18.1516434952738 8.485244000746734 0 0 1
525 0 2 0.5897 0.8067075097422438 18.42007302668541 8.604767630169242 0 0 1
137 0 2 0.5897 6.629885814498492 19.36012508993689 5.231216482725066 0 0 0
136 0 1 -1.1794 7.617562361472533 19.24228729184191 5.288933711657119 0 0 0
529 0 1 -1.1794 7.8222617552726454 17.125317467725374 8.109567390641388 0 -1 0
184 0 1 -1.1794 4.875533095727328 19.877067904272636 5.237217335425934 0 -1 0
138 0 2 0.5897 7.727491957710984 18.31554967985557 5.5463653974569604 0 0 0
666 0 2 0.5897 8.88664063331137 20.422539200465536 6.378589660164517 0 0 0
864 0 2 0.5897 5.766698601078283 20.698601679997857 8.639029757487245 0 0 0
862 0 1 -1.1794 4.894586845078811 20.26073319570768 8.719401907401743 0 0 0
530 0 2 0.5897 6.968987494995629 17.376697917454205 7.648070556108297 0 -1 0
179 0 2 0.5897 5.48785984071683 17.10834280728525 5.793237486422517 0 0 1
754 0 1 -1.1794 5.115400452666381 17.73953557319278 7.4749896493241526 0 -1 0
756 0 2 0.5897 4.967307306751108 18.555298331179465 7.917837669334069 0 0 0
215 0 2 0.5897 11.467895940364649 17.77116179325 4.8089938105809615 0 0 0
779 0 2 0.5897 9.51072334199899 17.086392064335893 5.5325167916166 0 -1 0
214 0 1 -1.1794 10.825854651594094 18.195496172223077 5.414824283483676 0 0 0
216 0 2 0.5897 11.296333241625193 18.29445053768643 6.3115317356963185 0 0 0
709 0 1 -1.1794 12.588030538823457 18.828154280950802 7.577986619469448 -1 0 1
710 0 2 0.5897 13.20351561197763 19.217051330204104 6.976548523486852 -1 0 1
711 0 2 0.5897 12.812001498988202 17.862684980854127 7.587540224714876 -1 0 1
438 0 2 0.5897 13.746185867745128 19.72896737528821 4.7253079742209785 0 0 0
436 0 1 -1.1794 14.138994990527877 19.8452795440139 5.578409468026419 0 0 0
774 0 2 0.5897 16.863981241559408 17.743845976072112 5.990549202371689 0 0 0
773 0 2 0.5897 17.121506417919115 19.242320703211526 5.821194093554715 0 0 0
772 0 1 -1.1794 16.474307239982757 18.62786374550064 6.201379968836612 0 0 0
437 0 2 0.5897 14.923426189003006 19.30126457191873 5.578594201239554 0 0 0
372 0 2 0.5897 16.182724564154682 18.70749144382381 8.021171186382528 -1 -1 0
370 0 1 -1.1794 16.22789781329498 18.448822705410016 8.938262461097937 -1 -1 0
748 0 1 -1.1794 3.1349090858165045 2.1809115051690737 10.638348218011208 0 1 1
749 0 2 0.5897 2.588833980165333 1.8774930434565051 11.361400247086008 0 1 1
750 0 2 0.5897 2.754861786559751 1.5835036800073587 9.96333831061668 0 1 0
519 0 2 0.5897 4.342578000769469 1.29326271011942 11.908142957401383 0 0 0
552 0 2 0.5897 0.9391797378593231 4.277127188021101 9.696229663913922 1 1 0
775 0 1 -1.1794 1.1311724921875197 1.1322983682211352 12.40266168684971 1 1 0
123 0 2 0.5897 3.4542143768387725 4.037990653980599 10.448357610528994 0 0 0
777 0 2 0.5897 0.4748222868733669 1.8218803902283331 12.166025115431038 1 1 0
113 0 2 0.5897 0.7474484306181295 4.111654061923005 11.838103222986799 1 1 0
596 0 2 0.5897 6.26176085010033 3.6170724231409985 9.634598903229344 0 1 0
517 0 1 -1.1794 4.955976681090396 1.237302975562292 12.60520020853007 0 0 0
5 0 2 0.5897 7.392274028378368 1.661478380705536 9.645022684198375 0 1 0
156 0 2 0.5897 6.451992823953452 2.074274068885053 11.844638619388315 1 0 0
154 0 1 -1.1794 6.942408591025993 2.5095568664675247 11.1463185116505 1 0 0
155 0 2 0.5897 7.858512392608612 2.623931345908782 11.398007851736606 1 0 0
518 0 2 0.5897 4.751998845266961 0.45325261549341106 13.137443279958804 0 0 0
418 0 1 -1.1794 12.523718914539401 2.554099937302236 9.08442510820551 0 1 0
420 0 2 0.5897 11.795604417182382 1.9681570720849209 9.477705192248907 0 1 0
628 0 1 -1.1794 9.513057731973966 3.2571097502145037 11.440398222649806 0 0 0
629 0 2 0.5897 9.65346320834409 2.904780002709878 10.55626088157395 0 0 0
763 0 1 -1.1794 10.313248728970828 1.1707968034605503 9.68919016497341 0 1 0
471 0 2 0.5897 12.117776154771041 3.828248361522195 13.061250894158908 0 0 0
630 0 2 0.5897 9.716593364293438 4.220869218759804 11.314541420420976 0 0 0
765 0 2 0.5897 10.341934502986785 0.6053559886847026 10.435575562831234 0 1 0
447 0 2 0.5897 9.472737764048636 0.5045324654445905 12.427241331194892 -1 0 0
146 0 2 0.5897 12.759582644523336 0.5650526403523591 11.615692635941327 0 1 0
740 0 2 0.5897 13.436810273834853 4.331143557406172 11.427283765685758 0 1 0
741 0 2 0.5897 13.44588092229344 3.6867303210810376 10.038142771375785 0 1 0
161 0 2 0.5897 15.731352669988194 3.423361418363193 11.197681231001285 -1 0 0
160 0 1 -1.1794 16.41277526276786 2.8730386576624607 11.526587119433213 -1 0 0
162 0 2 0.5897 15.920382565879798 2.303795294093029 12.170980897560744 -1 0 0
441 0 2 0.5897 16.758611891818397 1.3998557174713655 9.467109301344786 0 1 1
739 0 1 -1.1794 14.023881764203777 4.079982164996388 10.687015640802494 0 1 0
122 0 2 0.5897 4.236910623036904 4.7904858367199274 9.445257752215362 0 0 0
112 0 1 -1.1794 1.111115818940319 4.911574675940693 11.35806805966529 1 1 0
114 0 2 0.5897 1.8345379423551262 5.2064951921763205 11.8903499046642 1 1 0
121 0 1 -1.1794 3.7783756287357715 4.90010418098163 10.26023528559466 0 0 0
627 0 2 0.5897 3.32341672028366 6.549104887893057 10.546254798004432 0 0 0
625 0 1 -1.1794 3.2168670701728543 7.512937864020731 10.530346076097887 0 0 0