LAMMPS (29 Sep 2021 - Update 2)
  using 1 OpenMP thread(s) per MPI task
plugin load libdeepmd_lmp.so
Loading plugin: deepmd pair style v2.0 by Han Wang
Loading plugin: compute deeptensor/atom v2.0 by Han Wang
Loading plugin: fix dplr v2.0 by Han Wang
echo both

include		in.partitions
variable        pid world 0
include		in.temp
variable        temperature equal 240
variable        tempDamp equal 0.100
include		in.pressure
variable        pressure equal 1973.846
variable        pressureDamp equal 1.0 # This is 1 ps
include		in.seed
variable        seed world 745823

units           metal
atom_style	full
include		in.box
read_data       water.data
Reading data file ...
  orthogonal box = (0.0000000 0.0000000 0.0000000) to (18.207573 21.446115 22.213196)
  1 by 1 by 1 MPI processor grid
  reading atoms ...
  864 atoms
  reading velocities ...
  864 velocities
Finding 1-2 1-3 1-4 neighbors ...
  special bond factors lj:    0        0        0       
  special bond factors coul:  0        0        0       
     0 = max # of 1-2 neighbors
     0 = max # of 1-3 neighbors
     0 = max # of 1-4 neighbors
     1 = max # of special neighbors
  special bonds CPU = 0.000 seconds
  read_data CPU = 0.075 seconds
include 	in.setup
variable	out_freq equal 500
variable	out_freq2 equal 500

timestep        0.0005

neigh_modify    delay 7 every 1

include         in.deepmd
# This is deepMD model

# create groups ###
#group ox type 2
#group hy type 1

mass 2 15.999
mass 1 1.008

pair_style      deepmd ../graph.pb
pair_coeff      * *

bond_style      none
angle_style     none
dihedral_style  none
improper_style  none
neigh_modify exclude none


neighbor        2.0 bin
neigh_modify    every 10 delay 0 check no

thermo          ${out_freq}
thermo          500
thermo_style 	custom step temp pe etotal epair emol press lx ly lz xy xz yz vol pxx pyy pzz pxy pxz pyz cella cellb cellc cellalpha cellbeta cellgamma


restart 	${out_freq} restart.lmp.${pid} restart2.lmp.${pid}
restart 	500 restart.lmp.${pid} restart2.lmp.${pid}
restart 	500 restart.lmp.0 restart2.lmp.${pid}
restart 	500 restart.lmp.0 restart2.lmp.0


include         in.dump
dump            myDump all atom ${out_freq2} dump.water.${pid}
dump            myDump all atom 500 dump.water.${pid}
dump            myDump all atom 500 dump.water.0
dump            myDump2 all dcd ${out_freq2} dump.dcd
dump            myDump2 all dcd 500 dump.dcd
dump_modify     myDump append yes
dump_modify     myDump2 append yes


timer           timeout 23:50:00 every 1000
New timer settings: style=normal  mode=nosync  timeout=23:50:00

fix             2 all nph iso ${pressure} ${pressure} ${pressureDamp}
fix             2 all nph iso 1973.846 ${pressure} ${pressureDamp}
fix             2 all nph iso 1973.846 1973.846 ${pressureDamp}
fix             2 all nph iso 1973.846 1973.846 1
fix             3 all temp/csvr ${temperature} ${temperature} ${tempDamp} ${seed}
fix             3 all temp/csvr 240 ${temperature} ${tempDamp} ${seed}
fix             3 all temp/csvr 240 240 ${tempDamp} ${seed}
fix             3 all temp/csvr 240 240 0.1 ${seed}
fix             3 all temp/csvr 240 240 0.1 745823
velocity 	all create ${temperature} ${seed} dist gaussian
velocity 	all create 240 ${seed} dist gaussian
velocity 	all create 240 745823 dist gaussian

run             2000000

CITE-CITE-CITE-CITE-CITE-CITE-CITE-CITE-CITE-CITE-CITE-CITE-CITE

Your simulation uses code contributions which should be cited:

- USER-DEEPMD package:

@article{Wang_ComputPhysCommun_2018_v228_p178,
  author = {Wang, Han and Zhang, Linfeng and Han, Jiequn and E, Weinan},
  doi = {10.1016/j.cpc.2018.03.016},
  url = {https://doi.org/10.1016/j.cpc.2018.03.016},
  year = 2018,
  month = {jul},
  publisher = {Elsevier {BV}},
  volume = 228,
  journal = {Comput. Phys. Commun.},
  title = {{DeePMD-kit: A deep learning package for many-body potential energy representation and molecular dynamics}},
  pages = {178--184}
}

CITE-CITE-CITE-CITE-CITE-CITE-CITE-CITE-CITE-CITE-CITE-CITE-CITE

Neighbor list info ...
  update every 10 steps, delay 0 steps, check no
  max neighbors/atom: 2000, page size: 100000
  master list distance cutoff = 8
  ghost atom cutoff = 8
  binsize = 4, bins = 5 6 6
  1 neighbor lists, perpetual/occasional/extra = 1 0 0
  (1) pair deepmd, perpetual
      attributes: full, newton on
      pair build: full/bin
      stencil: full/bin/3d
      bin: standard
Per MPI rank memory allocation (min/avg/max) = 7.215 | 7.215 | 7.215 Mbytes
Step Temp PotEng TotEng E_pair E_mol Press Lx Ly Lz Xy Xz Yz Volume Pxx Pyy Pzz Pxy Pxz Pyz Cella Cellb Cellc CellAlpha CellBeta CellGamma 
       0          240    -134.9383   -108.16594    -134.9383            0    24287.895    18.207573    21.446115    22.213196            0            0            0    8673.8466    24177.339    25024.991    23661.357    1112.5116   -269.42878   -865.04404    18.207573    21.446115    22.213196           90           90           90 
     500    242.07184   -131.11601   -104.11253   -131.11601            0    375.40533     18.14642    21.374085     22.13859            0            0            0    8586.7428    3300.9762   -2145.1774    -29.58275    1626.2944   -1254.6939   -859.83576     18.14642    21.374085     22.13859           90           90           90 
    1000     246.3021   -130.02756   -102.55219   -130.02756            0    3152.1962    18.104201    21.324356    22.087082            0            0            0    8526.9481    2653.7684    3495.4628    3307.3574   -1333.7029    1101.9636   -1174.9397    18.104201    21.324356    22.087082           90           90           90 
    1500    230.45004   -130.28717   -104.58012   -130.28717            0    2220.8513    18.122984    21.346481    22.109998            0            0            0    8553.5164     2202.807   -502.42606    4962.1729    1587.5918    -945.6454   -700.84534    18.122984    21.346481    22.109998           90           90           90 
    2000    232.75827   -128.24495   -102.28042   -128.24495            0    180.92459    18.043136    21.252429    22.012583            0            0            0    8440.9552   -1686.5341   -1035.9741     3265.282    1018.2069    98.079654    627.96076    18.043136    21.252429    22.012583           90           90           90 
    2500    240.71978   -128.14288   -101.29022   -128.14288            0    2059.8251    18.014964    21.219247    21.978213            0            0            0     8401.479    3208.0692    1165.9583    1805.4477    1374.4573    561.86473   -2108.2912    18.014964    21.219247    21.978213           90           90           90 
    3000    236.09188   -127.31969   -100.98329   -127.31969            0    3013.8274    17.910549     21.09626    21.850828            0            0            0    8256.2391    1831.6665    3129.3143    4080.5014   -1105.1781    148.06525    97.782302    17.910549     21.09626    21.850828           90           90           90 
    3500    232.79003   -127.50886   -101.54078   -127.50886            0    2524.7218    17.925648    21.114044    21.869248            0            0            0     8277.137    2357.9931    2187.4366    3028.7358    -428.9516   -2054.6411   -1113.9303    17.925648    21.114044    21.869248           90           90           90 
    4000    237.47108   -129.07052   -102.58027   -129.07052            0    1598.8805    17.827987    20.999013    21.750102            0            0            0    8142.5888    2447.5651   -70.139063    2419.2154   -1815.7009    531.05754   -2322.1863    17.827987    20.999013    21.750102           90           90           90 
    4500    233.62662   -128.69344   -102.63204   -128.69344            0    630.37238    17.975095    21.172286    21.929573            0            0            0    8345.8218    669.35783    1983.2578    -761.4985   -1917.3268   -851.29341    702.90301    17.975095    21.172286    21.929573           90           90           90 
    5000    239.78139   -128.64324   -101.89526   -128.64324            0    2548.7322    17.837012    21.009643    21.761113            0            0            0    8154.9611    1202.1855    1090.7619    5353.2492    834.49477     1387.017   -1212.4824    17.837012    21.009643    21.761113           90           90           90 
    5500    231.06132    -129.5431   -103.76786    -129.5431            0    779.01024    17.897859    21.081313    21.835346            0            0            0    8238.7025   -152.34542    2169.9845    319.39163    1303.6872   -1254.3109    2044.5873    17.897859    21.081313    21.835346           90           90           90 
    6000    248.68545   -130.49564    -102.7544   -130.49564            0    2317.3354    17.879353    21.059515    21.812769            0            0            0     8213.173     179.5829    2704.1535    4068.2698    1154.7765    484.51157   -2554.5599    17.879353    21.059515    21.812769           90           90           90 
    6500    239.81196   -130.26359    -103.5122   -130.26359            0    1817.5611    17.844013     21.01789    21.769654            0            0            0    8164.5671   -148.38265    3037.8428    2563.2231   -993.63843     3530.816    640.79666    17.844013     21.01789    21.769654           90           90           90 
    7000    241.42278   -128.42963   -101.49856   -128.42963            0    39.940128    17.835615    21.007998    21.759408            0            0            0    8153.0447    1604.4597    -609.6474    -874.9919    894.42416    815.82894    27.105305    17.835615    21.007998    21.759408           90           90           90 
    7500    249.44195   -129.23045   -101.40482   -129.23045            0    2090.0625    17.780856    20.943499    21.692603            0            0            0     8078.181    1623.8158    1285.1713    3361.2004    568.25402    1219.0399    2509.7826    17.780856    20.943499    21.692603           90           90           90 
    8000    247.15363     -129.289   -101.71864     -129.289            0    2837.1163    17.780258    20.942795    21.691873            0            0            0    8077.3657    5818.8736    1220.3278    1472.1476     632.1184    2063.0116    -37.77766    17.780258    20.942795    21.691873           90           90           90 
    8500    240.85586   -129.77363    -102.9058   -129.77363            0     3269.328    17.891699    21.074058    21.827831            0            0            0     8230.199    6825.6771    1009.3891    1972.9176   -883.19194   -1864.5877     519.1689    17.891699    21.074058    21.827831           90           90           90 
    9000    247.58341   -128.73243   -101.11413   -128.73243            0    3952.9175    17.927673    21.116429    21.871718            0            0            0    8279.9422    5324.8346    3396.2767    3137.6413    2866.8877   -2368.0978   -1880.3155    17.927673    21.116429    21.871718           90           90           90 
    9500    250.07176   -128.97769   -101.08181   -128.97769            0    1254.2519    17.847151    21.021585    21.773482            0            0            0    8168.8746    1212.0154      2631.25   -80.509806    480.30815   -987.76666   -955.81675    17.847151    21.021585    21.773482           90           90           90 
   10000    249.10912   -128.64331   -100.85482   -128.64331            0    324.01301    17.880041    21.060325    21.813608            0            0            0    8214.1207   -921.64157   -921.68875    2815.3693    2736.5335   -525.22154    823.03987    17.880041    21.060325    21.813608           90           90           90 
   10500    252.23408   -127.27044   -99.133351   -127.27044            0    3337.3475    17.817693    20.986887    21.737543            0            0            0    8128.4913    4192.6574    4542.7518    1276.6332   -513.57864    2034.9064    2091.0875    17.817693    20.986887    21.737543           90           90           90 
   11000    239.40695   -127.58427   -100.87806   -127.58427            0    1737.5517      17.8058    20.972879    21.723034            0            0            0    8112.2256    3984.1393    1210.4089     18.10681    -762.3847    1538.8591    668.65602      17.8058    20.972879    21.723034           90           90           90 
   11500    233.92484   -127.91944   -101.82477   -127.91944            0    1951.0877    17.810532    20.978453    21.728807            0            0            0    8118.6953    2335.7596    2507.2484    1010.2551   -244.22873   -61.980402    485.27752    17.810532    20.978453    21.728807           90           90           90 
   12000      245.475   -128.40885   -101.02575   -128.40885            0    2861.6353    17.754384    20.912318    21.660306            0            0            0    8042.1535   -448.83058    5091.4848    3942.2516    340.11303    1464.1634    977.11156    17.754384    20.912318    21.660306           90           90           90 
   12500    245.22307   -128.52613   -101.17112   -128.52613            0    1783.5168    17.873996    21.053206    21.806233            0            0            0    8205.7931    3453.2236    1397.2887    500.03802    3198.4469   -1877.9512   -283.57783    17.873996    21.053206    21.806233           90           90           90 
   13000    256.10319   -128.83121   -100.26251   -128.83121            0    3543.5118     17.65491    20.795151    21.538948            0            0            0    7907.7346     2437.903    2681.9625    5510.6699    2400.5014    2823.1305    1908.4366     17.65491    20.795151    21.538948           90           90           90 
   13500    236.84781   -129.02938   -102.60865   -129.02938            0    1326.6645    17.753022    20.910714    21.658645            0            0            0    8040.3037    1121.9101    4426.4067   -1568.3233    660.89576    1283.0392   -682.63877    17.753022    20.910714    21.658645           90           90           90 
   14000    233.85254   -128.98622   -102.89962   -128.98622            0    322.84259    17.683179    20.828448    21.573436            0            0            0    7945.7807   -538.82056    833.04408    674.30424   -199.98065   -573.79833    1942.3789    17.683179    20.828448    21.573436           90           90           90 
   14500    238.38224    -129.9645    -103.3726    -129.9645            0    6165.4335    17.623049    20.757623    21.500078            0            0            0    7864.9991    7071.9121    8765.8763    2658.5119    2141.2517    475.32333    170.94868    17.623049    20.757623    21.500078           90           90           90 
   15000    236.97473   -128.97963   -102.54474   -128.97963            0   -1031.3799    17.798761    20.964589    21.714447            0            0            0    8102.6095   -2168.1551     -1707.55    781.56536    1655.7647    1026.5368   -558.54177    17.798761    20.964589    21.714447           90           90           90 
   15500    236.32078   -128.02336   -101.66142   -128.02336            0    3685.9449    17.714701    20.865577    21.611894            0            0            0    7988.3497    4885.2831    5335.0044    837.54735    1339.2616   -575.57841    81.880145    17.714701    20.865577    21.611894           90           90           90 
   16000    243.62903   -129.20228    -102.0251   -129.20228            0    474.27859    17.674807    20.818587    21.563222            0            0            0    7934.5002    2517.4379    816.67943   -1911.2815   -1022.2546    1040.2989    1293.7758    17.674807    20.818587    21.563222           90           90           90 
   16500    240.88137   -129.12583   -102.25515   -129.12583            0    3858.9991    17.701365    20.849868    21.595623            0            0            0    7970.3209    2864.7968    4127.6857    4584.5149    1441.6109   -167.17698    983.00829    17.701365    20.849868    21.595623           90           90           90 
   17000    233.83584   -128.75354    -102.6688   -128.75354            0    957.63905    17.828398    20.999497    21.750604            0            0            0    8143.1519   -440.65786    3352.1484   -38.573379   -1668.1952   -251.52434    1780.4779    17.828398    20.999497    21.750604           90           90           90 
   17500    235.09169   -128.29056   -102.06573   -128.29056            0    1990.9895    17.751067    20.908411     21.65626            0            0            0    8037.6474    2600.8512    2284.6106    1087.5066    1028.2248    -944.9938   -1073.5733    17.751067    20.908411     21.65626           90           90           90 
   18000    237.54421    -130.5494   -104.05099    -130.5494            0    584.30705     17.64679    20.785587    21.529042            0            0            0    7896.8285    2213.5696     1588.736   -2049.3845    122.01412    1536.7405   -628.39017     17.64679    20.785587    21.529042           90           90           90 
   18500    240.89273   -129.86419   -102.99224   -129.86419            0    4337.2189    17.706132    20.855484    21.601439            0            0            0    7976.7626    3967.0767    3769.9141    5274.6658    926.38009    -260.1192    206.92276    17.706132    20.855484    21.601439           90           90           90 
   19000    244.43206   -130.38254   -103.11577   -130.38254            0    1647.2283    17.734186    20.888528    21.635665            0            0            0    8014.7382     1629.254    1466.0571    1846.3738   -1006.4127   -1654.0986   -635.27124    17.734186    20.888528    21.635665           90           90           90 
   19500     246.8178   -130.41933   -102.88643   -130.41933            0    4551.3811    17.691779    20.838577    21.583928            0            0            0    7957.3791    5861.2549    4164.2119    3628.6764   -715.02924    1567.0239   -621.28875    17.691779    20.838577    21.583928           90           90           90 
   20000    229.41264   -129.50258   -103.91126   -129.50258            0    148.13663    17.700948    20.849377    21.595114            0            0            0    7969.7575     890.0483    1870.1119   -2315.7503   -205.06867    52.037893   -1612.9277    17.700948    20.849377    21.595114           90           90           90 
   20500    237.94734   -130.60166   -104.05828   -130.60166            0    2616.8629    17.645923    20.784566    21.527984            0            0            0    7895.6648    5340.0647    2983.3904   -472.86632   -1632.7553    1265.9302   -301.29137    17.645923    20.784566    21.527984           90           90           90 
   21000    233.32885    -130.3238   -104.29562    -130.3238            0    1038.4025    17.664669    20.806646    21.550854            0            0            0    7920.8552    4072.9331   -114.01023   -843.71536    726.25413    555.95978   -67.291177    17.664669    20.806646    21.550854           90           90           90 
   21500    237.38844   -130.95114    -104.4701   -130.95114            0    2127.2862    17.708639    20.858437    21.604498            0            0            0    7980.1509    3182.4896     2641.601    557.76795   -2307.2582    302.75912    2642.9928    17.708639    20.858437    21.604498           90           90           90 
   22000    237.11201   -129.46146   -103.01126   -129.46146            0    4988.6817    17.553897    20.676171    21.415713            0            0            0    7772.7773    4912.3954    6088.5616     3965.088   -799.24352    567.69495    349.37227    17.553897    20.676171    21.415713           90           90           90 
   22500    244.38652   -130.92116   -103.65948   -130.92116            0   -1224.7136    17.655938    20.796362    21.540203            0            0            0    7909.1165    732.73592   -2020.3955   -2386.4812   -274.97376    654.87273    1868.7082    17.655938    20.796362    21.540203           90           90           90 
   23000     238.9411   -130.59399   -103.93975   -130.59399            0    2026.7417    17.649284    20.788524    21.532085            0            0            0    7900.1771    3303.1422    1178.6443    1598.4387    517.60635     1771.372    2480.9979    17.649284    20.788524    21.532085           90           90           90 
   23500    241.20404   -129.44469   -102.53801   -129.44469            0    3497.4022     17.57969    20.706552    21.447181            0            0            0    7807.0906    3465.8783    690.22137     6336.107   -1471.3866   -1006.3035   -1732.9454     17.57969    20.706552    21.447181           90           90           90 
   24000    251.82168   -129.57884   -101.48775   -129.57884            0    1551.2547    17.630896    20.766865    21.509651            0            0            0    7875.5098    806.02572    1064.1065    2783.6318   -396.41574    344.62385    495.15661    17.630896    20.766865    21.509651           90           90           90 
   24500    241.52373   -129.65639   -102.71406   -129.65639            0    2749.2218    17.644636     20.78305    21.526414            0            0            0    7893.9373    1358.6791    3989.0189    2899.9675    60.850458    928.73415    1620.0436    17.644636     20.78305    21.526414           90           90           90 
   25000    236.58438   -127.48144   -101.09009   -127.48144            0    2582.8671    17.588865    20.717359    21.458374            0            0            0    7819.3208    3141.1761    3903.7521    703.67318   -1812.0699   -610.76125   -120.48054    17.588865    20.717359    21.458374           90           90           90 
   25500     248.1357   -129.42792   -101.74801   -129.42792            0    1763.7698    17.743939    20.900016    21.647564            0            0            0    8027.9689    1455.4264    3075.9812    759.90188    905.22727    157.77409    -183.2573    17.743939    20.900016    21.647564           90           90           90 
   26000    244.88714   -128.22573   -100.90821   -128.22573            0    1022.3749    17.730146     20.88377    21.630737            0            0            0    8009.2624   -1042.9582    2667.1546    1442.9283   -3694.4239   -1100.1186    3082.0702    17.730146     20.88377    21.630737           90           90           90 
   26500    236.66719      -129.31   -102.90942      -129.31            0     2200.263    17.637596    20.774757    21.517825            0            0            0    7884.4921    419.85317    765.48098     5415.455   -1159.6591    899.36121    4052.1196    17.637596    20.774757    21.517825           90           90           90 
   27000     244.4635   -128.82744   -101.55717   -128.82744            0    328.25518    17.717406    20.868763    21.615194            0            0            0    7992.0095   -773.51649    2190.4017   -432.11966    413.61606    2283.8085   -623.94801    17.717406    20.868763    21.615194           90           90           90 
   27500    239.37041   -128.50957   -101.80744   -128.50957            0    2919.7789    17.726611    20.879605    21.626423            0            0            0     8004.472    4351.7738    2540.3496    1867.2132   -821.47946   -4277.3952    -66.69876    17.726611    20.879605    21.626423           90           90           90 
   28000    225.57673   -128.20091   -103.03749   -128.20091            0    1194.0785    17.605979    20.737517    21.479253            0            0            0    7842.1677    2716.4597    3196.0307    -2330.255   -1468.5533   -4440.2682   -4.5658788    17.605979    20.737517    21.479253           90           90           90 
   28500    242.90406   -129.40828   -102.31196   -129.40828            0    1220.5189    17.639513    20.777016    21.520165            0            0            0    7887.0639   -3006.9025    2805.2273    3863.2318    -1429.441    502.71082   -888.35127    17.639513    20.777016    21.520165           90           90           90 
   29000    238.27703   -130.03013   -103.44997   -130.03013            0    3300.9169    17.675557    20.819471    21.564138            0            0            0    7935.5113    5266.7222    2013.6115     2622.417   -1000.8873     1129.728    26.972997    17.675557    20.819471    21.564138           90           90           90 
   29500    249.15192   -129.46938   -101.67611   -129.46938            0     2875.705    17.654606    20.794793    21.538578            0            0            0    7907.3262    2897.7178    3882.3141    1847.0832   -775.13196   -2250.8584    971.73266    17.654606    20.794793    21.538578           90           90           90 
   30000    246.84314   -127.17725   -99.641528   -127.17725            0    1895.7167    17.626971    20.762242    21.504862            0            0            0    7870.2512    3224.6589    1024.2148    1438.2763   -140.53844    49.918859    787.82869    17.626971    20.762242    21.504862           90           90           90 
   30500     244.9379    -128.0986   -100.77541    -128.0986            0   -896.19956     17.67696    20.821123    21.565849            0            0            0    7937.4004   -3180.1229   -292.54716    784.07134   -240.05006   -410.43795    1347.1485     17.67696    20.821123    21.565849           90           90           90 
   31000    246.72575   -128.47827   -100.95565   -128.47827            0    3293.8417    17.662799    20.804444    21.548573            0            0            0    7918.3403    4079.2498    3493.3456    2308.9297    285.64879    538.92423    918.47396    17.662799    20.804444    21.548573           90           90           90 
   31500    235.89333   -129.03991   -102.72566   -129.03991            0    905.38227    17.749125    20.906124    21.653891            0            0            0    8035.0099    4967.5046   -428.51184    -1822.846   -1817.0167     2031.644    511.36909    17.749125    20.906124    21.653891           90           90           90 
   32000    240.10671   -130.05543   -103.27117   -130.05543            0    857.21395    17.715439    20.866446    21.612793            0            0            0     7989.347   -3560.0802    3766.0889    2365.6331    3328.8553   -1442.9453    259.42685    17.715439    20.866446    21.612793           90           90           90 
   32500    246.24687   -130.60758   -103.13837   -130.60758            0    3864.9938    17.564401    20.688543    21.428527            0            0            0    7786.7382    3535.5053    5945.7254    2113.7508   -2272.1934   -1258.9367    703.08852    17.564401    20.688543    21.428527           90           90           90 
   33000    235.43374   -129.88986   -103.62687   -129.88986            0    1171.4828    17.734673    20.889101    21.636259            0            0            0    8015.3978    1969.4548    5787.0792   -4242.0856     998.6863    1210.4025   -1088.9922    17.734673    20.889101    21.636259           90           90           90 
   33500    238.33623   -130.03473   -103.44796   -130.03473            0    56.234239    17.729365    20.882849    21.629783            0            0            0    8008.2034    921.16346   -1924.9821    1172.5213    2745.0606    947.76062    514.26588    17.729365    20.882849    21.629783           90           90           90 
   34000    242.10702   -131.68029   -104.67289   -131.68029            0    432.22931    17.657319    20.797989    21.541888            0            0            0    7910.9727    505.91772    1814.2975   -1023.5273     538.0427     2888.935    1091.0617    17.657319    20.797989    21.541888           90           90           90 
   34500    231.43188   -132.22658      -106.41   -132.22658            0    1569.6377    17.682886    20.828103    21.573079            0            0            0    7945.3862    1891.2289    -1093.139    3910.8231   -1496.1503   -355.70784   -1626.6451    17.682886    20.828103    21.573079           90           90           90 
   35000    237.28225   -133.33987   -106.87068   -133.33987            0    1851.3123     17.73483    20.889287    21.636451            0            0            0    8015.6116    1795.8883    1332.8663    2425.1823    367.56836   -584.76555   -846.01908     17.73483    20.889287    21.636451           90           90           90 
   35500    227.61788   -130.76775   -105.37664   -130.76775            0    1413.9457    17.700003    20.848265    21.593962            0            0            0    7968.4818   -1661.0922    4432.1742    1470.7551   -3730.2498   -929.40142    -1758.769    17.700003    20.848265    21.593962           90           90           90 
   36000    232.96955   -130.33157   -104.34347   -130.33157            0    4117.2247    17.643402    20.781596    21.524909            0            0            0    7892.2816    5349.5895     2915.475    4086.6096   -1293.2875    261.25909    2024.6912    17.643402    20.781596    21.524909           90           90           90 
   36500    238.58711    -130.4558   -103.84105    -130.4558            0    2196.7549    17.607742    20.739594    21.481404            0            0            0    7844.5236    1456.8808    2096.9605    3036.4236    70.876376    3793.3049   -903.24366    17.607742    20.739594    21.481404           90           90           90 
   37000    243.18166   -130.88805   -103.76077   -130.88805            0    968.75964    17.599625    20.730033    21.471501            0            0            0      7833.68   -657.11105    2179.6253    1383.7646    1990.6058   -397.55319   -354.55932    17.599625    20.730033    21.471501           90           90           90 
   37500    235.62226   -130.40565   -104.12163   -130.40565            0     2430.712    17.675433    20.819324    21.563986            0            0            0    7935.3436    3357.8989    1839.1582    2095.0788   -1117.7463   -2273.4356   -2064.2042    17.675433    20.819324    21.563986           90           90           90 
   38000     239.9546    -129.6523     -102.885    -129.6523            0    608.08592    17.650832    20.790347    21.533973            0            0            0    7902.2556    780.45553   -399.69029    1443.4925   -4897.1502    1761.1338    1374.5404    17.650832    20.790347    21.533973           90           90           90 
   38500    236.41201   -130.11905   -103.74693   -130.11905            0    2314.1248    17.717519    20.868896    21.615331            0            0            0    7992.1621    3591.3484    566.87825    2784.1477    -1650.807   -1663.2255   -2900.1723    17.717519    20.868896    21.615331           90           90           90 
   39000    228.88873   -130.02504   -104.49216   -130.02504            0    2471.0006    17.607482    20.739288    21.481087            0            0            0    7844.1765     917.8094    4885.9137    1609.2788   -1063.9141    1041.0362    825.72303    17.607482    20.739288    21.481087           90           90           90 
   39500    239.84418   -130.79897   -104.04399   -130.79897            0    2157.7785     17.60427    20.735504    21.477168            0            0            0    7839.8835    2539.3113     1679.488    2254.5362   -1730.6921   -583.60768    1403.7014     17.60427    20.735504    21.477168           90           90           90 
   40000    241.36285   -131.77898    -104.8546   -131.77898            0    943.32173    17.693135    20.840174    21.585582            0            0            0    7959.2088    1849.2829    87.740489    892.94176    1333.3332    594.94605    667.10517    17.693135    20.840174    21.585582           90           90           90 
   40500    233.46249   -131.66133   -105.61823   -131.66133            0    295.05207    17.671531    20.814729    21.559227            0            0            0    7930.0901     1933.752     103.9585   -1152.5543   -113.57438    753.25914   -2139.3517    17.671531    20.814729    21.559227           90           90           90 
   41000    234.55348   -130.84905   -104.68426   -130.84905            0    455.21921     17.64054    20.778225    21.521417            0            0            0    7888.4412     246.7088   -101.74466    1220.6935     1003.195    2245.0893     3474.916     17.64054    20.778225    21.521417           90           90           90 
   41500    243.11952   -131.38952   -104.26917   -131.38952            0    1836.5092    17.614096    20.747077    21.489155            0            0            0    7853.0182    5223.3741   -1329.1917    1615.3451    1463.4242    1024.7478    1126.9632    17.614096    20.747077    21.489155           90           90           90 
   42000    229.30181   -130.27235   -104.69339   -130.27235            0   -481.37832    17.666957    20.809341    21.553646            0            0            0    7923.9331   -1226.0573    414.37895   -632.45663   -1096.9993    78.411923   -1884.2538    17.666957    20.809341    21.553646           90           90           90 
   42500    240.04198   -130.59648   -103.81944   -130.59648            0    4331.6545    17.652312     20.79209    21.535778            0            0            0    7904.2436    2512.6415    5789.4914    4692.8306    270.98568    99.098276   -1267.5984    17.652312     20.79209    21.535778           90           90           90 
   43000    246.83044   -130.94514   -103.41083   -130.94514            0    958.00208    17.621361    20.755635    21.498019            0            0            0    7862.7398    570.60542     2067.937    235.46385    215.75876    670.58767    1033.8663    17.621361    20.755635    21.498019           90           90           90 
   43500    248.57425   -131.63963    -103.9108   -131.63963            0    3040.3897    17.615821     20.74911     21.49126            0            0            0    7855.3264     2740.277    1134.3411    5246.5511    2202.6682    107.65113   -801.02508    17.615821     20.74911     21.49126           90           90           90 
   44000    254.72257   -132.79256   -104.37787   -132.79256            0     4796.692    17.647943    20.786945    21.530449            0            0            0    7898.3768    8034.8015    1826.6122    4528.6625   -150.74224    1268.8311    1780.8952    17.647943    20.786945    21.530449           90           90           90 
   44500    240.41167   -130.86205   -104.04377   -130.86205            0     3764.034    17.656022    20.796461    21.540305            0            0            0    7909.2293    4171.0731    2784.5228    4336.5061    2231.4216    301.22245     425.8521    17.656022    20.796461    21.540305           90           90           90 
   45000    218.61482   -130.16006   -105.77324   -130.16006            0   -68.677464    17.745281    20.901596    21.649201            0            0            0    8029.7906    -1682.221    563.58629    912.60227   -103.74185    836.85198   -3158.1143    17.745281    20.901596    21.649201           90           90           90 
   45500    240.88884   -132.87645   -106.00494   -132.87645            0    1862.5612    17.706438    20.855844    21.601812            0            0            0    7977.1758    -88.04536    891.42592    4784.3031   -1654.2693   -778.22195     857.2464    17.706438    20.855844    21.601812           90           90           90 
   46000    235.83067   -131.15985   -104.85258   -131.15985            0    1026.9137    17.532524    20.650996    21.389637            0            0            0    7744.4194    2232.9908   -731.82989    1579.5803   -1378.5761    3011.4557   -2105.5642    17.532524    20.650996    21.389637           90           90           90 
   46500    244.64467    -131.8908   -104.60032    -131.8908            0    1346.0087    17.625857    20.760931    21.503504            0            0            0    7868.7601    164.84204    712.03206     3161.152   -1666.7637   -817.41476   -1466.7127    17.625857    20.760931    21.503504           90           90           90 
   47000     239.0105   -130.70296   -104.04098   -130.70296            0    1206.5354    17.648225    20.787277    21.530793            0            0            0    7898.7552    2574.0436   -530.63744       1576.2   -1034.0178     1566.651    2953.2419    17.648225    20.787277    21.530793           90           90           90 
   47500    243.10174   -130.47907    -103.3607   -130.47907            0    1932.7699     17.64124     20.77905    21.522272            0            0            0    7889.3807    1682.3407    2853.5865    1262.3825    227.87148   -570.86395    62.251954     17.64124     20.77905    21.522272           90           90           90 
   48000    252.12997   -131.60936   -103.48389   -131.60936            0    1915.9804      17.6506    20.790074     21.53369            0            0            0    7901.9445    274.27078    2241.4444     3232.226    486.33102   -1661.2802   -949.40828      17.6506    20.790074     21.53369           90           90           90 
   48500     239.1536   -130.92096   -104.24301   -130.92096            0    828.80626    17.685965    20.831729    21.576835            0            0            0    7949.5368   -488.46164    3987.0967   -1012.2163   -1835.8335   -1360.6465   -3066.8404    17.685965    20.831729    21.576835           90           90           90 
   49000    248.97122   -130.07798   -102.30487   -130.07798            0     156.3853    17.776263    20.938089    21.686999            0            0            0    8071.9219    1153.2188    18.480926   -702.54379   -1992.5389    2141.0516   -2232.8906    17.776263    20.938089    21.686999           90           90           90 
   49500    257.07361   -128.25075   -99.573798   -128.25075            0      3070.12    17.646822    20.785624    21.529081            0            0            0    7896.8711    162.97264    5195.2128    3852.1747    1038.9853   -423.35859   -2178.1452    17.646822    20.785624    21.529081           90           90           90 
   50000    242.39464   -129.20458   -102.16509   -129.20458            0    306.12613    17.751296    20.908681     21.65654            0            0            0     8037.959   -150.35244    3077.5176   -2008.7867   -1195.1348   -491.64274    436.49741    17.751296    20.908681     21.65654           90           90           90 
   50500    236.56489   -130.19504   -103.80587   -130.19504            0    1868.4046    17.669257    20.812049    21.556451            0            0            0    7927.0281    2793.1044    2422.1399    389.96958    426.32215   -1301.8079   -288.13712    17.669257    20.812049    21.556451           90           90           90 
   51000    244.54825   -131.12188   -103.84215   -131.12188            0    2703.5226    17.615796     20.74908     21.49123            0            0            0    7855.2934    3208.5027    32.108902    4869.9562    1689.2332   -1713.6928    1341.7629    17.615796     20.74908     21.49123           90           90           90 
   51500    240.77437   -131.39904    -104.5403   -131.39904            0    3981.9602    17.665673    20.807828    21.552079            0            0            0    7922.2052    6431.5765   -150.39487     5664.699   -1611.6378      1399.97    736.91325    17.665673    20.807828    21.552079           90           90           90 
   52000    231.26773   -131.97559   -106.17733   -131.97559            0    2432.2007    17.634731    20.771382     21.51433            0            0            0    7880.6502    3442.5868    128.79568    3725.2196     814.7222    1265.0069    660.65022    17.634731    20.771382     21.51433           90           90           90 
   52500    238.98935    -130.0175   -103.35787    -130.0175            0    1126.2582    17.687044    20.833001    21.578152            0            0            0    7950.9922    2949.1346   -585.89662    1015.5368    356.31673    1794.7288    -2846.473    17.687044    20.833001    21.578152           90           90           90 
   53000    239.87226   -131.52948   -104.77137   -131.52948            0     1293.601    17.674398    20.818106    21.562724            0            0            0    7933.9501    3670.2416    118.41972    92.141621    338.32055   -2638.1716    1609.1099    17.674398    20.818106    21.562724           90           90           90 
   53500    238.71807   -131.10872   -104.47936   -131.10872            0    4495.9872    17.614598    20.747669    21.489768            0            0            0    7853.6905    5385.0956    4238.1287    3864.7372    1796.2762   -2332.4486    962.40386    17.614598    20.747669    21.489768           90           90           90 
   54000    244.23842   -131.39061   -104.14545   -131.39061            0    3954.7139    17.710667    20.860826    21.606972            0            0            0    7982.8934    2340.7384    2857.6771    6665.7262   -2.9653064   -917.23166   -1703.3455    17.710667    20.860826    21.606972           90           90           90 
   54500    227.45956   -132.30241   -106.92896   -132.30241            0    662.00837    17.706806    20.856278    21.602262            0            0            0    7977.6739    2681.5228   -1577.1746    881.67691      818.881    -957.1158    603.82633    17.706806    20.856278    21.602262           90           90           90 
   55000    238.76222   -132.16307   -105.52879   -132.16307            0     5220.205    17.585259    20.713111    21.453974            0            0            0     7814.512     2740.937    4070.6865    8848.9916    2883.0211    2429.2927   -301.50277    17.585259    20.713111    21.453974           90           90           90 
   55500    225.31825   -131.40605   -106.27146   -131.40605            0     2199.385    17.716708    20.867941    21.614342            0            0            0    7991.0649    3058.3387    2148.7363    1391.0801    1744.4543   -3114.8598   -1435.3109    17.716708    20.867941    21.614342           90           90           90 
   56000     246.3688   -131.06217   -103.57936   -131.06217            0   -56.691955    17.689245    20.835593    21.580837            0            0            0    7953.9611   -2662.0086    2107.7143    384.21844   -118.23729   -375.61578    578.13548    17.689245    20.835593    21.580837           90           90           90 
   56500    248.51901    -131.1347   -103.41203    -131.1347            0    1966.5047    17.661738    20.803194    21.547279            0            0            0    7916.9135    224.10973    1458.1698    4217.2345    3058.4391   -942.18607   -878.63312    17.661738    20.803194    21.547279           90           90           90 
   57000    234.98908   -130.22532   -104.01193   -130.22532            0    1329.1044    17.659026    20.799999     21.54397            0            0            0    7913.2668    1143.9154   -87.159119     2930.557   -953.46396    477.06458     3708.942    17.659026    20.799999     21.54397           90           90           90 
   57500    239.40584   -131.14071   -104.43462   -131.14071            0     2076.289    17.585827    20.713781    21.454668            0            0            0    7815.2696    2046.2259     3215.153    967.48815   -1011.1416    1163.0977   -1210.8391    17.585827    20.713781    21.454668           90           90           90 
   58000    237.84281   -131.19102    -104.6593   -131.19102            0    1146.5679    17.755463    20.913589    21.661623            0            0            0    8043.6203    414.55095    970.57321    2054.5794    2860.1089    301.90984    -19.65522    17.755463    20.913589    21.661623           90           90           90 
   58500    250.21311   -133.01587   -105.10422   -133.01587            0    3807.7754    17.644622    20.783033    21.526397            0            0            0    7893.9189    3005.9016    4633.3505    3784.0742    317.61845   -578.77344    -595.7127    17.644622    20.783033    21.526397           90           90           90 
   59000     247.4827   -131.80311   -104.19605   -131.80311            0    2633.5181    17.666905    20.809279    21.553582            0            0            0    7923.8628    608.33335    4565.1937    2727.0272    483.89661   -623.39686    698.51325    17.666905    20.809279    21.553582           90           90           90 
   59500    235.81205   -130.29897   -103.99378   -130.29897            0    2661.9917    17.670632     20.81367    21.558129            0            0            0    7928.8795    3234.4567   -523.90102    5275.4195   -137.29706   -920.20376    2090.4487    17.670632     20.81367    21.558129           90           90           90 
   60000    243.16025   -131.43509    -104.3102   -131.43509            0    4469.7543    17.576838    20.703192      21.4437            0            0            0    7803.2907      313.337    5173.5727    7922.3531   -505.22495   -444.42092    213.14802    17.576838    20.703192      21.4437           90           90           90 
   60500    236.90942   -131.71427   -105.28667   -131.71427            0    1706.5711    17.693747    20.840896     21.58633            0            0            0    7960.0357    3315.4573    1735.7682    68.487964   -1296.4995    1791.4753   -1324.5435    17.693747    20.840896     21.58633           90           90           90 
   61000    242.18374   -132.06398   -105.04802   -132.06398            0    3428.8182    17.697331    20.845117    21.590702            0            0            0    7964.8735    1352.4836    3208.6804    5725.2907    504.85033   -734.98273    -1543.963    17.697331    20.845117    21.590702           90           90           90 
   61500    245.28497   -132.70525   -105.34334   -132.70525            0    2195.0917    17.632274    20.768488    21.511332            0            0            0    7877.3565     2579.451   -127.35477    4133.1788    238.35594   -2366.6252   -27.792155    17.632274    20.768488    21.511332           90           90           90 
   62000    241.08283   -131.21836   -104.32521   -131.21836            0    2347.1645    17.752665    20.910293    21.658209            0            0            0    8039.8183    3507.5738    683.09701    2850.8227    -2095.751    902.06965    1429.0541    17.752665    20.910293    21.658209           90           90           90 
   62500    249.44983   -132.49067   -104.66417   -132.49067            0    3360.6505    17.725613     20.87843    21.625206            0            0            0    8003.1205    2971.6004   -429.20161    7539.5529    -1031.251    3085.3079    880.79712    17.725613     20.87843    21.625206           90           90           90 
   63000    248.59751   -130.39972   -102.66829   -130.39972            0    1253.3357    17.654747    20.794959     21.53875            0            0            0    7907.5155    -1674.955    2761.2626    2673.6994   -200.47709    239.33858   -591.18863    17.654747    20.794959     21.53875           90           90           90 
   63500    241.01058   -132.16741   -105.28232   -132.16741            0    1653.7014    17.661998      20.8035    21.547596            0            0            0    7917.2631    2356.1135   -482.59312    3087.5839    594.52437    1650.0062    257.47579    17.661998      20.8035    21.547596           90           90           90 
   64000    237.06704   -130.35281   -103.90763   -130.35281            0    956.15235    17.682961    20.828192    21.573171            0            0            0    7945.4876    866.83906    2980.6275   -979.00949    953.70338   -710.47063    1770.4042    17.682961    20.828192    21.573171           90           90           90 
   64500    236.10774   -130.95769   -104.61951   -130.95769            0    2182.1201    17.752154    20.909692    21.657586            0            0            0    8039.1247    2531.8912    196.18137    3818.2878    351.45575    750.47618   -1263.7328    17.752154    20.909692    21.657586           90           90           90 
   65000    224.74815   -131.59974   -106.52874   -131.59974            0    142.62249    17.713098    20.863689    21.609938            0            0            0    7986.1813   -1.7023457   -1705.0322    2134.6021    -1527.449   -520.65793   -648.87122    17.713098    20.863689    21.609938           90           90           90 
   65500    233.66718   -131.16318   -105.09726   -131.16318            0    4573.3354    17.649662     20.78897    21.532546            0            0            0    7900.6851    3987.3633    5119.0757    4613.5673   -210.65126    191.81549   -1707.9827    17.649662     20.78897    21.532546           90           90           90 
   66000    238.23629   -129.50507   -102.92946   -129.50507            0   -551.31087    17.811615    20.979729    21.730128            0            0            0    8120.1765   -2255.1946     259.4732    341.78879   -1765.7873    261.98013    1186.1904    17.811615    20.979729    21.730128           90           90           90 
   66500    247.11326   -130.87293   -103.30707   -130.87293            0     2283.039    17.788201    20.952151    21.701564            0            0            0     8088.196    2821.8599    3158.3701    868.88697   -268.39498     937.8493    1296.4926    17.788201    20.952151    21.701564           90           90           90 
   67000    237.34318   -131.06325   -104.58726   -131.06325            0    1709.5938    17.780957    20.943618    21.692726            0            0            0    8078.3185    1390.6518    1854.8082    1883.3213   -55.335199    257.91693     1011.714    17.780957    20.943618    21.692726           90           90           90 
   67500    249.71411   -133.02563   -105.16964   -133.02563            0    4182.2829    17.755004    20.913049    21.661063            0            0            0    8042.9967    5178.3212    3871.2623    3497.2653    306.76817    738.08865   -2151.1173    17.755004    20.913049    21.661063           90           90           90 
   68000    234.54326   -130.99294   -104.82928   -130.99294            0    2492.9054    17.729264     20.88273     21.62966            0            0            0    8008.0661    3048.5012    2290.4282    2139.7869    475.85681    957.87809   -26.337385    17.729264     20.88273     21.62966           90           90           90 
   68500    244.73545   -131.71751   -104.41691   -131.71751            0    3032.1674    17.740762    20.896273    21.643687            0            0            0     8023.657    2810.7738    1938.7255     4347.003    1497.2824    977.50807   -54.497795    17.740762    20.896273    21.643687           90           90           90 
   69000     233.7187    -131.7608   -105.68913    -131.7608            0   -2019.4474    17.825019    20.995517    21.746481            0            0            0    8138.5222    1939.4815   -2357.4755   -5640.3483    -82.42613   -1649.8046     1724.366    17.825019    20.995517    21.746481           90           90           90 
   69500    238.05297    -132.3183   -105.76314    -132.3183            0     2111.046    17.661233    20.802599    21.546662            0            0            0    7916.2338    3004.7165    3652.3201   -323.89866    2260.1064   -1464.1679    1033.2354    17.661233    20.802599    21.546662           90           90           90 
   70000    232.70502   -131.28508   -105.32649   -131.28508            0    2425.6091    17.691877    20.838693    21.584048            0            0            0    7957.5112    2959.7311    3492.3107    824.78554   -135.63367   -821.87835    -970.5226    17.691877    20.838693    21.584048           90           90           90 
   70500    227.71125   -130.18179   -104.78025   -130.18179            0    1634.4689    17.787988    20.951899    21.701303            0            0            0     8087.905    1733.5808    1725.9305    1443.8953    1029.1477   -427.60824   -545.96768    17.787988    20.951899    21.701303           90           90           90 
   71000    243.00881   -131.81369   -104.70569   -131.81369            0     3106.373    17.665025    20.807065    21.551288            0            0            0    7921.3336    1522.7582     4419.529    3376.8317   -14.115431   -3797.0841   -63.380739    17.665025    20.807065    21.551288           90           90           90 
   71500    236.75473   -131.43693   -105.02659   -131.43693            0     1349.451    17.674377     20.81808    21.562698            0            0            0     7933.921   -61.650055    4058.4152    51.587968    626.25019   -1083.6426    1133.2707    17.674377     20.81808    21.562698           90           90           90 
   72000    256.29021   -130.08092   -101.49136   -130.08092            0    3557.3419    17.677904    20.822235    21.567001            0            0            0    7938.6719    2951.7065    4624.3794    3095.9399    1878.5024   -1026.5688    171.77978    17.677904    20.822235    21.567001           90           90           90 
   72500    242.16369   -130.05705   -103.04333   -130.05705            0    220.46202    17.802187    20.968623    21.718625            0            0            0     8107.288     3349.607   -680.58783   -2007.6331     699.6646    169.41034    861.57946    17.802187    20.968623    21.718625           90           90           90 
   73000    241.81409   -131.21322    -104.2385   -131.21322            0    4376.5748    17.633071    20.769428    21.512305            0            0            0    7878.4255    4305.7687    4755.7603    4068.1952    723.37721    2013.0824   -1144.1494    17.633071    20.769428    21.512305           90           90           90 
   73500     239.9597    -130.6445   -103.87663    -130.6445            0    1301.0593    17.625541    20.760559    21.503119            0            0            0    7868.3371    957.26191   -774.49183    3720.4077    751.89414    25.909351    2515.3345    17.625541    20.760559    21.503119           90           90           90 
   74000    237.45958   -130.66625   -104.17727   -130.66625            0    4140.1927    17.624173    20.758947     21.50145            0            0            0    7866.5049    6476.1253    3477.4809    2466.9719   -1471.1013   -47.979462   -1532.2539    17.624173    20.758947     21.50145           90           90           90 
   74500    240.79226   -130.49725   -103.63651   -130.49725            0    1277.6526    17.644459    20.782841    21.526198            0            0            0    7893.6999    1580.6154    587.45119    1664.8911    591.91402    59.730876    346.33578    17.644459    20.782841    21.526198           90           90           90 
   75000    242.49348   -130.65847   -103.60796   -130.65847            0    2678.0149    17.694817    20.842156    21.587635            0            0            0    7961.4795     2063.725    5677.5828    292.73692    716.55146    408.26244   -2985.7475    17.694817    20.842156    21.587635           90           90           90 
   75500    236.91556   -131.67476   -105.24647   -131.67476            0    4116.2995    17.677708    20.822004    21.566762            0            0            0    7938.4079    4977.8871     2068.164    5302.8473     2471.172    1076.3808    908.97261    17.677708    20.822004    21.566762           90           90           90 
   76000    241.81208    -131.0451    -104.0706    -131.0451            0    3884.2491    17.621109    20.755338    21.497711            0            0            0    7862.4024    3680.1949    2827.8637    5144.6887    148.93146    227.89383    937.96759    17.621109    20.755338    21.497711           90           90           90 
   76500     214.7982    -131.2011   -107.24004    -131.2011            0    910.74955    17.643754    20.782011    21.525338            0            0            0    7892.7537    1072.2684   -1005.3323    2665.3125    149.11922   -12.569394    99.622166    17.643754    20.782011    21.525338           90           90           90 
   77000    222.28525   -131.19815    -106.4019   -131.19815            0    4811.2912    17.593703    20.723057    21.464276            0            0            0     7825.774    2904.6638    5771.9709    5757.2389   -2388.2509   -235.75169   -651.39436    17.593703    20.723057    21.464276           90           90           90 
   77500    232.34451    -130.5059   -104.58752    -130.5059            0    5164.5748    17.615712    20.748981    21.491127            0            0            0      7855.18    4468.3131    3262.0267    7763.3846    201.97212    1708.0276    1759.0168    17.615712    20.748981    21.491127           90           90           90 
   78000    252.62585   -130.67926   -102.49847   -130.67926            0    2458.0798    17.646495    20.785239    21.528682            0            0            0    7896.4319    82.362217    3150.0582    4141.8189    996.30463   -706.26572    1223.9555    17.646495    20.785239    21.528682           90           90           90 
   78500    240.02118   -132.62284   -105.84812   -132.62284            0    1953.1168    17.722279    20.874502    21.621138            0            0            0    7998.6049    794.71176    5602.6978   -538.05912   -1835.3054   -394.99929   -516.36015    17.722279    20.874502    21.621138           90           90           90 
   79000    240.09079   -132.11369    -105.3312   -132.11369            0   -681.01729    17.708913    20.858759    21.604831            0            0            0    7980.5209   -470.57629     -1788.94    216.46438   -1214.9273   -608.82305    358.44405    17.708913    20.858759    21.604831           90           90           90 
   79500     252.4151   -131.25377   -103.09649   -131.25377            0    4076.4077    17.588607    20.717055    21.458059            0            0            0    7818.9762    2899.5897    3371.4738    5958.1596    -291.0495    1479.6689   -1687.6571    17.588607    20.717055    21.458059           90           90           90 
   80000    248.17641   -130.73109   -103.04664   -130.73109            0    2034.8152    17.687661    20.833727    21.578904            0            0            0    7951.8237    3695.8039    1088.2551    1320.3866    1196.6601   -1260.0695   -1845.8752    17.687661    20.833727    21.578904           90           90           90 
   80500     231.2999   -129.48926   -103.68741   -129.48926            0   -934.30533    17.716519    20.867718    21.614111            0            0            0    7990.8085   -3382.7832    226.82506    353.04219    616.30077   -426.70885   -2117.2837    17.716519    20.867718    21.614111           90           90           90 
   81000    243.34318   -131.34752   -104.20222   -131.34752            0    2333.7167    17.555294    20.677817    21.417417            0            0            0    7774.6329    4743.4888   -1320.7601    3578.4213    -2085.149   -424.34898    169.08128    17.555294    20.677817    21.417417           90           90           90 
   81500    236.43491   -131.75326   -105.37859   -131.75326            0    1846.4037    17.676499     20.82058    21.565287            0            0            0    7936.7791    1586.0377    4643.6961   -690.52275     1764.564   -2763.0259   -583.35955    17.676499     20.82058    21.565287           90           90           90 
   82000    240.20483    -132.0869   -105.29169    -132.0869            0    564.27578    17.744903    20.901151    21.648739            0            0            0    8029.2769    2211.6853    1154.9962   -1673.8542   -1.6908609   -1429.5995   -1530.1775    17.744903    20.901151    21.648739           90           90           90 
   82500    244.29461   -130.28844   -103.03701   -130.28844            0    1712.7632    17.581688    20.708905    21.449617            0            0            0    7809.7518    1604.7169   -1728.6469    5262.2197     363.1032   -3225.4274   -10.226194    17.581688    20.708905    21.449617           90           90           90 
   83000    240.42701   -130.40364   -103.58365   -130.40364            0   -259.85301    17.707411     20.85699       21.603            0            0            0     7978.491   -1070.2885    3008.3455   -2717.6159   -120.30138    2364.3497   -2337.6332    17.707411     20.85699       21.603           90           90           90 
   83500    254.07643   -132.23653   -103.89392   -132.23653            0    758.23479    17.733331    20.887521    21.634622            0            0            0    8013.5791    287.18556    1380.3069    607.21189   -1001.2682     1699.248    366.16205    17.733331    20.887521    21.634622           90           90           90 
   84000    243.46707   -129.66147   -102.50235   -129.66147            0     717.5324    17.643458    20.781662    21.524977            0            0            0    7892.3559   -100.46675    618.98291     1634.081    4304.4727   -336.88746   -1200.6042    17.643458    20.781662    21.524977           90           90           90 
   84500    230.55109   -129.18628   -103.46796   -129.18628            0    2752.0386    17.753035     20.91073    21.658661            0            0            0    8040.3215    3969.8731    1838.2565    2447.9863   -1514.9122   -860.40536   -175.96986    17.753035     20.91073    21.658661           90           90           90 
   85000    242.74677   -131.57007   -104.49131   -131.57007            0    2688.2916    17.728807    20.882192    21.629103            0            0            0    8007.4476    2678.2809    3382.3894    2004.2045    3065.2039   -4481.8863    1423.3506    17.728807    20.882192    21.629103           90           90           90 
   85500    250.45905   -131.31319   -103.37411   -131.31319            0     156.2605    17.630503    20.766403    21.509172            0            0            0    7874.9837    2960.2169   -1876.6824   -614.75303   -913.11954   -1492.4731    838.28297    17.630503    20.766403    21.509172           90           90           90 
   86000    226.18027   -129.91631   -104.68557   -129.91631            0   -289.11954    17.710097    20.860154    21.606276            0            0            0    7982.1218   -2076.2479    386.17001     822.7193   -2773.1563   -1956.7607    764.63852    17.710097    20.860154    21.606276           90           90           90 
   86500    238.16354   -132.30445   -105.73694   -132.30445            0    376.76619    17.710378    20.860485    21.606619            0            0            0    7982.5025    734.53072    1043.0588   -647.29094    -618.0011   -248.22576   -45.740101    17.710378    20.860485    21.606619           90           90           90 
   87000    230.60222   -132.04687   -106.32285   -132.04687            0    4120.1505    17.623636    20.758315    21.500795            0            0            0     7865.786    4283.8225     3185.377    4891.2519     252.2308      49.7427   -2312.2487    17.623636    20.758315    21.500795           90           90           90 
   87500    244.13957   -131.84336   -104.60923   -131.84336            0    2146.8693    17.689923    20.836392    21.581664            0            0            0    7954.8756      946.388    3716.7847    1777.4353    970.04229   -1052.6085    -1110.719    17.689923    20.836392    21.581664           90           90           90 
   88000    239.88947   -131.36816   -104.60813   -131.36816            0    3308.6342    17.703029    20.851828    21.597653            0            0            0    7972.5688    4211.4544    1374.9417    4339.5064   -445.62581    1450.2854   -2614.0829    17.703029    20.851828    21.597653           90           90           90 
   88500    241.26981   -132.56139   -105.64738   -132.56139            0    3774.0862    17.664421    20.806353    21.550551            0            0            0    7920.5209    7152.6391    4102.3114    67.308038   -756.32453    931.51288   -444.38072    17.664421    20.806353    21.550551           90           90           90 
   89000    232.92347   -133.26504   -107.28208   -133.26504            0    362.31787    17.660399    20.801616    21.545645            0            0            0    7915.1125   -47.555857     3996.837   -2862.3276   -485.26976    797.31996    1250.9587    17.660399    20.801616    21.545645           90           90           90 
   89500    227.16922   -132.06861   -106.72754   -132.06861            0    -108.3269    17.730059    20.883666     21.63063            0            0            0    8009.1438    736.51258   -1509.8529    448.35961   -2937.8622    1445.6925   -161.96764    17.730059    20.883666     21.63063           90           90           90 
   90000     227.7783   -133.07496   -107.66595   -133.07496            0    2117.5543    17.712341    20.862797    21.609014            0            0            0    7985.1565    136.01817     6288.144   -71.499198    554.08701   -2979.6848    830.32993    17.712341    20.862797    21.609014           90           90           90 
   90500    249.24933   -133.45107   -105.64694   -133.45107            0   -142.71836    17.664928     20.80695     21.55117            0            0            0     7921.203    686.55086   -2452.2387    1337.5327   -1333.1755    1300.6786   -190.95263    17.664928     20.80695     21.55117           90           90           90 
   91000    241.00336   -132.08751   -105.20323   -132.08751            0    1563.5523    17.728274    20.881564    21.628452            0            0            0    8006.7249    1158.5188    2889.4485    642.68969    1535.0994   -1426.3814   -1903.2194    17.728274    20.881564    21.628452           90           90           90 
   91500    228.44778   -133.05058   -107.56688   -133.05058            0    3181.6393    17.608164    20.740091    21.481919            0            0            0    7845.0877     4870.929    967.78763    3706.2011   -3435.8647    957.13846   -274.90418    17.608164    20.740091    21.481919           90           90           90 
   92000    236.11845   -131.87142   -105.53205   -131.87142            0    3543.9087    17.607915    20.739797    21.481614            0            0            0    7844.7542    3379.6768    6216.7353    1035.3141   -1434.4232    651.63323    6.4394942    17.607915    20.739797    21.481614           90           90           90 
   92500    236.76599   -131.88313   -105.47153   -131.88313            0    2378.7616    17.668697     20.81139    21.555769            0            0            0    7926.2748    4687.2784    2934.4062   -485.39994   -2662.8999    1943.6081   -357.21961    17.668697     20.81139    21.555769           90           90           90 
   93000    232.49184   -130.76265   -104.82784   -130.76265            0    1069.1294    17.673436    20.816973    21.561551            0            0            0     7932.655     7.550022    2412.1937    787.64467   -1972.8961    274.35512    232.56309    17.673436    20.816973    21.561551           90           90           90 
   93500    230.93555   -130.98344   -105.22223   -130.98344            0    1620.6608    17.647293    20.786179    21.529655            0            0            0    7897.5036   -1450.8916    3691.2084    2621.6656   -808.32233   -1832.2148   -1280.0291    17.647293    20.786179    21.529655           90           90           90 
   94000     234.1905   -131.34734   -105.22304   -131.34734            0    2957.8381    17.664448    20.806386    21.550585            0            0            0    7920.5581     3883.733    1096.9686    3892.8125   -855.12842    2275.6347   -948.75124    17.664448    20.806386    21.550585           90           90           90 
   94500    232.23044   -130.99286   -105.08721   -130.99286            0    380.95672    17.781184    20.943885    21.693002            0            0            0    8078.6276    2196.4074   -1445.1006    391.56342   -1444.2229    89.607762     109.5085    17.781184    20.943885    21.693002           90           90           90 
   95000    226.58853   -132.48616   -107.20987   -132.48616            0    1176.4163    17.588882    20.717379    21.458395            0            0            0    7819.3436    1137.0064    1119.4188    1272.8237    4135.4295    973.00555   -2019.2996    17.588882    20.717379    21.458395           90           90           90 
   95500     236.4587   -131.42743    -105.0501   -131.42743            0    176.57019    17.628322    20.763834    21.506511            0            0            0    7872.0617    2172.9734   -2704.5011    1061.2383   -829.03767    -2708.052    1417.1817    17.628322    20.763834    21.506511           90           90           90 
   96000    237.54836   -130.24243   -103.74355   -130.24243            0    3800.4253    17.606259    20.737847    21.479594            0            0            0    7842.5415    5447.3538    2803.2262    3150.6959   -2183.6491   -507.25874    4926.5163    17.606259    20.737847    21.479594           90           90           90 
   96500    238.34583   -131.01724    -104.4294   -131.01724            0    801.60612     17.63281     20.76912    21.511986            0            0            0    7878.0752   -1679.2711   -577.14616    4661.2356   -1911.7555   -1787.2974   -182.24451     17.63281     20.76912    21.511986           90           90           90 
   97000    244.89969   -132.23703    -104.9181   -132.23703            0    2473.5578    17.700856    20.849269    21.595002            0            0            0    7969.6336    1208.6958    774.07059     5437.907   -337.19438    1201.9438   -1019.7643    17.700856    20.849269    21.595002           90           90           90 
   97500    237.30948   -131.34449   -104.87226   -131.34449            0    2059.0789    17.655303    20.795614    21.539428            0            0            0    7908.2628     3704.581    1549.1248    923.53098    1745.6195    1696.4237    638.86178    17.655303    20.795614    21.539428           90           90           90 
   98000    236.00851   -132.88217   -106.55507   -132.88217            0    2939.6551    17.620882     20.75507    21.497434            0            0            0    7862.0986    2301.8245    389.26501    6127.8756   -209.53443   -1084.4085    1234.5765    17.620882     20.75507    21.497434           90           90           90 
   98500    236.80487   -132.18734   -105.77141   -132.18734            0    3234.8854    17.678028    20.822381    21.567152            0            0            0    7938.8395    2462.4524    1858.8015    5383.4024    658.28016   -1623.9028   -2101.6214    17.678028    20.822381    21.567152           90           90           90 
   99000    228.95185   -131.49458   -105.95466   -131.49458            0    1149.9259    17.703074    20.851882    21.597708            0            0            0    7972.6299    4344.0493    -1954.427    1060.1556   -1181.9059   -647.44259   -454.59685    17.703074    20.851882    21.597708           90           90           90 
   99500    255.66853   -132.43034   -103.91014   -132.43034            0    1758.0968    17.723361    20.875777    21.622459            0            0            0    8000.0704    501.51582    4901.9654    -129.1908   -110.95299    -1097.536    1215.0688    17.723361    20.875777    21.622459           90           90           90 
  100000     244.3829   -132.18611   -104.92483   -132.18611            0     1569.924    17.715233    20.866203    21.612542            0            0            0    7989.0686    3586.6545   -508.39311    1631.5107   -3688.2472    703.40804   -46.084194    17.715233    20.866203    21.612542           90           90           90 
  100500    243.58056   -131.81526   -104.64348   -131.81526            0    1494.0908    17.675084    20.818913     21.56356            0            0            0    7934.8732    2310.3358     1435.842     736.0946    687.27188    1489.9804   -128.22332    17.675084    20.818913     21.56356           90           90           90 
  101000    231.38653   -131.18484   -105.37333   -131.18484            0    3106.3701    17.625588    20.760613    21.503175            0            0            0     7868.399    1510.8751    4492.6552      3315.58   -1840.7683   -487.42029   -2211.6964    17.625588    20.760613    21.503175           90           90           90 
  101500     234.3683   -131.78731   -105.64318   -131.78731            0    669.76609    17.665904    20.808101    21.552361            0            0            0    7922.5166     831.5136     1838.004   -660.21929    335.43689     257.4162   -383.25867    17.665904    20.808101    21.552361           90           90           90 
  102000    234.72433   -131.65452   -105.47067   -131.65452            0    772.30918    17.696622    20.844282    21.589837            0            0            0    7963.9158   -1060.7572    780.30952    2597.3752    1452.6378   -362.99675   -802.62566    17.696622    20.844282    21.589837           90           90           90 
  102500    234.59356   -131.89323   -105.72397   -131.89323            0    3435.2426    17.625837    20.760907     21.50348            0            0            0     7868.733    1090.8595    6021.0611    3193.8074    754.37317   -462.06444   -1341.4079    17.625837    20.760907     21.50348           90           90           90 
  103000    241.45977   -131.35201   -104.41681   -131.35201            0    1325.6253    17.695462    20.842916    21.588422            0            0            0    7962.3503    -173.7421    698.56044    3452.0577     2469.474    169.61468   -2780.2769    17.695462    20.842916    21.588422           90           90           90 
  103500    238.31164    -132.1262   -105.54218    -132.1262            0     2394.058    17.644119    20.782441    21.525783            0            0            0    7893.2433    4007.3951    585.63896    2589.1398   -1536.1328   -1462.6269    2416.1426    17.644119    20.782441    21.525783           90           90           90 
  104000    235.24066   -131.32904   -105.08759   -131.32904            0    2517.8667    17.615246    20.748432    21.490558            0            0            0     7854.557    3231.9739    2871.8964    1449.7298      3157.18    1585.4773   -512.01852    17.615246    20.748432    21.490558           90           90           90 
  104500    228.75564    -131.3157   -105.79767    -131.3157            0    757.39283    17.723609     20.87607    21.622761            0            0            0    8000.4064   -1446.1196    1344.2126    2374.0855    763.58267    1796.0216    135.02652    17.723609     20.87607    21.622761           90           90           90 
  105000    235.34615   -130.32955   -104.07634   -130.32955            0    2462.3213    17.599154    20.729478    21.470926            0            0            0    7833.0503    4252.2027    3360.4174   -225.65608   -1124.0805    -665.3771    1337.4413    17.599154    20.729478    21.470926           90           90           90 
  105500    245.41793   -131.31287   -103.93614   -131.31287            0    2987.8163    17.676696    20.820812    21.565527            0            0            0    7937.0443    602.64746    6999.3182    1361.4832   -467.27389     1540.815    498.17409    17.676696    20.820812    21.565527           90           90           90 
  106000    237.48843   -131.10116   -104.60896   -131.10116            0   -80.226093    17.698278    20.846232    21.591857            0            0            0    7966.1515   -1581.5157    1454.2423   -113.40489    2160.2487   -1311.8119    150.87309    17.698278    20.846232    21.591857           90           90           90 
  106500    237.86416   -131.20402   -104.66992   -131.20402            0    1018.8056    17.600244    20.730762    21.472257            0            0            0    7834.5066    435.92155   -1444.9367     4065.432   -42.978342   -1626.4581   -1077.6979    17.600244    20.730762    21.472257           90           90           90 
  107000    243.47767   -131.57101   -104.41071   -131.57101            0    2353.7269     17.54503    20.665727    21.404896            0            0            0    7761.0045    667.75642    4283.7099    2109.7144   -760.84504    377.49774    2723.9649     17.54503    20.665727    21.404896           90           90           90 
  107500    234.64513   -131.17832   -105.00331   -131.17832            0    3675.4043    17.614896     20.74802    21.490132            0            0            0    7854.0892    1427.5097    2324.7483    7273.9548   -1491.9777   -1593.6952   -637.28855    17.614896     20.74802    21.490132           90           90           90 
  108000    238.69499   -130.69091   -104.06412   -130.69091            0    2006.2896    17.709942    20.859971    21.606087            0            0            0    7981.9125    1076.1591    2563.3959    2379.3138    520.74292    2238.6187   -164.27482    17.709942    20.859971    21.606087           90           90           90 
  108500    248.29897   -130.93005   -103.23193   -130.93005            0    2371.9291    17.678461    20.822891    21.567681            0            0            0    7939.4231    5040.9585    1616.8811    457.94775    879.78671   -2995.1857    268.48953    17.678461    20.822891    21.567681           90           90           90 
  109000    240.28388   -131.00301   -104.19898   -131.00301            0    4314.5963    17.602763    20.733729    21.475329            0            0            0    7837.8705    4319.0449    3382.8124    5241.9316    473.50942   -450.59209    3346.6607    17.602763    20.733729    21.475329           90           90           90 
  109500    242.35034   -130.43498   -103.40043   -130.43498            0    1508.3946    17.654134    20.794237    21.538002            0            0            0    7906.6917     1586.011    1924.4005    1014.7723   -2670.9298    899.23444    1869.0005    17.654134    20.794237    21.538002           90           90           90 
  110000    230.96459   -130.41076   -104.64631   -130.41076            0    3244.4939     17.69625    20.843844    21.589383            0            0            0    7963.4137    2414.2812    3436.9055    3882.2949    255.65022    927.35558    1389.2911     17.69625    20.843844    21.589383           90           90           90 
  110500     234.7682     -132.217   -106.02825     -132.217            0    1295.6553    17.715136     20.86609    21.612424            0            0            0    7988.9381    2587.4731    1746.1743    -446.6816   -1664.4398    1628.7412   -1598.9443    17.715136     20.86609    21.612424           90           90           90 
  111000    238.67774   -130.79866    -104.1738   -130.79866            0    1990.3576    17.707819    20.857471    21.603497            0            0            0    7979.0425   -3043.8282     5198.848    3816.0529   -115.59221    679.96942    419.30253    17.707819    20.857471    21.603497           90           90           90 
  111500    244.79607   -131.97448    -104.6671   -131.97448            0    77.572241    17.663732    20.805542    21.549711            0            0            0    7919.5946   -1227.6653   -2071.3304    3531.7125    117.30582   -1301.5945   -242.31338    17.663732    20.805542    21.549711           90           90           90 
[...]
 1973500    238.09583    -132.1242   -105.56426    -132.1242            0    -1900.186    17.618822    20.752644    21.494921            0            0            0    7859.3413   -3318.6043    -4289.193    1907.2393    817.40378    2236.3269   -2133.2804    17.618822    20.752644    21.494921           90           90           90 
 1974000     243.5514    -133.4883   -106.31978    -133.4883            0    3104.5388    17.551511    20.673361    21.412802            0            0            0    7769.6077    2297.7842     2590.147    4425.6853    139.39292   -2256.7592   -232.54534    17.551511    20.673361    21.412802           90           90           90 
 1974500    235.40245   -133.26465   -107.00516   -133.26465            0    4272.2907    17.580104     20.70704    21.447685            0            0            0     7807.642    3727.5714    7329.5586    1759.7421   -392.07724    564.18426    1092.3112    17.580104     20.70704    21.447685           90           90           90 
 1975000    223.33274   -131.90359   -106.99049   -131.90359            0     5775.057    17.573921    20.699757    21.440143            0            0            0    7799.4073    5584.7999    6045.6273    5694.7438   -1824.7521     1179.275    1216.9037    17.573921    20.699757    21.440143           90           90           90 
 1975500    228.50564   -132.33427   -106.84413   -132.33427            0     1397.411     17.57539    20.701487    21.441935            0            0            0    7801.3632   -368.34179    1897.1929     2663.382   -1179.0787   -2284.4389   -1039.7009     17.57539    20.701487    21.441935           90           90           90 
 1976000    237.67436   -133.34136   -106.82842   -133.34136            0    556.54365    17.621993    20.756379     21.49879            0            0            0    7863.5859   -380.27049    1833.3823    216.51913   -732.22377    2348.9349    429.58476    17.621993    20.756379     21.49879           90           90           90 
 1976500    242.40779   -133.14455    -106.1036   -133.14455            0    2411.6688    17.657921    20.798697    21.542622            0            0            0    7911.7811    -1237.575    2332.6151    6139.9663    2600.3908   -1232.6038   -753.89067    17.657921    20.798697    21.542622           90           90           90 
 1977000    237.13201   -132.96302   -106.51059   -132.96302            0    3629.7316     17.51835    20.634301    21.372345            0            0            0    7725.6521    4560.8018    2603.5043    3724.8887   -2575.7753    1600.8895    494.20691     17.51835    20.634301    21.372345           90           90           90 
 1977500    241.99679   -133.31817   -106.32306   -133.31817            0    1829.5308    17.603406    20.734486    21.476114            0            0            0    7838.7296    5.9224587    2402.6248    3080.0453   -157.39099   -849.21673    2203.9549    17.603406    20.734486    21.476114           90           90           90 
 1978000    240.38081   -132.66944    -105.8546   -132.66944            0    2755.2693    17.653088    20.793005    21.536725            0            0            0    7905.2862    1989.5567    4913.6464    1362.6046    1095.1553     906.2549    2311.7554    17.653088    20.793005    21.536725           90           90           90 
 1978500    238.28206   -132.33569   -105.75497   -132.33569            0    3887.3236    17.507638    20.621683    21.359276            0            0            0    7711.4882    4651.0742    764.83396    6246.0627    644.98454    1531.6492    -2638.018    17.507638    20.621683    21.359276           90           90           90 
 1979000    240.06503    -133.2156   -106.43598    -133.2156            0    4814.9834    17.533484    20.652127    21.390809            0            0            0    7745.6918    1453.6416    3854.6327    9136.6759    2861.3681   -2726.9758   -943.28755    17.533484    20.652127    21.390809           90           90           90 
 1979500      248.078   -132.40225   -104.72878   -132.40225            0    4310.4447    17.546388    20.667327    21.406552            0            0            0    7762.8068    7336.1725    3830.9125     1764.249   -1763.6093   -1816.9544    -1058.665    17.546388    20.667327    21.406552           90           90           90 
 1980000    242.35156   -132.76256   -105.72788   -132.76256            0   -1569.0964    17.550659    20.672357    21.411763            0            0            0    7768.4764   -4567.6294   -2663.3695    2523.7096   -190.41121    1052.3921    1972.0412    17.550659    20.672357    21.411763           90           90           90 
 1980500    240.38507   -132.55288   -105.73756   -132.55288            0    4947.9533    17.519024    20.635095    21.373168            0            0            0    7726.5439    3075.3715    5211.2239    6557.2647    1181.8099   -1386.6106   -781.51752    17.519024    20.635095    21.373168           90           90           90 
 1981000    243.26586   -131.89168     -104.755   -131.89168            0   -2343.4234    17.472152    20.579886    21.315984            0            0            0     7664.693   -1139.1067   -3964.7471   -1926.4166    -1825.925   -1560.7052   -1218.7079    17.472152    20.579886    21.315984           90           90           90 
 1981500    243.59185   -133.29352   -106.12048   -133.29352            0     2038.256    17.512563    20.627485    21.365286            0            0            0    7717.9988    4157.9443    932.77149    1024.0524   -202.02058   -271.24187   -1577.4532    17.512563    20.627485    21.365286           90           90           90 
 1982000    251.82845   -133.07736   -104.98552   -133.07736            0    3447.8994    17.518211    20.634137    21.372176            0            0            0    7725.4681    1604.8544    5079.7419    3659.1019    2363.5325    2310.2618   -2632.5028    17.518211    20.634137    21.372176           90           90           90 
 1982500    236.24145   -133.13005   -106.77696   -133.13005            0   -1910.2813    17.662317    20.803876    21.547986            0            0            0    7917.6923   -3225.7871   -1411.9298    -1093.127    940.40468   -1067.3175   -1431.3512    17.662317    20.803876    21.547986           90           90           90 
 1983000    248.13998   -133.20078   -105.52039   -133.20078            0    5465.4527    17.581653    20.708864    21.449575            0            0            0    7809.7059    8782.7585    3052.2914    4561.3083   -1555.1197    339.58221   -460.89746    17.581653    20.708864    21.449575           90           90           90 
 1983500    236.18294   -132.05819   -105.71163   -132.05819            0    3294.3694    17.621551    20.755859    21.498251            0            0            0    7862.9947   -190.35542    5726.6287     4346.835   -967.64585   -664.60807   -2360.7792    17.621551    20.755859    21.498251           90           90           90 
 1984000    234.04454   -132.12526   -106.01723   -132.12526            0    1612.2925    17.550328    20.671967    21.411359            0            0            0     7768.037    1510.1211    2453.8649     872.8914   -2092.5982   -1193.5668   -222.75714    17.550328    20.671967    21.411359           90           90           90 
 1984500    250.05742   -131.92598    -104.0317   -131.92598            0    5772.6084    17.491875    20.603118    21.340047            0            0            0     7690.679    4504.5308    7558.3064    5254.9882   -1755.6986    319.84058    1145.4646    17.491875    20.603118    21.340047           90           90           90 
 1985000    252.70241   -132.27486   -104.08552   -132.27486            0    213.35191    17.624898    20.759801    21.502334            0            0            0    7867.4755   -2666.9256    2834.1986    472.78276    1116.4936    1649.5938    858.20713    17.624898    20.759801    21.502334           90           90           90 
 1985500    245.60078   -131.63397   -104.23683   -131.63397            0   -1030.0998    17.646795    20.785593    21.529049            0            0            0    7896.8357   -303.45835   -425.97493   -2360.8661    -1844.172   -377.66951     31.00711    17.646795    20.785593    21.529049           90           90           90 
 1986000    241.85457   -133.31454    -106.3353   -133.31454            0   -1250.2378    17.588129    20.716492    21.457476            0            0            0    7818.3388    1537.9722   -3626.0339   -1662.6517     358.9607    1126.0817    827.34332    17.588129    20.716492    21.457476           90           90           90 
 1986500     243.5922   -131.88914   -104.71606   -131.88914            0    1158.3363    17.585564    20.713471    21.454346            0            0            0    7814.9186    985.14408    208.15287    2281.7118    311.05436   -521.82754   -2813.8105    17.585564    20.713471    21.454346           90           90           90 
 1987000    237.48243   -131.21035   -104.71883   -131.21035            0    1072.4778    17.584958    20.712756    21.453607            0            0            0    7814.1103    1584.5565   -89.463263    1722.3403    99.811064    370.62005     1862.847    17.584958    20.712756    21.453607           90           90           90 
 1987500    231.05897   -132.48925   -106.71427   -132.48925            0    4969.8933     17.53907    20.658707    21.397624            0            0            0    7753.0977    6243.3623    5095.9653    3570.3522   -942.89725    1571.4627    2238.9387     17.53907    20.658707    21.397624           90           90           90 
 1988000    256.90162   -130.98889   -102.33113   -130.98889            0    19.136465     17.62498    20.759897    21.502433            0            0            0    7867.5848   -239.47043    131.28287    165.59695   -476.40151   -808.53962   -1397.5328     17.62498    20.759897    21.502433           90           90           90 
 1988500      246.177    -130.3651   -102.90368    -130.3651            0    3841.4297    17.554908    20.677362    21.416947            0            0            0    7774.1202    7000.5512    2055.9727    2467.7653    61.329863    1566.4045   -806.58172    17.554908    20.677362    21.416947           90           90           90 
 1989000    236.43153   -132.49099    -106.1167   -132.49099            0     581.3656    17.588585    20.717029    21.458033            0            0            0    7818.9474    3115.8165   -1769.6989    397.97918   -377.34778    1224.6805    281.64283    17.588585    20.717029    21.458033           90           90           90 
 1989500    223.69048   -131.08838   -106.13537   -131.08838            0   -640.10847    17.635634    20.772447    21.515432            0            0            0    7881.8616   -1078.2439    33.284774    -875.3663    3205.5322    1727.6835   -1502.2563    17.635634    20.772447    21.515432           90           90           90 
 1990000    234.75668   -132.04713   -105.85967   -132.04713            0    3829.2012    17.559873    20.683209    21.423003            0            0            0    7780.7173    7621.1182   -411.62568    4278.1111    1385.1301    1815.5084    794.43674    17.559873    20.683209    21.423003           90           90           90 
 1990500     241.0368   -132.94895   -106.06093   -132.94895            0    2216.3336    17.523684    20.640584    21.378853            0            0            0    7732.7111    2343.7473    309.78862     3995.465   -356.49112   -943.60938    623.51299    17.523684    20.640584    21.378853           90           90           90 
 1991000    220.10627   -133.68046   -109.12728   -133.68046            0    3414.7669    17.509385    20.623742    21.361409            0            0            0    7713.7981     3985.542    5747.0298    511.72909    383.80346   -257.46896   -2223.8269    17.509385    20.623742    21.361409           90           90           90 
 1991500    246.10581   -132.92702   -105.47355   -132.92702            0    3241.7941    17.516668     20.63232    21.370293            0            0            0    7723.4268    5082.9908    905.79233    3736.5992    1362.8032   -550.09823    10.233239    17.516668     20.63232    21.370293           90           90           90 
 1992000    231.90355   -132.95309    -107.0839   -132.95309            0    3734.5269    17.566622     20.69116    21.431238            0            0            0    7789.6933     1671.091    4782.3618    4750.1278   -1187.5771    1945.2372   -1500.9663    17.566622     20.69116    21.431238           90           90           90 
 1992500    235.09978   -132.95887   -106.73314   -132.95887            0     2027.437     17.57703    20.703418    21.443935            0            0            0    7803.5464     1122.839    2861.4719    2098.0002    1961.7877    1116.5255   -1004.7371     17.57703    20.703418    21.443935           90           90           90 
 1993000    238.11871   -133.13351   -106.57101   -133.13351            0    334.25532    17.584409    20.712111    21.452938            0            0            0    7813.3796    2051.5847   -922.79023   -126.02846    1852.9889   -3035.1978     287.8759    17.584409    20.712111    21.452938           90           90           90 
 1993500    243.89495   -134.08138   -106.87453   -134.08138            0    2905.8655    17.519918    20.636148    21.374258            0            0            0    7727.7264    4063.0082   -2452.0296    7106.6181   -1354.1562    1325.1853    -813.6193    17.519918    20.636148    21.374258           90           90           90 
 1994000    233.06171   -132.90465   -106.90627   -132.90465            0    2326.0576     17.57178    20.697235     21.43753            0            0            0    7796.5568     237.6001    5908.9209    831.65174    725.76156    2061.2516    290.43589     17.57178    20.697235     21.43753           90           90           90 
 1994500    233.27107   -132.92633   -106.90459   -132.92633            0    2775.4131    17.558769     20.68191    21.421657            0            0            0    7779.2511    3298.6648    3943.7054    1083.8691   -462.39727    641.23685   -184.86035    17.558769     20.68191    21.421657           90           90           90 
 1995000    229.35991   -133.20966   -107.62422   -133.20966            0    3614.2868    17.552757    20.674829    21.414322            0            0            0     7771.263    1438.2144    5863.4648    3541.1812     1361.158   -1244.8075   -3131.0676    17.552757    20.674829    21.414322           90           90           90 
 1995500    242.99369   -135.02718   -107.92086   -135.02718            0    899.07919    17.564605    20.688783    21.428776            0            0            0    7787.0094    419.50684    2699.8539   -422.12321   -1247.7671     1301.987   -20.178759    17.564605    20.688783    21.428776           90           90           90 
 1996000    240.08695   -133.81972   -107.03766   -133.81972            0    4285.0138    17.536499    20.655679    21.394488            0            0            0    7749.6888    4708.5946    4540.5884    3605.8583   -547.99016    1885.1426    3772.3801    17.536499    20.655679    21.394488           90           90           90 
 1996500    242.37542   -132.91714    -105.8798   -132.91714            0    2600.6929    17.590257    20.718998    21.460072            0            0            0    7821.1768     4254.784    2499.2457     1048.049    1216.8673   -1746.8192   -3164.4353    17.590257    20.718998    21.460072           90           90           90 
 1997000    247.21938    -134.1128    -106.5351    -134.1128            0    178.96066    17.557026    20.679857     21.41953            0            0            0    7776.9343    3373.4582   -571.79397   -2264.7822    1405.2928    105.11689    -1673.233    17.557026    20.679857     21.41953           90           90           90 
 1997500    235.78741   -132.65355   -106.35111   -132.65355            0    2965.1748    17.565988    20.690413    21.430464            0            0            0    7788.8498    287.02797    664.52173    7943.9748   -1201.5683    -942.6719   -606.74498    17.565988    20.690413    21.430464           90           90           90 
 1998000    226.04281    -132.9454   -107.72999    -132.9454            0    2212.5862    17.608476    20.740458    21.482299            0            0            0    7845.5042   -737.71336    2981.6751    4393.7969    605.75195    2257.8808    1411.6629    17.608476    20.740458    21.482299           90           90           90 
 1998500     234.8608   -133.73746   -107.53838   -133.73746            0    2151.8584    17.601269    20.731969    21.473507            0            0            0    7835.8754    3537.7998    3922.1432   -1004.3677    217.54477     -383.151    1205.4882    17.601269    20.731969    21.473507           90           90           90 
 1999000    239.15265   -134.36642   -107.68858   -134.36642            0      3044.35    17.495043    20.606849    21.343911            0            0            0    7694.8583     3222.497     3424.145    2486.4081    1104.8867   -1714.1453    2187.8452    17.495043    20.606849    21.343911           90           90           90 
 1999500    232.66813    -132.1812   -106.22672    -132.1812            0    1282.3168    17.565968    20.690389    21.430439            0            0            0    7788.8226    1598.9991   -2442.2597     4690.211    1600.5745    -701.2177   -233.23828    17.565968    20.690389    21.430439           90           90           90 
 2000000    239.82539   -132.63273   -105.87985   -132.63273            0    1081.7353    17.494867    20.606641    21.343696            0            0            0    7694.6252    2595.3683   -897.20329     1547.041    2021.5454   -383.87595    1963.3893    17.494867    20.606641    21.343696           90           90           90 
Loop time of 10988.1 on 1 procs for 2000000 steps with 864 atoms

Performance: 7.863 ns/day, 3.052 hours/ns, 182.015 timesteps/s
73.9% CPU use with 1 MPI tasks x 1 OpenMP threads

MPI task timing breakdown:
Section |  min time  |  avg time  |  max time  |%varavg| %total
---------------------------------------------------------------
Pair    | 9540.9     | 9540.9     | 9540.9     |   0.0 | 86.83
Bond    | 0.33226    | 0.33226    | 0.33226    |   0.0 |  0.00
Neigh   | 1320.2     | 1320.2     | 1320.2     |   0.0 | 12.02
Comm    | 45.26      | 45.26      | 45.26      |   0.0 |  0.41
Output  | 9.8108     | 9.8108     | 9.8108     |   0.0 |  0.09
Modify  | 62.593     | 62.593     | 62.593     |   0.0 |  0.57
Other   |            | 8.938      |            |       |  0.08

Nlocal:        864.000 ave         864 max         864 min
Histogram: 1 0 0 0 0 0 0 0 0 0
Nghost:        4225.00 ave        4225 max        4225 min
Histogram: 1 0 0 0 0 0 0 0 0 0
Neighs:         0.00000 ave           0 max           0 min
Histogram: 1 0 0 0 0 0 0 0 0 0
FullNghs:      208064.0 ave      208064 max      208064 min
Histogram: 1 0 0 0 0 0 0 0 0 0

Total # of neighbors = 208064
Ave neighs/atom = 240.81481
Ave special neighs/atom = 0.0000000
Neighbor list builds = 200000
Dangerous builds not checked

unfix		3
unfix		2

write_data	data.final.${pid}
write_data	data.final.0
System init for write_data ...

write_restart   restart.lmp.${pid}
write_restart   restart.lmp.0
System init for write_restart ...
Unloading pair style deepmd
Unloading compute style deepmd
Unloading fix style deepmd
Total wall time: 3:03:26
