LAMMPS data file via write_data, version 29 Sep 2021, timestep = 400000

1920 atoms
2 atom types

-0.0886400582006246 24.813045058201283 xlo xhi
-0.1651970362759947 24.88960203627498 ylo yhi
0.03320877467544392 22.759163225323753 zlo zhi

Masses

1 1.008
2 15.999

Atoms # full

4 0 1 0 3.0113257657173866 1.2597713650096445 2.1450192174056117 0 0 0
5 0 2 0 3.2033527215422875 1.46347825714391 3.0818718500594087 0 0 0
6 0 2 0 3.169600425258307 2.0899177769202044 1.656672655692247 0 0 0
17 0 2 0 1.0929840729418903 1.7288395635437792 2.160748832344363 0 0 0
387 0 2 0 4.012899481460565 0.05976098823562745 1.151473863580042 0 1 0
11 0 2 0 2.6941129879421717 3.546703397837669 3.8698860141893685 0 0 0
16 0 1 0 0.09870017673914971 1.753473019954735 2.100613781196028 0 0 0
99 0 2 0 0.09525555625710455 3.620850850435928 3.9289384243243948 1 0 0
19 0 1 0 4.454875338241335 3.142163514941012 0.6909879092550193 0 0 0
2 0 2 0 5.264063493860543 1.641357014295264 3.594996972291697 0 0 0
46 0 1 0 6.386846405103236 1.2438477743070158 2.1427127539239565 0 0 0
47 0 2 0 7.3687774173638925 1.4138011579462813 1.9382461753911477 0 0 0
48 0 2 0 5.9896335359240815 1.9172004814150387 1.5504773630442896 0 0 0
1 0 1 0 4.6683735254796135 1.708467031278567 4.37073981326138 0 0 0
386 0 2 0 5.495735722782283 -0.042929981268455694 1.1543104414016994 0 1 0
54 0 2 0 8.046500601383553 3.8791374122818416 0.7610874554016094 0 0 0
45 0 2 0 6.699442895830079 3.074250208569518 4.276994153340223 0 0 0
32 0 2 0 11.518805603919303 1.479860593659909 3.5147097774057316 0 0 0
34 0 1 0 9.059870990009262 1.2550450027619109 1.7558069278531323 0 0 0
35 0 2 0 9.374760223082275 1.3136099592794928 2.674873421834592 0 0 0
36 0 2 0 9.502586422094023 1.847050828378125 1.1908254490984553 0 0 0
49 0 1 0 10.658121437715925 3.2076240339006175 0.7084768560297872 0 0 0
51 0 2 0 11.454946106699303 2.959340944874429 1.2382089029247674 0 0 0
31 0 1 0 10.724827186161045 1.4876342445413118 4.128941407468374 0 0 0
416 0 2 0 10.12450421888803 -0.07489428916684364 1.2179146602606548 0 1 0
42 0 2 0 8.87021909924246 3.762181021355223 3.87704861934491 0 0 0
78 0 2 0 12.082518799292956 0.7967744878687023 1.417888476640328 0 0 0
76 0 1 0 12.315635135315114 1.6364340753202986 1.9290172677438064 0 0 0
38 0 2 0 12.409948003921897 3.5153889420248814 3.900529690691368 0 0 0
64 0 1 0 15.268637794130457 1.3741943355468917 2.2084957377572225 0 0 0
65 0 2 0 15.78236397891567 1.1194708711524615 3.0301819347006105 0 0 0
66 0 2 0 15.508873751736498 0.6313892152034528 1.6721954359298337 0 0 0
77 0 2 0 13.177886515873503 1.3647886549263961 2.2872954370986287 0 0 0
80 0 2 0 16.427765641868387 2.6006767522865615 1.2781829193605783 0 0 0
75 0 2 0 14.49284101627404 3.092659928616579 4.412404729115237 0 0 0
1514 0 2 0 13.94861269038263 3.0910930791900357 0.11780796827770842 0 0 1
62 0 2 0 17.953429729675303 1.4326843433588674 3.9872815429455097 0 0 0
79 0 1 0 17.189941752469544 2.8589275973419315 0.7143445191456972 0 0 0
106 0 1 0 18.800272351517656 1.0235544827547252 1.9891874273345895 0 0 0
107 0 2 0 19.75984210572045 1.0734018754224282 2.033578773162593 0 0 0
108 0 2 0 18.587156608367774 1.8394451462994938 1.5054031238619485 0 0 0
61 0 1 0 17.024185381388264 1.3604088788184996 4.242137579752265 0 0 0
68 0 2 0 18.907629255450132 3.9314957913871176 3.861203831174958 0 0 0
18 0 2 0 24.711528365700044 1.0089274620604873 1.5453494295006283 -1 0 0
92 0 2 0 23.95086761101971 1.1238711138851618 3.582181366688301 0 0 0
94 0 1 0 21.376077482730157 1.0746579717564761 2.170282511966666 0 0 0
95 0 2 0 22.04023898359453 1.1491999271330977 2.9153646041026966 0 0 0
96 0 2 0 21.506814830148254 1.9162993109965765 1.7037665568350564 0 0 0
109 0 1 0 22.872450519446897 2.886067767193425 0.8376736322927772 0 0 0
110 0 2 0 23.750407060047753 2.743438152654516 1.2492016104033452 0 0 0
91 0 1 0 23.125598864486932 1.1700035700999165 4.125026888267229 0 0 0
111 0 2 0 22.936525123585508 3.8543784974575264 0.6706992410794226 0 0 0
476 0 2 0 22.72088026391113 -0.002991707745409189 1.182196318557278 0 1 0
105 0 2 0 20.75394837488736 3.006255699251912 4.2468540466735165 0 0 0
93 0 2 0 23.113021243997178 0.3103599605564307 4.558264215900162 0 0 0
24 0 2 0 1.9697213508843152 4.444745912061481 1.7364170691057559 0 0 0
22 0 1 0 1.1680689563574715 4.297108886240435 1.223405719495755 0 0 0
10 0 1 0 2.9832345296767184 4.2416227340858805 3.2904214889086574 0 0 0
23 0 2 0 1.0321385379558279 5.03383524195086 0.6147237878201869 0 0 0
126 0 2 0 1.768815005131691 7.613320759347789 2.3119408400722232 0 0 0
124 0 1 0 2.7676575941234467 7.545659063616252 2.284368526056087 0 0 0
122 0 2 0 3.8472531674884856 7.775182313991948 3.5560286636709955 0 0 0
27 0 2 0 3.8988740346231494 6.073462548940145 1.3424732327608706 0 0 0
136 0 1 0 0.16098906391395174 7.8003714116244165 2.1679170335215647 0 0 0
12 0 2 0 3.9748673698463337 4.213866846474856 3.3225294842038275 0 0 0
125 0 2 0 3.078525997035344 8.090500980171365 1.5560460101376727 0 0 0
149 0 2 0 2.2646130701710154 5.87972054793458 4.056672125403952 0 0 0
150 0 2 0 0.7730404056645076 5.71237167473166 4.331808694298257 0 0 0
148 0 1 0 1.5492429660319442 6.254613545752116 4.553640876655277 0 0 0
21 0 2 0 4.489866323608117 4.050188877980112 0.4292703151013499 0 0 0
7 0 1 0 5.8841841827805315 4.421707316105526 3.4055418426126507 0 0 0
25 0 1 0 4.7266738152618855 5.766539612411499 0.9349649933691848 0 0 0
8 0 2 0 6.270142848743172 4.526134456040995 2.4612317092312748 0 0 0
9 0 2 0 6.37237040158708 5.107158324301919 3.8436502319299133 0 0 0
52 0 1 0 8.04923179254856 4.8078456468580715 1.0692581092032711 0 0 0
166 0 1 0 6.388367647138458 7.788968221498814 2.2606844024815933 0 0 0
168 0 2 0 6.032961189481184 6.893931395699351 2.050618713837162 0 0 0
167 0 2 0 5.9618283097796825 7.938684249095811 3.1434235945477322 0 0 0
121 0 1 0 4.546892023597694 7.746888108765118 4.279093301624274 0 0 0
26 0 2 0 4.972216343379377 6.490023205006404 0.3541638953284393 0 0 0
156 0 2 0 8.287566244605797 7.6785870828460885 2.5234631351966104 0 0 0
50 0 2 0 10.737434913467162 4.0980333148665204 0.3893257977523685 0 0 0
53 0 2 0 8.44428324575028 4.731568348842598 2.001909122983311 0 0 0
41 0 2 0 10.289286941722448 4.239395916558525 3.445346854194366 0 0 0
40 0 1 0 9.35906404332028 4.526369297007474 3.5417541612150694 0 0 0
55 0 1 0 10.946918283949826 6.0197369705405075 0.42306228574090105 0 0 0
56 0 2 0 10.03326233423762 5.949584182336667 0.6643674037945072 0 0 0
57 0 2 0 11.50168028705144 6.240346140940691 1.1956768725409834 0 0 0
153 0 2 0 11.596278237532752 7.806003122346159 3.7122349986034786 0 0 0
154 0 1 0 9.215014579612296 7.464529930285676 2.3605911837469753 0 0 0
152 0 2 0 10.072161848402342 7.6980462529168605 3.840921301078156 0 0 0
37 0 1 0 12.016809376112278 4.140056730564113 3.310755136179141 0 0 0
151 0 1 0 10.906335831733209 7.8217240280073135 4.424154155215538 0 0 0
180 0 2 0 8.593712077943279 5.76050778255307 4.2812836900552025 0 0 0
39 0 2 0 12.298309108809471 5.022003614787446 3.6256891474061677 0 0 0
155 0 2 0 9.45532069998476 8.047512018675038 1.6811583501999674 0 0 0
196 0 1 0 12.383077216027953 7.442368206109551 2.2019374165115764 0 0 0
72 0 2 0 15.273845494519833 4.349595535883236 2.732435452587278 0 0 0
83 0 2 0 13.349104682754064 4.462838577779482 1.8997978313639787 0 0 0
70 0 1 0 15.727593483702153 4.353231018639405 3.590007379890095 0 0 0
82 0 1 0 14.09894835872737 4.418676213196122 1.2921581344969988 0 0 0
84 0 2 0 13.972129117955673 5.198220450460506 0.7400959350340562 0 0 0
184 0 1 0 15.290975877235894 7.546230434652312 1.9852451955415387 0 0 0
198 0 2 0 13.374136937584069 7.484293319604518 2.146828516886126 0 0 0
71 0 2 0 15.268301014460567 5.1743353755764945 3.9416889601112772 0 0 0
186 0 2 0 15.74921413827308 7.745519343367388 2.8008400510262175 0 0 0
86 0 2 0 16.308522066803057 6.094002910688095 1.2181056022051506 0 0 0
210 0 2 0 13.722366211034542 6.916418427329967 4.547672630580401 0 0 0
208 0 1 0 13.777528505888766 5.939564931775227 4.435051698581798 0 0 0
87 0 2 0 17.06604300903784 4.838299079710031 0.7138552805507559 0 0 0
112 0 1 0 19.970983536835146 4.253691787273919 1.3987366005351678 0 0 0
85 0 1 0 16.99135925433369 5.79381829433087 0.5784230869141438 0 0 0
113 0 2 0 19.21622167204051 4.586282110403933 1.967290463538514 0 0 0
67 0 1 0 18.441533564771067 4.720015709339117 3.4968005045698596 0 0 0
69 0 2 0 17.45386375061402 4.586460838557375 3.5404382567302806 0 0 0
226 0 1 0 18.81693729989068 7.5232742307021745 1.929653037751191 0 0 0
228 0 2 0 18.42997066289861 6.804871005948809 1.4092173822907128 0 0 0
183 0 2 0 17.76753560829458 7.717882919442094 3.395120015118005 0 0 0
181 0 1 0 16.992466357612034 7.603590799362198 4.051377311592279 0 0 0
240 0 2 0 19.556600547974373 5.903618506500386 4.367638707439626 0 0 0
216 0 2 0 20.679874141121804 7.459808008946927 2.1967725149270234 0 0 0
98 0 2 0 24.758463762507226 4.571472979240242 2.7542857932711717 0 0 0
114 0 2 0 20.68272918794796 4.326093751529593 2.0426997589819225 0 0 0
138 0 2 0 24.710661067734673 7.001468117426522 1.79921847325981 -1 0 0
137 0 2 0 24.563918943089675 7.946536764603135 3.019244350666992 -1 0 0
97 0 1 0 24.577829097996904 4.487811354287062 3.6902613921897247 0 0 0
102 0 2 0 22.795140604330303 4.42679817203537 3.4242148240282044 0 0 0
100 0 1 0 21.812862004786588 4.436748676936198 3.3832132385608187 0 0 0
115 0 1 0 23.490282087915052 5.635695169108662 0.835004612834466 0 0 0
116 0 2 0 22.817289258928735 6.040378091218534 1.3629736531072743 0 0 0
213 0 2 0 22.642061832715303 7.615134377730332 3.688436122208337 0 0 0
101 0 2 0 21.51265457128528 5.183898847271451 3.957099148948809 0 0 0
211 0 1 0 23.366388840360163 7.527139231792635 4.288185002748033 0 0 0
214 0 1 0 21.629056846688307 7.5285385173598565 2.189809159285208 0 0 0
130 0 1 0 2.9979304048325974 10.646559016147181 3.5282819964539933 0 0 0
132 0 2 0 2.756899970126026 11.472767486921253 3.9118640587806084 0 0 0
142 0 1 0 1.360466369965583 10.88409559957701 1.2939838243133979 0 0 0
143 0 2 0 2.1163527293467546 10.914500879776773 1.9080787306112046 0 0 0
144 0 2 0 1.5194296794086828 10.075323842347741 0.7688854232154898 0 0 0
135 0 2 0 2.1194788125254536 9.304846628817874 4.495698513752222 0 0 0
131 0 2 0 3.9841498677019267 10.669251444654636 3.5298653651306258 0 0 0
218 0 2 0 0.27248129608695054 10.011940876542331 3.8349378352791366 1 0 0
269 0 2 0 0.5926881730094922 12.205830658696273 4.256633033188325 0 0 0
141 0 2 0 4.248325810279162 9.89815617718556 0.6832484680046681 0 0 0
127 0 1 0 5.75278985861187 10.86642733820198 3.8757981415659013 0 0 0
129 0 2 0 6.3207212413929135 10.85085342966044 3.070972068939872 0 0 0
139 0 1 0 4.482297991487109 8.938466344384864 0.6491481826355266 0 0 0
140 0 2 0 5.3046125054163165 8.811787188511923 1.079527636083494 0 0 0
172 0 1 0 7.541320868116413 10.935343488748503 1.54667479390661 0 0 0
173 0 2 0 7.598614664697388 10.154108747813062 0.8873532314839369 0 0 0
128 0 2 0 6.242006571007481 10.277411910586185 4.501454844861908 0 0 0
145 0 1 0 4.55967677058219 11.877483063843473 0.9894499198569023 0 0 0
147 0 2 0 5.40691922893534 12.06092054463985 1.4291411847026554 0 0 0
146 0 2 0 4.667895121951971 12.304554849608763 0.1297287831831524 0 0 0
174 0 2 0 8.351355480891131 10.968165134539086 2.049707812755559 0 0 0
197 0 2 0 12.039519310387584 8.205812173697097 1.699151024224787 0 0 0
160 0 1 0 9.502081949851807 10.781817278038801 3.5998169253900407 0 0 0
161 0 2 0 10.446064841226917 10.890917816684103 3.7818291651466787 0 0 0
169 0 1 0 10.783125127875902 9.516139086638866 1.1769020770389262 0 0 0
171 0 2 0 11.088653367847721 10.433778202722472 1.155539945007911 0 0 0
162 0 2 0 9.156924320763432 11.552696118725171 4.067991652480933 0 0 0
157 0 1 0 12.100941922122589 10.9992551877603 3.868151319373715 0 0 0
175 0 1 0 11.128749956125452 12.11507170311719 0.9824093352951769 0 0 0
165 0 2 0 8.509477521493736 9.513864169226045 4.342416878337848 0 0 0
170 0 2 0 10.828772960605843 9.234128295657626 0.24288417447237462 0 0 0
159 0 2 0 12.547520053990194 10.94248092562181 3.0268544901756815 0 0 0
185 0 2 0 15.517619399704257 8.299891725331117 1.473048135970364 0 0 0
158 0 2 0 12.414129888720073 10.19029920593934 4.323241058049747 0 0 0
190 0 1 0 15.482714290943587 10.828843293505267 3.6209499624875514 0 0 0
192 0 2 0 15.002329425343293 10.73584498183536 2.7730683832484995 0 0 0
202 0 1 0 13.54929487626585 10.707875429068341 1.566787618666646 0 0 0
203 0 2 0 13.697854686200222 11.440413439619737 0.9438317713702616 0 0 0
204 0 2 0 13.553530741368823 9.925390730020435 0.9901060893798281 0 0 0
194 0 2 0 14.49434382984859 9.354842734265219 4.455152708009425 0 0 0
191 0 2 0 16.427187729441524 10.812764534221662 3.345398123389661 0 0 0
227 0 2 0 18.529756531348824 8.213914546849015 1.3489701068431208 0 0 0
200 0 2 0 17.22049779312392 10.174003540689009 0.6092858667019352 0 0 0
187 0 1 0 18.320584068447975 10.690335308846228 3.578305118260033 0 0 0
189 0 2 0 18.71719662751902 10.485915578777348 2.7288466295663913 0 0 0
199 0 1 0 17.228515530096203 9.172026155656784 0.6322016454256921 0 0 0
232 0 1 0 20.03596686502076 10.721785504798817 1.3810019867213377 0 0 0
188 0 2 0 18.690432230874833 10.016904758082475 4.1512097157355035 0 0 0
234 0 2 0 20.312525513753247 10.139094013961152 0.654008296539204 0 0 0
205 0 1 0 16.977649733988805 11.922545080826621 0.8891656158100201 0 0 0
207 0 2 0 17.803369876934326 12.091430398987207 1.4439398359997193 0 0 0
219 0 2 0 24.582355077076063 10.670805929189614 2.6383576057057367 0 0 0
233 0 2 0 20.793911639591187 10.854993648745072 1.976114852431493 0 0 0
215 0 2 0 21.81575649873764 8.345119593210903 1.7576227643964324 0 0 0
217 0 1 0 24.46012240899821 10.567833102586501 3.593972635648281 0 0 0
220 0 1 0 21.716908595618044 10.428801873137894 3.7493474086550904 0 0 0
221 0 2 0 22.682728993944703 10.414683788686816 3.912971239416671 0 0 0
229 0 1 0 23.090187663711845 9.335262607221543 0.5283477061775133 0 0 0
230 0 2 0 23.736659896750194 8.834416360156224 1.0686350220148413 0 0 0
231 0 2 0 23.393454867185163 10.261570769321464 0.5577064781810119 0 0 0
222 0 2 0 21.283356290085425 11.250684755846928 4.118014964631551 0 0 0
235 0 1 0 23.54856449696119 12.018432957805505 0.8600178184071297 0 0 0
244 0 1 0 2.867447629853473 13.985618587564172 2.2900790675808556 0 0 0
245 0 2 0 1.841509114450527 13.940890216924661 2.158179145432264 0 0 0
246 0 2 0 3.2122293981699435 13.17025092696674 1.8374765253897325 0 0 0
251 0 2 0 2.9779108062616895 16.04742139599324 4.099991574614718 0 0 0
242 0 2 0 3.9929400239466863 13.94989019640945 3.952452628476905 0 0 0
256 0 1 0 0.2004318967702221 13.98590428488054 1.932699051525191 0 0 0
260 0 2 0 3.9838909676361745 15.18613288969607 1.3131998269768075 0 0 0
1694 0 2 0 1.8256374331637535 15.528983153883923 0.04337283079836194 0 0 1
259 0 1 0 4.521757677226317 15.707436868098506 0.6576824719549819 0 0 0
286 0 1 0 6.406333265090096 13.967485953950991 1.9324893312316958 0 0 0
287 0 2 0 6.085870399347112 14.179545531340287 2.8238769477746377 0 0 0
288 0 2 0 5.988441959207211 14.64335601527999 1.3458128012419588 0 0 0
241 0 1 0 4.823779977821026 14.106243126861582 4.39925464300441 0 0 0
1725 0 2 0 8.10511478401879 15.994475388962325 0.45053195298472143 0 0 1
1740 0 2 0 7.688878430493528 12.394218269284607 0.27171876507341175 0 0 1
177 0 2 0 11.238558887598654 12.452244788149397 0.0679077789249992 0 0 0
276 0 2 0 8.241149470049665 14.247505393376354 2.1532214781558285 0 0 0
176 0 2 0 10.430685635312821 12.619157268584534 1.407024028593348 0 0 0
272 0 2 0 11.596894423903573 14.190824818857141 3.865131573402894 0 0 0
274 0 1 0 9.189738011733716 14.05378428237516 2.1068274228703983 0 0 0
275 0 2 0 9.554390240651356 14.195861189085432 3.0222598492918253 0 0 0
289 0 1 0 10.968697798088645 15.850176025526427 1.1234603418848474 0 0 0
291 0 2 0 10.162982571563706 15.363145265456849 1.3765164155175424 0 0 0
271 0 1 0 10.888807298618074 14.287536848797545 4.571392533221493 0 0 0
317 0 2 0 12.375721753691751 14.8886744235502 1.9249687563769449 0 0 0
318 0 2 0 12.598212145624151 13.352166991655732 1.9223932599875106 0 0 0
316 0 1 0 12.81766098068444 14.15969978585315 2.3987255360587034 0 0 0
304 0 1 0 15.489518616256461 14.05001295468471 2.1008341374195334 0 0 0
305 0 2 0 14.502169825677024 14.292999655562115 2.1705821502926606 0 0 0
306 0 2 0 15.443967446371367 13.227451126181819 1.5810994052107112 0 0 0
311 0 2 0 15.306727758809142 16.392540212718913 4.268359916045179 0 0 0
1754 0 2 0 13.652266408010702 16.034419494763917 0.1682081709366613 0 0 1
320 0 2 0 16.625522212968992 15.201695173854716 1.2652081053875166 0 0 0
302 0 2 0 16.553365542701275 13.699871343510273 3.755326151249896 0 0 0
319 0 1 0 17.44382266465502 15.470221604886845 0.7432261315759062 0 0 0
346 0 1 0 19.069658674163467 13.704137717348262 2.114692259460867 0 0 0
347 0 2 0 18.67727393181258 14.41674433963517 1.5217349849418789 0 0 0
348 0 2 0 18.652850976574094 13.926203821997985 2.9530700478720515 0 0 0
301 0 1 0 17.30776424183927 13.817098280116538 4.381345862142589 0 0 0
309 0 2 0 18.744993699974522 16.35501453427525 4.271922292799384 0 0 0
321 0 2 0 17.46987462067213 16.472387194861458 0.7500749994270314 0 0 0
206 0 2 0 17.118276921572352 12.428563047933611 0.0783779809330474 0 0 0
1784 0 2 0 20.740345285897316 15.4221621663384 0.2466326583125921 0 0 1
335 0 2 0 20.80580478314908 13.73151398802685 2.0075938375921387 0 0 0
237 0 2 0 22.79696541064381 12.379279924318524 1.387618416093334 0 0 0
257 0 2 0 24.657964692609642 13.932965994125762 2.7905664080548567 -1 0 0
258 0 2 0 24.731330662949855 13.242363117430106 1.4533109214886382 -1 0 0
332 0 2 0 22.583857718711222 13.700183155012471 3.658426287399378 0 0 0
334 0 1 0 21.759006513270887 13.619902082080873 2.0609471968542583 0 0 0
336 0 2 0 22.254253576480778 14.415307168359984 1.8088379750748433 0 0 0
349 0 1 0 23.300467822117024 15.723492667731161 0.8891565043700951 0 0 0
350 0 2 0 24.08306630762567 15.32181932027907 1.3692323303603435 0 0 0
331 0 1 0 23.299677795398726 13.646877732779343 4.298066897317447 0 0 0
340 0 1 0 22.04902878286883 16.50672461183897 3.948742825199227 0 0 0
236 0 2 0 23.371930099982258 12.575793758824032 0.07097888838441632 0 0 0
264 0 2 0 0.9808674648616642 17.0106183215614 2.0149628050363946 0 0 0
263 0 2 0 2.458017516593391 16.708737939896526 2.0595132802633045 0 0 0
250 0 1 0 3.2723402875498158 16.87011288074765 3.626585288045786 0 0 0
262 0 1 0 1.7499535424351955 17.024170410695554 1.4621176316058102 0 0 0
364 0 1 0 3.08927443652362 20.363630265785098 2.3069716814240695 0 0 0
366 0 2 0 2.115713369574043 20.337795462188136 2.2019784523118306 0 0 0
267 0 2 0 3.8261395282167885 18.795798741750907 1.4532080961551799 0 0 0
390 0 2 0 2.29428589621763 18.273210217520166 4.408658304706634 0 0 0
338 0 2 0 0.4534727990449966 17.569510202139544 4.184839411415838 1 0 0
376 0 1 0 0.24173518926540954 20.2389547942116 2.2191425195823054 0 0 0
1829 0 2 0 1.358767081560647 18.475745082705306 0.3405762083742822 0 0 1
337 0 1 0 0.12139885316338891 16.69128874806802 3.8395882100493934 1 0 0
248 0 2 0 6.516412249524568 16.63545585736203 4.52304525580425 0 0 0
363 0 2 0 4.207179897621728 20.414773235411555 3.621047392570988 0 0 0
252 0 2 0 4.253627934340059 16.90477885113956 3.74797261907119 0 0 0
266 0 2 0 4.690500427271252 17.63290651829821 1.0456916369953897 0 0 0
247 0 1 0 5.973228088728161 17.32519627377652 4.041580508563446 0 0 0
249 0 2 0 6.3895777855313876 17.377845498855937 3.207699653072267 0 0 0
265 0 1 0 4.7286518748391 18.548504322674166 1.2979167754182008 0 0 0
408 0 2 0 5.979252715935159 19.698753855193967 1.8529587012009792 0 0 0
406 0 1 0 6.474539430984292 20.50380585240997 2.1803299523879676 0 0 0
407 0 2 0 5.978212344062912 20.659350617434814 3.0181070045266116 0 0 0
292 0 1 0 7.61599693228767 17.228018608677438 1.7389867897270737 0 0 0
294 0 2 0 7.804463077654263 17.944240645684243 1.1204076817186963 0 0 0
361 0 1 0 4.901333535838843 20.431907164166272 4.294007647351509 0 0 0
281 0 2 0 9.336921076738768 16.711466824928817 4.3299835264255195 0 0 0
293 0 2 0 8.384949483779058 17.17471113050274 2.34022148434925 0 0 0
395 0 2 0 8.292914113562626 19.934782467133186 2.415808753008692 0 0 0
290 0 2 0 10.851870125530686 16.79554047083113 1.1875627450089745 0 0 0
278 0 2 0 11.396361825010045 17.023578860981942 3.7873811041951715 0 0 0
280 0 1 0 9.687306552872881 17.401463219286494 3.7435699144581895 0 0 0
295 0 1 0 11.12946154193851 18.536280379635365 1.122677907771286 0 0 0
296 0 2 0 10.496686799953729 18.995830087862025 1.6941105178499731 0 0 0
394 0 1 0 9.27100714532013 20.11510687071607 2.4671679339956527 0 0 0
396 0 2 0 9.6082555219924 20.274367591164836 3.4306688453477587 0 0 0
393 0 2 0 11.716682265284323 20.213616497887013 3.835820861944098 0 0 0
282 0 2 0 9.335358245521629 18.194555883140936 4.151172491960879 0 0 0
391 0 1 0 10.937595860854236 20.063083466480766 4.437605381824991 0 0 0
297 0 2 0 10.999250827709984 18.807070558641293 0.18032428427033811 0 0 0
437 0 2 0 12.500651932184827 19.698078492956846 1.8639818398328567 0 0 0
277 0 1 0 12.363804566322361 16.887015676866284 3.932560528774527 0 0 0
279 0 2 0 12.717816702201276 17.604905030347652 4.437405847804513 0 0 0
436 0 1 0 12.881976766491313 20.417333109208922 2.3948522692513676 0 0 0
323 0 2 0 13.184181253116147 16.960636414678085 2.2888628025544207 0 0 0
322 0 1 0 13.928428380850603 16.907775230754684 1.6841181548384792 0 0 0
324 0 2 0 14.630229075609313 17.11900295742576 2.2308516226437805 0 0 0
310 0 1 0 15.806979445419463 17.0126540151129 3.734586101552266 0 0 0
312 0 2 0 15.472880320646498 17.839425364946262 4.136713006198852 0 0 0
424 0 1 0 15.396582220003882 20.131382099726196 2.3303632750074286 0 0 0
425 0 2 0 14.426731053566275 20.261352038876097 2.333791182281197 0 0 0
423 0 2 0 16.48330794576092 20.311490021966623 3.7502444170113227 0 0 0
1890 0 2 0 13.875050832629162 18.402984377300815 0.15420923105826193 0 0 1
326 0 2 0 16.519998894992217 18.580693823081077 1.7568149661682433 0 0 0
352 0 1 0 20.540760845495658 17.115598598439576 1.823073352413619 0 0 0
307 0 1 0 18.56321743397009 17.17433649016106 3.7375576597881137 0 0 0
308 0 2 0 17.637514613491142 17.13950580186868 3.565791849932071 0 0 0
325 0 1 0 17.17300036461891 18.278317147066065 1.1145124976553695 0 0 0
353 0 2 0 19.666718826520267 17.054634174054463 2.2542652836370323 0 0 0
466 0 1 0 19.022358308159315 20.171757242241362 2.179264422024034 0 0 0
468 0 2 0 18.680729414598137 19.40479650452867 1.6747956522721086 0 0 0
467 0 2 0 18.35536559009086 20.325661886911348 2.865301307508805 0 0 0
354 0 2 0 20.435547853276 17.735086196847327 1.1000110465513633 0 0 0
421 0 1 0 17.312286361648322 20.326361045318958 4.2336540029992085 0 0 0
455 0 2 0 20.596834777675987 20.263952759732312 2.2431109269446194 0 0 0
480 0 2 0 19.703468146196148 18.510966951072547 4.403457336042597 0 0 0
327 0 2 0 16.905829201023124 18.622355863161186 0.26349120659995384 0 0 0
351 0 2 0 23.448764710085822 16.673678556773908 0.8137248253568439 0 0 0
378 0 2 0 24.770081029847464 20.139282032786657 3.1019325810797063 -1 0 0
339 0 2 0 24.052433486384448 16.76400639677904 4.008006543329964 0 0 0
342 0 2 0 21.648960352009638 16.70998488443422 3.0515229471839422 0 0 0
355 0 1 0 23.387727200731984 18.506687100555485 0.8063978720560481 0 0 0
356 0 2 0 24.05788556358891 18.977488906019108 1.3647370463396036 0 0 0
456 0 2 0 21.887293836804396 19.5576093364351 1.8107667801172405 0 0 0
454 0 1 0 21.575641991037298 20.262832598662943 2.319503463647498 0 0 0
341 0 2 0 21.748051985503974 17.295235596912136 4.3975675340879805 0 0 0
453 0 2 0 22.506364475703208 20.01283147592967 3.992165553645054 0 0 0
451 0 1 0 23.382593188511482 19.973720251562625 4.374763855931783 0 0 0
365 0 2 0 3.502513879148244 20.9527805378874 1.6989789545597176 0 0 0
370 0 1 0 3.4865892813834174 23.27861648564201 3.4804878761116904 0 0 0
371 0 2 0 2.756810212762616 23.44666128817373 2.791463171810536 0 0 0
382 0 1 0 1.5197939085794465 23.51953163797968 1.6163697109790716 0 0 0
383 0 2 0 1.5646094546070786 22.79974256449119 0.9716941374561956 0 0 0
384 0 2 0 1.4903415428034383 24.30282687180503 1.0401418841496366 0 0 0
372 0 2 0 3.235554719688065 23.980387585463923 4.040558040415578 0 0 0
458 0 2 0 0.12557631945345324 22.83333006887965 4.174298384967991 1 0 0
459 0 2 0 0.44547724556347434 23.493640673369573 2.7157466634519274 1 0 0
29 0 2 0 1.1445137656089506 24.736275583699097 4.293108060138771 0 -1 0
60 0 2 0 6.748172736666211 24.83742305506801 4.212295769084969 0 -1 0
385 0 1 0 4.767639811627117 24.560853446276344 0.8007522814848875 0 0 0
381 0 2 0 4.848052111934219 22.87416343614108 1.030830428227851 0 0 0
367 0 1 0 6.090689283877356 23.3563361221864 3.4190766239164425 0 0 0
368 0 2 0 5.089289560237119 23.283345906170588 3.450295727513506 0 0 0
379 0 1 0 4.9403340425066276 21.948776506600527 0.7617564996074258 0 0 0
380 0 2 0 5.631935371864718 21.54068266957048 1.314188061310355 0 0 0
412 0 1 0 8.077122025819856 23.14484935811439 1.3818436669143648 0 0 0
413 0 2 0 7.939280658934917 23.950422586616 0.8480204729159846 0 0 0
414 0 2 0 7.2227408848864485 22.97895094301317 1.8715275653051333 0 0 0
369 0 2 0 6.42026562380059 22.66887226163698 4.007283541712512 0 0 0
415 0 1 0 10.786443840392021 24.463857905122744 0.7151403997842347 0 0 0
400 0 1 0 9.555306421236047 23.11979253102965 3.6165749695060634 0 0 0
401 0 2 0 10.516730859205639 23.10528203615651 3.357448370121268 0 0 0
402 0 2 0 9.076531349371656 23.29430399070154 2.7957366564840265 0 0 0
409 0 1 0 10.970296407816662 21.641417412399516 0.8593149279981404 0 0 0
410 0 2 0 10.148974198035225 21.426706073438325 1.3065752488759521 0 0 0
411 0 2 0 10.900782674345182 22.58457268961361 0.746938018675302 0 0 0
397 0 1 0 12.280986184578154 23.4048289913761 3.553923616683619 0 0 0
405 0 2 0 8.540939794331898 22.056467101245456 4.517200109824913 0 0 0
438 0 2 0 12.56873380031854 21.212151883282232 1.9074540165791316 0 0 0
399 0 2 0 12.883845186636211 23.541775913583276 2.780488290522022 0 0 0
398 0 2 0 12.647816608438955 23.89122544406324 4.291985520216293 0 0 0
426 0 2 0 15.68209750700169 20.731015166365562 1.6016648057889642 0 0 0
430 0 1 0 15.552637031114523 23.36782708624568 3.2532055180055273 0 0 0
431 0 2 0 15.160342963517524 22.604751617095243 3.7340497468293288 0 0 0
442 0 1 0 13.731181122694847 23.285348347119257 1.1547159111389946 0 0 0
443 0 2 0 14.603527698780725 23.433590490026894 1.5684996658329264 0 0 0
444 0 2 0 13.664269158263222 23.95071651405603 0.43920477009370895 0 0 0
90 0 2 0 14.526261765755333 24.40456746541379 4.329533022904636 0 -1 0
432 0 2 0 16.46035030073358 23.304636813984864 3.535535729837414 0 0 0
446 0 2 0 17.62805228054765 24.79286720611776 1.0527508801276249 0 0 0
445 0 1 0 16.930667426447215 24.50603796940191 0.4813893061986864 0 0 0
447 0 2 0 16.978352943402218 23.521564435991266 0.6261044691957952 0 0 0
427 0 1 0 18.313500839344687 23.15452450134221 3.5945334139543106 0 0 0
428 0 2 0 18.84164025900846 22.385672937549742 3.9203277431527805 0 0 0
429 0 2 0 18.865001612845738 23.89590528745437 3.989618743749926 0 0 0
439 0 1 0 16.760324576773865 21.56403676078289 0.5931443432103979 0 0 0
440 0 2 0 17.638528622938292 21.246791198874956 0.9398848268798248 0 0 0
474 0 2 0 19.580972300395878 23.38449015607171 1.9131631634940738 0 0 0
473 0 2 0 20.33426185929832 24.02538119537946 0.7774622636129886 0 0 0
472 0 1 0 20.359623674445064 23.242737673374865 1.3377009117420595 0 0 0
1905 0 2 0 20.058449990859984 22.010845254754283 0.09831323210850758 0 0 1
457 0 1 0 24.785120829414698 23.488268893269016 3.510455419442406 0 0 0
475 0 1 0 23.471840419722888 24.66711411831652 0.7896340090458016 0 0 0
377 0 2 0 24.646486359174496 20.93240469993984 1.7741373781016998 -1 0 0
460 0 1 0 21.986735764907724 23.12711647686181 3.6227565094153156 0 0 0
461 0 2 0 21.57040011483217 23.192340959373578 2.754071727796137 0 0 0
462 0 2 0 22.93705388084414 23.340494012090254 3.425549253509751 0 0 0
469 0 1 0 23.352118617550072 21.7821655777336 0.858186988931526 0 0 0
471 0 2 0 22.638751027515625 21.501476051169337 1.4456150778558277 0 0 0
477 0 2 0 23.450148004458658 23.727395968517023 0.9401514312849728 0 0 0
465 0 2 0 20.892615616299402 21.63442990008682 4.292904956844127 0 0 0
120 0 2 0 20.855759694279158 24.370227835935992 4.4092472567175465 0 -1 0
13 0 1 0 1.6219825584301746 2.8931799124652415 5.024645037788771 0 0 0
14 0 2 0 1.7713435299583278 1.8920805701417498 5.188983727837185 0 0 0
15 0 2 0 1.7986678064928503 3.3706179831357934 5.866225919553277 0 0 0
484 0 1 0 3.01876224324832 1.3526302530559395 7.813048898494179 0 0 0
485 0 2 0 2.0394703299768495 1.3934882968363442 7.785726375628896 0 0 0
486 0 2 0 3.3589878696704263 2.108199072299293 7.269039495370788 0 0 0
496 0 1 0 0.16479790433759473 1.1520485265354408 7.783889001032987 0 0 0
28 0 1 0 1.807617305511411 0.18137979427571543 4.806271544120501 0 0 0
866 0 2 0 3.755238878933707 -0.09756582626357665 6.884920726864135 0 1 0
44 0 2 0 7.472175466786072 1.7886889122596963 4.639586573416606 0 0 0
3 0 2 0 4.528394776405487 0.8532118840090159 4.780654055279625 0 0 0
500 0 2 0 4.734669049788561 3.090820658147073 5.861663619059473 0 0 0
499 0 1 0 4.898010544238668 3.1791109181036443 6.7537473412317865 0 0 0
43 0 1 0 7.527161065201135 2.7624156096343038 4.646940894753816 0 0 0
501 0 2 0 5.409682042799367 2.374797753078185 6.962537040215354 0 0 0
526 0 1 0 6.383943578933254 1.2260688756079483 7.676994099007963 0 0 0
527 0 2 0 7.347546812001698 1.1985080327440156 7.665872242189997 0 0 0
528 0 2 0 5.90930654840017 1.3710831023298053 8.546247936453737 0 0 0
58 0 1 0 7.432288146426421 0.07727716034284957 4.793440121318432 0 0 0
867 0 2 0 5.332014061697749 0.1562444764682845 6.625989164912968 0 1 0
534 0 2 0 7.626868921956366 3.875850071702258 6.390232962312819 0 0 0
33 0 2 0 10.85401931343376 2.215142639122847 4.796736932617496 0 0 0
514 0 1 0 8.997622633187229 1.2508185637162959 7.869156727304372 0 0 0