LAMMPS (29 Sep 2021 - Update 2)
  using 1 OpenMP thread(s) per MPI task
echo both

include		in.partitions
variable        pid world 0
include		in.temp
variable        temperature equal 245
variable        tempDamp equal 0.100 # this is 0.1 ps
include		in.pressure
variable        pressure equal 7092.75
variable        pressureDamp equal 1.0 #this is 1ps
include		in.seed
variable        seed world 745823

units           metal
atom_style	full
include		in.box
read_data       iceVI.data
Reading data file ...
  orthogonal box = (0.0000000 0.0000000 0.0000000) to (24.724405 24.724405 22.792372)
  1 by 1 by 1 MPI processor grid
  reading atoms ...
  1920 atoms
Finding 1-2 1-3 1-4 neighbors ...
  special bond factors lj:    0        0        0       
  special bond factors coul:  0        0        0       
     0 = max # of 1-2 neighbors
     0 = max # of 1-3 neighbors
     0 = max # of 1-4 neighbors
     1 = max # of special neighbors
  special bonds CPU = 0.003 seconds
  read_data CPU = 0.028 seconds
include 	in.setup
variable	out_freq equal 500
variable	out_freq2 equal 500

timestep        0.0005

neigh_modify    delay 7 every 1

include         in.deepmd
# This is deepMD model

# create groups ###
#group ox type 2
#group hy type 1

mass 2 15.999
mass 1 1.008

pair_style      deepmd ../graph.pb
pair_coeff      * *

bond_style      none
angle_style     none
dihedral_style  none
improper_style  none
neigh_modify exclude none


neighbor        2.0 bin
neigh_modify    every 10 delay 0 check no

thermo          ${out_freq}
thermo          500
thermo_style 	custom step temp pe etotal epair emol press lx ly lz xy xz yz vol pxx pyy pzz pxy pxz pyz

restart 	${out_freq} restart.lmp.${pid} restart2.lmp.${pid}
restart 	500 restart.lmp.${pid} restart2.lmp.${pid}
restart 	500 restart.lmp.0 restart2.lmp.${pid}
restart 	500 restart.lmp.0 restart2.lmp.0


include         in.dump
dump            myDump all atom ${out_freq2} dump.water.${pid}
dump            myDump all atom 500 dump.water.${pid}
dump            myDump all atom 500 dump.water.0
dump            myDump2 all dcd ${out_freq2} dump.dcd
dump            myDump2 all dcd 500 dump.dcd
dump_modify     myDump append yes
dump_modify     myDump2 append yes


timer           timeout 03:55:00 every 1000
New timer settings: style=normal  mode=nosync  timeout=03:55:00

fix             2 all nph aniso ${pressure} ${pressure} ${pressureDamp}
fix             2 all nph aniso 7092.75 ${pressure} ${pressureDamp}
fix             2 all nph aniso 7092.75 7092.75 ${pressureDamp}
fix             2 all nph aniso 7092.75 7092.75 1
fix             3 all temp/csvr ${temperature} ${temperature} ${tempDamp} ${seed}
fix             3 all temp/csvr 245 ${temperature} ${tempDamp} ${seed}
fix             3 all temp/csvr 245 245 ${tempDamp} ${seed}
fix             3 all temp/csvr 245 245 0.1 ${seed}
fix             3 all temp/csvr 245 245 0.1 745823
velocity 	all create ${temperature} ${seed} dist gaussian
velocity 	all create 245 ${seed} dist gaussian
velocity 	all create 245 745823 dist gaussian

run             400000

CITE-CITE-CITE-CITE-CITE-CITE-CITE-CITE-CITE-CITE-CITE-CITE-CITE

Your simulation uses code contributions which should be cited:

- USER-DEEPMD package:

@article{Wang_ComputPhysCommun_2018_v228_p178,
  author = {Wang, Han and Zhang, Linfeng and Han, Jiequn and E, Weinan},
  doi = {10.1016/j.cpc.2018.03.016},
  url = {https://doi.org/10.1016/j.cpc.2018.03.016},
  year = 2018,
  month = {jul},
  publisher = {Elsevier {BV}},
  volume = 228,
  journal = {Comput. Phys. Commun.},
  title = {{DeePMD-kit: A deep learning package for many-body potential energy representation and molecular dynamics}},
  pages = {178--184}
}

CITE-CITE-CITE-CITE-CITE-CITE-CITE-CITE-CITE-CITE-CITE-CITE-CITE

Neighbor list info ...
  update every 10 steps, delay 0 steps, check no
  max neighbors/atom: 2000, page size: 100000
  master list distance cutoff = 8
  ghost atom cutoff = 8
  binsize = 4, bins = 7 7 6
  1 neighbor lists, perpetual/occasional/extra = 1 0 0
  (1) pair deepmd, perpetual
      attributes: full, newton on
      pair build: full/bin
      stencil: full/bin/3d
      bin: standard
Per MPI rank memory allocation (min/avg/max) = 9.089 | 9.089 | 9.089 Mbytes
Step Temp PotEng TotEng E_pair E_mol Press Lx Ly Lz Xy Xz Yz Volume Pxx Pyy Pzz Pxy Pxz Pyz 
       0          245   -333.91511   -273.14281   -333.91511            0    45063.966    24.724405    24.724405    22.792372            0            0            0     13932.89    45753.865    47078.124     42359.91    -807.2771    -397.1229    -352.0556 
     500     224.8198    -315.7451    -259.9785    -315.7451            0    1344.0246     24.92882    24.967096    22.976835            0            0            0    14300.788    3695.4616    2588.2731   -2251.6609   -1290.8088   -1752.6861    937.59833 
    1000    251.01329   -316.47831   -254.21441   -316.47831            0    6016.1404    24.843162    24.851705    22.884912            0            0            0    14129.029    5563.2461    4247.3408    8237.8343    -172.2517   -898.41026   -1248.2603 
    1500     244.6193   -315.30777    -254.6299   -315.30777            0    11471.263    24.935174    24.817154    22.883949            0            0            0    14161.046    10616.147    11997.358    11800.283    63.769931   -992.31764    1123.0719 
    2000    242.02151   -312.46047   -252.42698   -312.46047            0    2323.2512    24.894629    24.905242    22.947548            0            0            0    14227.635    1558.7319    3618.7744    1792.2474    924.51532   -1443.0156   -515.77869 
    2500    253.42378   -314.10577   -251.24394   -314.10577            0    8979.7531    24.796009    24.868183    22.924222            0            0            0    14135.802    5650.9414    10857.903    10430.415    170.73853   -330.28801    1276.5123 
    3000    249.62066    -314.0572   -252.13874    -314.0572            0    10071.339    24.873168    24.907532    22.982288            0            0            0    14238.199    10968.018    9506.0904    9739.9076    876.15263    790.30193   -434.25535 
    3500    239.45924   -313.35267   -253.95476   -313.35267            0    4213.5353    24.889055    24.781277     22.88662            0            0            0    14116.068     1376.433    6014.9554    5249.2174    387.43482   -854.99425     140.7628 
    4000    240.04599   -314.33979   -254.79633   -314.33979            0    7516.4361    24.939857    24.916601    22.915224            0            0            0    14239.897    7882.4581    7383.1691    7283.6812    1119.1507   -363.66799   -828.31783 
    4500    242.47821   -314.23134   -254.08457   -314.23134            0    7344.7537    24.826599    24.883484    22.846353            0            0            0    14113.843    5860.0759    8159.3164     8014.869    158.94742    183.42513    1063.2588 
    5000    240.12961    -312.6371    -253.0729    -312.6371            0    7200.8532    24.838762     24.84441    23.022368            0            0            0    14207.204    6084.6366    6623.5454    8894.3775    1037.2794   -161.94198     -1304.85 
    5500    242.79123   -314.65514   -254.43072   -314.65514            0    8346.2367    24.850611    24.749274    23.058679            0            0            0    14181.885    8001.4747     8911.173    8126.0625    215.47557   -407.33465    167.49064 
    6000    250.10683   -315.68645    -253.6474   -315.68645            0    8355.5518     24.88861    24.813769    22.875454            0            0            0    14127.428     8358.695    8329.8058    8378.1546    758.79036    816.36383   -2504.2075 
    6500    239.84355   -314.52721   -255.03397   -314.52721            0     4535.741    24.916907    25.043021    22.806641            0            0            0    14231.222    4272.1912     4416.458    4918.5737    668.52508    1337.9359    1296.8271 
    7000    246.54051   -313.24145   -252.08702   -313.24145            0    9911.4644    24.842192    24.855983    22.835983            0            0            0    14100.697    9246.0663    7767.8545    12720.473     -779.465   -286.53653    734.60612 
    7500    247.85045   -314.50393   -253.02458   -314.50393            0    6096.2276    24.944962    24.799781    23.061001            0            0            0    14266.218    5613.5943     6436.478    6238.6105    467.47675   -570.91524    1523.6282 
    8000    249.75379   -315.81072   -253.85924   -315.81072            0    6272.5806    24.768319     24.78692    22.957483            0            0            0    14094.295    6397.3386    6208.2842     6212.119   -1591.4933    627.01676    1692.1799 
    8500     245.2079   -315.69606   -254.87219   -315.69606            0    5736.7317    24.865847    24.965776    22.919748            0            0            0    14228.469    5032.6678    7151.2407    5026.2867   -910.12975   -198.19954   -1786.2808 
    9000    254.24962   -314.53578   -251.46911   -314.53578            0    4398.3756    24.867556    24.882545    22.807708            0            0            0    14112.681    4035.4798    2744.5492    6415.0978    917.40036    340.81157   -271.27543 
    9500    251.96782   -315.01605   -252.51538   -315.01605            0    6938.8462    24.946473    24.848438    22.948091            0            0            0    14225.083    9253.8134    6785.0598    4777.6655   -1362.8682   -1469.2006    2286.2871 
   10000    245.15991   -311.77333   -250.96136   -311.77333            0    9727.4508    24.830912    24.834752    23.005815            0            0            0    14186.985     9460.091    9850.6207    9871.6406    1762.8717    1598.6825    778.16654 
   10500    245.49767   -309.70535    -248.8096   -309.70535            0    6621.1218    24.799134    24.905613    22.991318            0            0            0    14200.303    5351.6844    6540.7249     7970.956   -295.31671   -617.60861   -456.16531 
   11000    246.06458   -313.24219   -252.20582   -313.24219            0    5865.9992    24.885158    24.872492    22.945228            0            0            0    14202.084    5923.4615    5091.4698    6583.0663    2024.0761     700.6879   -391.84318 
   11500    241.68775   -313.97956   -254.02886   -313.97956            0    8218.1999    24.918225    24.793694    22.874737            0            0            0    14132.353    7209.3385    8240.4862    9204.7748   -346.32053   -1376.3415    1355.0556 
   12000    247.59433   -313.60924   -252.19341   -313.60924            0    3985.2547    24.894841    24.872465    22.921895            0            0            0    14193.148    6026.6567    1140.0584    4789.0488    369.63666    4.1218597    844.54469 
   12500    251.45406   -313.88909   -251.51586   -313.88909            0     4984.667    24.766054    24.943704    22.978365            0            0            0    14195.049    5908.8471    4552.5589    4492.5951   -1190.1107   -1096.0822    4.1359678 
   13000    254.22299   -314.14661   -251.08654   -314.14661            0     8054.411    24.801369    24.874013    22.938825            0            0            0     14151.18    4334.8094    9459.4609    10368.963    5.5153508   -332.67322     1397.235 
   13500    244.90862    -314.8141   -254.06446    -314.8141            0    6816.8955    24.965899    24.833736    22.923866            0            0            0    14212.718    7355.7827      5008.01    8086.8937    657.35318    644.01666     -713.275 
   14000    240.25932   -314.48062   -254.88424   -314.48062            0     9809.541    24.875339    24.820571    22.883947            0            0            0     14129.01    8246.2706    11140.671    10041.682    1227.8815    177.61172   -666.52856 
   14500     234.9203   -314.52607   -256.25404   -314.52607            0    9279.7435    24.752528     24.93894    23.007992            0            0            0    14202.875    11084.439    10650.841    6103.9498   -1316.8386    502.08264   -644.06915 
   15000    250.80382   -315.12983   -252.91789   -315.12983            0    5671.5212    24.744441    24.852495    22.972927            0            0            0    14127.456    5779.2603    5755.0617    5480.2415    496.68104   -1992.4593   -615.91996 
   15500    245.10952   -314.31124   -253.51177   -314.31124            0    8611.2427    25.047043    24.796991    22.886294            0            0            0    14214.478    8727.3274    8462.0214    8644.3793    1083.9201   -680.34873   -482.30246 
   16000    251.47955   -314.35461   -251.97505   -314.35461            0    9038.9352    24.889134    24.822318    22.819166            0            0            0    14097.818    8974.4726    7919.6287    10222.704   -165.96163    353.37676    184.04225 
   16500    244.43168   -313.59001   -252.95867   -313.59001            0     4038.893    24.775832    25.031007    22.984624            0            0            0    14254.237    7185.1408    3936.5388    994.99959    534.24151   -1318.1694    1668.9626 
   17000    245.61048   -313.77973   -252.85599   -313.77973            0    8617.1534     24.81381    24.786133    22.965335            0            0            0    14124.562    11251.869    9308.1363    5291.4544   -280.74784   -1468.9741    800.38015 
   17500    245.86589   -314.32974   -253.34265   -314.32974            0    7841.0465    25.002647    24.793248    22.931113            0            0            0    14214.924     8093.409    6946.7383    8482.9921    260.11838    2109.9165    1035.1362 
   18000    244.02103   -315.88716   -255.35769   -315.88716            0    6685.0213    24.825727    24.954955    22.855612            0            0            0    14159.621    9566.1013    2639.0435     7849.919    1140.1342   -494.08882    403.68283 
   18500    240.31739   -314.48894   -254.87816   -314.48894            0    7195.7652    24.795771    24.939508    22.875729            0            0            0    14146.221    7255.8382    4113.2344    10218.223    167.32516    363.53252   -57.105893 
   19000     241.9019   -313.83349   -253.82967   -313.83349            0    6248.7677    24.952368    24.795851    22.974125            0            0            0     14214.44    6477.3854     7107.654    5161.2636   -138.48466    125.47051     462.8461 
   19500    252.68338   -316.10074   -253.42257   -316.10074            0    8936.6945      24.8328    24.778864    22.955356            0            0            0    14125.087    11529.342    7985.2144    7295.5273   -707.70435   -2324.9265    436.55079 
   20000    246.08576   -316.41173    -255.3701   -316.41173            0     5634.709    24.885292     24.91124    22.958458            0            0            0    14232.487    7144.3898    6097.7315    3662.0058   -797.88506     1579.402    356.78024 
   20500    241.28367   -314.36577    -254.5153   -314.36577            0    9130.9158    24.813732    24.855257     22.84947            0            0            0    14092.449    9366.3112    7502.0938    10524.342    483.57308   -2464.6627   -1719.1236 
   21000    238.85523   -314.11169    -254.8636   -314.11169            0    4538.5854    24.908149    24.891521    22.940191            0            0            0    14222.958     5657.513    4760.6282    3197.6152   -368.04817    -1153.143    1063.8909 
   21500    237.47306   -315.30895    -256.4037   -315.30895            0    6889.5599    24.793647    24.866283    22.934774            0            0            0    14139.881    7780.4633    7690.1999    5198.0165     -2001.82   -2015.4415    696.88271 
   22000    244.33768    -314.2007   -253.59268    -314.2007            0    8699.7357    24.851112    24.848944    22.941995            0            0            0     14167.23    9642.7429    8224.4068    8232.0575   -226.43338   -415.72212    985.37693 
   22500    244.66875   -313.52712   -252.83698   -313.52712            0    4281.1311    24.907243    24.892117    22.952508            0            0            0    14230.417    5304.5592    4168.6489    3370.1853    -195.1507    1504.0473   -1208.9831 
   23000    243.68881   -316.88551   -256.43845   -316.88551            0     9587.366    24.811443    24.847515    22.867116            0            0            0    14097.639    9446.4503    9575.1698    9740.4779    219.51885    449.87418    2072.0439 
   23500    248.67728   -315.81705    -254.1326   -315.81705            0    4279.3919    24.949405      24.8933    23.017168            0            0            0    14295.343    649.18666    7973.4562    4215.5329    678.06932    902.26374    587.13252 
   24000    252.98548   -313.13333   -250.38023   -313.13333            0    7007.2666    24.805413     24.77944     22.89662            0            0            0    14073.734    8648.1556      6689.26    5684.3842     1410.913   -486.26707   -1081.9184 
   24500    240.22387   -313.33009    -253.7425   -313.33009            0     5987.895    24.894795    25.017529    22.967274            0            0            0    14304.162    6431.9833    6570.2382    4961.4636    2.3887358    254.51024    756.35295 
   25000    251.83402   -312.44929   -249.98181   -312.44929            0    8197.2834    24.780104    24.863249    22.858115            0            0            0    14083.202    8417.4304    7853.5698      8320.85    -1242.879    77.217593    1303.9838 
   25500    243.26422   -311.90661   -251.56487   -311.90661            0    4966.7575    24.967102    24.893485    22.994395            0            0            0    14291.435    6559.4866    3082.9737     5257.812     293.1684   -970.64788    777.52167 
   26000    257.02807   -312.62957    -248.8737   -312.62957            0    7534.2697    24.869646    24.786339    22.953671            0            0            0    14149.274    5698.0162    9790.4445    7114.3485    659.28498    344.71295    951.24414 
   26500    241.72689   -314.08322   -254.12281   -314.08322            0    5582.4631    24.867847    24.861601    22.982427            0            0            0    14208.988    7241.4691    4519.7877    4986.1326     649.7524     1385.394   -2444.9778 
   27000    249.55604   -313.73714   -251.83471   -313.73714            0    7148.2081    24.835724     24.93106    22.884801            0            0            0    14169.832    6773.7387    8456.9592    6213.9264    588.32247   -291.01655   -2985.6571 
   27500     249.2366   -315.37976   -253.55657   -315.37976            0    7079.6938    24.924233    24.870669    22.827623            0            0            0    14150.441    7082.9498    6989.3875    7166.7441   -65.719371   -255.73351   -460.72491 
   28000    245.67698   -315.10054   -254.16031   -315.10054            0    5605.7339    24.964678    24.844786    22.943491            0            0            0    14230.519    4392.8273    5423.8139    7000.5607    1370.8161   -446.43394    2337.0231 
   28500    241.84703   -312.55137   -252.56116   -312.55137            0    7708.2853    24.748373    24.874181    22.943602            0            0            0    14123.979    3775.4378    10508.936    8840.4822    27.277388   -285.30112   -483.56427 
   29000    238.56379   -313.46165   -254.28586   -313.46165            0    6553.6289    24.826733    24.949369    22.996574            0            0            0    14244.338     7235.104    7525.4137     4900.369   -316.07784   -252.36723      1478.94 
   29500    251.07262   -313.93258   -251.65396   -313.93258            0    8947.3436    24.933203    24.822797    22.826024            0            0            0    14127.297    10513.425    5627.2243    10701.382   -216.24045   -2558.8577    1429.4764 
   30000    252.56233   -311.49605   -248.84791   -311.49605            0    5061.5083    25.007162    24.898822    22.953608            0            0            0    14292.038    4031.9446    7170.5115    3982.0687    2010.8991    2168.5558    76.206089 
   30500    253.49751   -313.57648   -250.69636   -313.57648            0     8325.555     24.76345     24.84987    22.965471            0            0            0    14132.228    9382.6502    7738.8432    7855.1716    -104.3586   -787.84702    304.55452 
   31000     245.6632   -311.83973   -250.90292   -311.83973            0    8281.0996    24.834297    24.943555    22.989886            0            0            0    14241.215    8626.3547    7705.0678    8511.8763    454.46164    1291.8716   -2176.7773 
   31500    243.67078    -311.9732   -251.53061    -311.9732            0    6825.3148    24.948497    24.819702    22.844013            0            0            0    14145.339    6897.4834    7296.6164    6281.8445   -304.60859     330.7301    2206.9323 
   32000     240.9275   -313.09956   -253.33744   -313.09956            0    5592.4528    25.003659    24.820346     22.87324            0            0            0    14195.121    5575.0771    5436.0439    5766.2372   -1129.2853    1236.8913    845.22837 
   32500    259.39061   -315.97676   -251.63486   -315.97676            0    7135.3328    24.752249    24.963247    22.969191            0            0            0    14192.584    8079.9338    7125.1513    6200.9135    63.455147   -244.33971    637.24752 
   33000    243.24905   -312.17976   -251.84178   -312.17976            0    9122.5547    24.742591    24.965584    22.965966            0            0            0    14186.381    7525.5356     8858.283    10983.845    686.09584    -798.9196     1384.117 
   33500    246.40574   -315.52531   -254.40431   -315.52531            0    7704.5713    25.058921    24.813085    22.847019            0            0            0    14206.028    6437.8119    7733.1965    8942.7053   -1666.8059   -494.96666    -950.0071 
   34000    236.05912   -313.85358   -255.29906   -313.85358            0    8141.6893    24.972338    24.811365    22.785677            0            0            0    14117.955    7168.1473    10431.637     6825.284    -1156.555   -2820.9641   -11.621415 
   34500    237.76449   -315.09751   -256.11997   -315.09751            0    6783.0823    24.740175    25.048638    22.940256            0            0            0    14216.253    10269.049    3950.1165    6130.0813    671.55826    1069.5647    1285.2139 
   35000    238.84597   -315.75614   -256.51034   -315.75614            0    10184.499    24.725602    24.862865    22.967926            0            0            0    14119.516    10938.942    11332.638    8281.9159    835.42822   -3272.2581   -327.13905 
   35500    251.25399    -316.2787   -253.95509    -316.2787            0    2476.8706    24.982624    24.738813    23.013404            0            0            0    14223.215    1647.5985    3193.7941    2589.2193    787.04278    3214.4439     -375.071 
   36000    242.16179   -314.34655   -254.27827   -314.34655            0    6731.8133     24.89296    24.833043    22.909233            0            0            0    14161.754    6273.8713      6855.26    7066.3085    744.91755    758.64436   -299.69633 
   36500    243.52879   -315.04453   -254.63716   -315.04453            0    8066.7263    24.775509    24.942192    22.919621            0            0            0    14163.306    9601.0108    8463.3992    6135.7689    612.85546   -318.64546    1819.2196 
   37000    249.11339   -316.08964   -254.29701   -316.08964            0    6401.0046    24.861859    24.908309    22.952571            0            0            0    14213.767     6449.005    5805.1485    6948.8601   -247.96937    197.87996    666.37021 
   37500    237.77437   -313.34429   -254.36431   -313.34429            0    8282.4937    24.923337    24.768069    22.910669            0            0            0    14142.823    7232.4153    9143.9099    8471.1559    746.55869   -1645.6993    138.25186 
   38000    247.86604   -313.32454   -251.84132   -313.32454            0    5788.7586    24.925077    24.929186    22.904561            0            0            0    14232.021    5672.8383    7041.0269    4652.4106    804.06651   -97.585739   -1841.2894 
   38500    251.70293   -314.40213   -251.96716   -314.40213            0    7934.8297    24.807653    24.937449    22.849203            0            0            0    14135.421    6719.9843    8984.3557     8100.149    1753.6638   -1383.1206    724.57138 
   39000    242.99043    -314.8609   -254.58707    -314.8609            0    8489.2488    24.917063    24.833404    22.968902            0            0            0    14212.594    8558.4919     9971.379    6937.8755   -408.75637    -653.2366   -889.14069 
   39500    246.06365   -312.04016   -251.00402   -312.04016            0    6925.6515    24.881774     24.74407    22.995564            0            0            0    14157.825    7504.2551    6476.8413     6795.858   -252.67892    329.99882   -1592.6876 
   40000    239.15968   -313.88473   -254.56112   -313.88473            0    9245.9395       24.863    24.896046    22.933227            0            0            0    14195.448    10906.791    7247.4948    9583.5331    405.15709    5.8647632    653.69834 
   40500     235.2536   -312.98529   -254.63059   -312.98529            0    9585.3742    24.845346    24.971145    22.831818            0            0            0    14165.242    9154.9953    8082.5029    11518.624    -1960.478   -2423.3406   -171.45754 
   41000    244.06099   -316.06593   -255.52655   -316.06593            0    5708.1125    24.880733    24.840298    22.929044            0            0            0    14171.177    3849.6965    8225.3472    5049.2938   -1283.3996   -1287.8312   -1505.1539 
   41500    240.97249   -313.28095   -253.50767   -313.28095            0    8994.8833    24.903895    24.699869    23.047079            0            0            0    14176.787    6433.5226    12897.148    7653.9794   -179.79946    771.95427    626.25259 
   42000    248.09925    -314.4486   -252.90752    -314.4486            0    8010.3952    24.865539    24.823754    23.064268            0            0            0    14236.559    6970.8155    8820.6346    8239.7355    672.81645   -1879.8167   -1655.6342 
   42500    243.80115   -312.90694   -252.43201   -312.90694            0     7519.908    24.732776    25.065995     22.80266            0            0            0    14136.546    9513.9631    6079.3662    6966.3946    610.97077   -901.78903    510.19004 
   43000    244.83469   -313.08061   -252.34931   -313.08061            0    6057.9449    24.927168    25.033921    22.790293            0            0            0    14221.707    7111.6255    1611.6439    9450.5654    488.48465    1532.9162    117.48701 
   43500    250.23187   -314.03195   -251.96188   -314.03195            0    10061.993    24.973261    24.676691    22.977064            0            0            0    14159.787    9141.5281    12230.476    8813.9737    1082.6148    1339.0565   -1799.1102 
   44000    238.83994   -313.73408   -254.48978   -313.73408            0    8592.9801    24.812219    24.762721    23.091633            0            0            0    14187.916    9569.1338    8158.5784    8051.2281   -474.77943   -1416.5797    702.14661 
   44500    246.77516    -314.8148   -253.60217    -314.8148            0    6457.1896    24.730559    24.956708    22.990661            0            0            0    14189.682    8028.2936    6416.4247    4926.8506    861.43578    1511.8993   -371.59144 
   45000    247.64655   -316.59774   -255.16896   -316.59774            0    6309.6708    24.890881    24.921478    22.800365            0            0            0    14143.467    4952.1711    5819.4719    8157.3694    337.46397    1954.2226   -226.26558 
   45500    243.72938   -316.19347   -255.73634   -316.19347            0    5724.3336     25.01567    24.823474    22.874155            0            0            0    14204.297    5200.8312    6134.2862    5837.8834    1376.3624   -937.74794    -1150.519 
   46000    246.65775   -315.07102   -253.88752   -315.07102            0    8765.9439    24.852562    24.764984    22.980015            0            0            0    14143.586    8966.1493    8552.1117    8779.5707   -161.50718    1044.7427   -849.63871 
   46500    250.88059   -315.19113   -252.96014   -315.19113            0    5046.2099    24.796139    24.949683    23.019219            0            0            0    14240.974    7065.4724    2648.4653     5424.692    208.17564   -1221.9307    2180.9824 
   47000    242.68391   -313.17457   -252.97678   -313.17457            0    9368.9976    24.789165    24.962322    22.915295            0            0            0    14179.873    10907.299    7583.2975    9616.3969    1624.6145   -65.351531   -576.55741 
   47500    251.40281   -314.16646   -251.80594   -314.16646            0    5877.2821    24.941672    24.867024    22.869465            0            0            0    14184.218    5897.0384    6371.9694    5362.8386     523.2923    222.44819    631.43057 
   48000    241.42326   -313.15145   -253.26635   -313.15145            0    6509.1159    25.011386    24.779444    22.977838            0            0            0    14240.934    6676.0031    6119.1371    6732.2075    186.51565    1421.8006    1559.2959 
   48500    243.06661   -313.30189   -253.00917   -313.30189            0    7481.9918     24.74962    24.844804    22.958916            0            0            0    14117.425    7256.8005    7743.2273    7445.9477    259.39146    961.22511    187.68181 
   49000    243.16209   -311.58541     -251.269   -311.58541            0     5310.734    24.796433    25.009444    23.022752            0            0            0    14277.445    4900.5257    5125.0967    5906.5797   -1005.5497    1085.4616   -1010.8236 
   49500    253.10275   -310.47888   -247.69669   -310.47888            0    5473.2934    24.863157    24.838276    22.933495            0            0            0    14162.762    6629.4746    4250.0045     5540.401    3141.2973    -2445.988    1225.2721 
   50000    247.60724   -312.38208   -250.96305   -312.38208            0    6036.3793      24.9959    24.815093    22.991446            0            0            0    14261.033    4122.4437    9595.6761    4391.0182   -2023.6479    1539.5432    1279.0365 
   50500    247.21659   -313.71028   -252.38816   -313.71028            0    9459.7488    24.792838     24.87333    22.891941            0            0            0    14117.012    10931.297    8829.0971    8618.8518   -765.60034    634.71579    403.36003 
   51000    243.74946   -311.69369   -251.23158   -311.69369            0    6816.0202    24.852937    24.913433    22.942908            0            0            0    14205.606    7866.8664    7261.2442    5319.9501   -1845.2445   -1491.9384    2367.1369 
   51500    250.41914   -314.68496   -252.56844   -314.68496            0    8514.8926    24.928856    24.823953    22.945297            0            0            0    14199.301    7461.4901    8333.8436    9749.3439   -1901.2494   -163.01591   -378.88715 
   52000    243.32172   -315.02657   -254.67057   -315.02657            0    7253.2571    24.901109    24.832714    22.903096            0            0            0    14162.407    7624.5524     7502.893    6632.3258   -195.37572   -3688.6344   -3204.6736 
   52500    249.37421   -313.52199   -251.66466   -313.52199            0    6654.3443    24.898062    24.896112    22.906315            0            0            0    14198.821    4252.4388    7482.1375    8228.4566   -1623.9409   -1392.4009    1153.6104 
   53000    252.35191   -316.77457   -254.17863   -316.77457            0    8399.2316    24.876359    24.827513    22.978274            0            0            0    14191.798    7581.6075    8595.4003     9020.687   -13.897572    1150.8532    451.20038 
   53500     241.8801   -312.95749   -252.95907   -312.95749            0    9274.9511    24.872656    24.810851    22.988297            0            0            0    14186.348    10596.507    8829.9658    8398.3808   -553.32826    1543.2367   -293.40124 
   54000    249.59364   -313.56508   -251.65332   -313.56508            0     8291.827     24.87069    24.965214    22.874186            0            0            0    14202.631    9513.5178    8258.1658    7103.7974   -1398.3856   -299.10289   -976.78774 
   54500     241.6699   -315.07204   -255.12577   -315.07204            0     8461.377    24.850582    24.986648    22.807895            0            0            0    14162.169    8697.9556    6040.2703    10645.905   -778.83482   -2717.2606    688.05382 
   55000    245.62855   -313.97298   -253.04476   -313.97298            0    6950.5538    24.975939    24.724578    22.994023            0            0            0    14199.259    7191.4527     7098.705    6561.5039   -1073.1758    1299.7825   -752.93893 
   55500    243.37434   -314.96434   -254.59528   -314.96434            0    6993.9145    24.885322    24.682902    23.101789            0            0            0    14190.089    8140.3687    8244.8705    4596.5042    558.20519   -779.05395    197.92584 
   56000    251.18983   -313.90897   -251.60128   -313.90897            0    7304.1807     24.71092     24.99331    22.937724            0            0            0    14166.515    6852.1563    5787.7917     9272.594    569.27493   -414.84372   -746.36887 
   56500     245.9483   -314.34894   -253.34141   -314.34894            0    5091.0046    24.873786    25.066452    22.839866            0            0            0    14240.601    4856.5293    4045.5456    6370.9391    -2468.052   -395.91829   -2053.1907 
   57000    248.78648    -315.5553   -253.84376    -315.5553            0    9336.8856    25.002936     24.77633    22.815024            0            0            0    14133.474    10913.118    6440.8576    10656.681   -350.53523   -1307.4242    1638.1015 
   57500    243.94843   -314.36595   -253.85449   -314.36595            0    6911.2841    24.884494    24.827829    22.959006            0            0            0    14184.715    4028.5778    7554.7334    9150.5413    196.04745   -815.35879    283.36992 
   58000    239.91053    -313.3724   -253.86254    -313.3724            0    6856.6373    24.715971     24.91097    23.033315            0            0            0    14181.585    9101.6198    5664.3126    5803.9795   -193.47022    2773.1606    1893.0699 
   58500    255.91468   -315.64782   -252.16813   -315.64782            0    9048.3778    24.803553    24.853768    22.945718            0            0            0    14145.158    8908.9403    10009.232    8226.9609   -69.304136   -1356.2512   -58.127706 
   59000    250.15886   -315.16774   -253.11578   -315.16774            0     6494.443    24.951018    24.912788    22.895303            0            0            0    14231.707    8405.3139    4310.5947    6767.4203       1366.9    -717.7238    193.88175 
   59500    247.41033   -313.62918   -252.25899   -313.62918            0    9220.0983    24.849585    24.894563    22.814992            0            0            0    14113.801    8864.7869    9046.8884    9748.6195   -888.12949   -545.03888   -471.93768 
   60000    238.94456   -314.20081   -254.93056   -314.20081            0     7954.709    24.816606    24.931535    22.999393            0            0            0    14230.094    7576.4178    9319.0247    6968.6845   -736.40892    943.01645   -1704.6826 
   60500    240.05899    -313.7629   -254.21622    -313.7629            0    10120.859    24.818547    24.785206    23.018126            0            0            0    14159.205    10638.089    9505.9446    10218.544   -1270.9314    -1979.109   -46.396112 
   61000    246.09065   -315.19746   -254.15462   -315.19746            0    7417.9371    24.935454    24.848819    22.903123            0            0            0    14191.155    9532.1918    5246.7653    7474.8541    2163.0402    715.17789   -622.38414 
   61500    251.66102   -313.98982   -251.56525   -313.98982            0    6032.4896    24.920433     24.97626    22.732684            0            0            0     14149.26    5447.4794     5693.532    6956.4573    -604.5619   -440.48742    -966.9201 
   62000    248.83539   -313.80241   -252.07873   -313.80241            0    6585.1981    24.811654    25.001888    22.836039            0            0            0    14166.067    7050.9735    5349.1618    7355.4589    1290.6286   -104.97323     -2145.14 
   62500    243.65832   -314.00018   -253.56068   -314.00018            0    4495.5845    24.838558    24.753426     23.09558            0            0            0    14200.073     2732.055    6532.1806    4222.5178   -155.95161   -756.59488    938.46033 
   63000    253.84707   -312.50241   -249.53559   -312.50241            0    9162.4714    24.852519    24.723039    23.075555            0            0            0    14178.308    7245.5911    10776.947    9464.8759    22.374059    778.77459    1270.3093 
   63500    241.66847   -314.44255   -254.49663   -314.44255            0    8196.9916    24.902525    24.966404     22.86256            0            0            0    14214.259    7736.9887    8219.2329    8634.7533    1662.1086   -1149.9947    395.87011 
   64000    252.64771   -313.76783   -251.09851   -313.76783            0    6162.4638    24.880702    24.952325    22.762466            0            0            0    14131.653    5970.6351    4472.6775    8044.0787   -446.57653    1893.4082   -520.66186 
   64500    240.96487   -314.12804   -254.35665   -314.12804            0    5642.7517    24.892149    24.883926     22.93474            0            0            0    14206.108    6305.5499    5001.4065    5621.2987    881.32517   -570.08616    1835.6007 
   65000    240.92083   -315.80569   -256.04523   -315.80569            0    8732.5563     24.81793    24.795369    22.961963            0            0            0    14130.096    10002.848    8068.3689    8126.4519   -428.05405   -975.95577   -374.18031 
   65500    243.22541   -315.11819   -254.78607   -315.11819            0    5969.2188    24.849746    24.885855    22.960122            0            0            0    14198.704    5353.0294    5215.1173    7339.5096   -200.28862   -1200.9787   -2681.0448 
   66000    255.92315   -314.16001   -250.67821   -314.16001            0    6333.0072    24.817167    24.912103    22.862414            0            0            0    14134.637    6137.3714    6109.2207    6752.4295   -1732.1161   -394.43013   -678.28356 
   66500    253.16025    -313.9991   -251.20264    -313.9991            0    9145.0219    24.913651    24.910746    22.941962            0            0            0    14238.186    6658.1853    11148.693    9628.1871   -401.01473   -856.80714   -344.02877 
   67000    244.30325   -314.55597   -253.95649   -314.55597            0    7413.1284    24.845195    24.706466    22.978706            0            0            0    14105.179    7504.0354    7137.4791    7597.8707    1569.1608    713.47651   -1235.5365 
   67500    243.96412   -315.32602   -254.81067   -315.32602            0    5474.0753    24.867128    24.848393    23.054896            0            0            0    14245.809    6759.9651    3410.7544    6251.5063    825.48842    -1015.359    -1198.535 
   68000    249.45794   -316.60535   -254.72725   -316.60535            0    8409.9323    24.799111     24.89304    22.848866            0            0            0    14105.182    9703.4114    7011.5319    8514.8537    240.90161    483.36199   -541.91627 
   68500    244.87741    -313.8781    -253.1362    -313.8781            0    5140.7445    24.957521    24.918014    22.858865            0            0            0    14215.742    5343.6954     3257.648    6820.8903   -1135.8677    74.963685   -1075.1621 
   69000    243.74556   -315.54903   -255.08789   -315.54903            0    9691.3847    24.960884     24.75738    22.893445            0            0            0    14147.372    7393.5956    10944.414    10736.144    223.65142   -480.97449   -1659.0719 
   69500     239.6298   -314.98672   -255.54649   -314.98672            0    8340.6285    24.807682     24.81643    22.967234            0            0            0    14139.504    7719.2756    7920.5232    9382.0867    725.71652    -1997.133    974.20118 
   70000    246.65963   -316.13689   -254.95291   -316.13689            0     6373.079    24.780025    24.936726    22.993357            0            0            0    14208.347    4545.0806    8989.4616    5584.6947    1072.8701    1523.4334   -1263.8119 
   70500    247.02529   -315.84763   -254.57295   -315.84763            0    8587.6313    24.864506    24.784195    22.904944            0            0            0    14115.097    5611.5829    10522.935    9628.3762    463.45807    2.8866383    370.67308 
   71000    241.44164   -315.54972   -255.66007   -315.54972            0    8047.3203    24.959095    24.859356    22.918316            0            0            0    14220.059    9757.2149    7589.0637    6795.6825    524.21858      1013.48   -324.14503 
   71500    247.36462   -315.11076   -253.75191   -315.11076            0    8089.4721    24.788006    24.864397    22.853206            0            0            0    14085.318    8075.8419    10263.773    5928.8019   -1275.6776     328.1676   -378.58945 
   72000    251.57376   -312.78237   -250.37945   -312.78237            0    5868.3763    24.892442    24.939831    22.962198            0            0            0    14255.237    4307.0008    6768.0801    6530.0482   -772.13991    168.85433   -894.44873 
   72500     245.9919   -314.19792   -253.17958   -314.19792            0    8150.0785    24.825775     24.80031     22.92216            0            0            0    14112.874    9945.0829    6768.5723    7736.5803   -1635.0629    -2247.587   -1775.4555 
   73000     242.2866   -314.98915   -254.88991   -314.98915            0      5353.54    24.876358    24.857891    22.961249            0            0            0    14198.635    4666.7892    6890.9455    4502.8853    -1122.973   -440.91532   -633.26106 
   73500    251.77208   -314.65616   -252.20404   -314.65616            0    9694.7911    24.901538    24.880289    22.840936            0            0            0    14151.273    9972.6547    11320.561    7791.1579     920.0169    166.45713    1031.5636 
   74000    250.02452   -315.22146   -253.20282   -315.22146            0    7065.5095    24.820785    24.910903    22.817044            0            0            0    14107.964    7930.2518    6690.8423    6575.4344    764.90957   -775.32265   -2405.8699 
   74500    245.72365   -314.04933   -253.09753   -314.04933            0    4825.0638    24.860051    24.896922    23.042261            0            0            0    14261.748    5381.2631    6148.5324    2945.3959    484.28154   -2815.5056    733.88775 
   75000    246.91445   -313.20509    -251.9579   -313.20509            0    8701.4415    24.815801    24.666758    22.986072            0            0            0    14070.357    9309.0437    8846.0203    7949.2606   -355.97055    2861.7061    369.71502 
   75500    248.21597   -315.39625   -253.82623   -315.39625            0    5516.0455    24.970415    24.907794    22.928881            0            0            0      14260.8    5081.7414    5997.8651      5468.53    -1297.126     156.9411    694.25318 
   76000      246.722   -314.74854   -253.54909   -314.74854            0    6158.7979    24.790693    24.921492    22.794012            0            0            0     14082.62     5348.083    5923.1405    7205.1702   -802.80861    1788.6665    982.32748 
   76500    237.35142   -317.65964   -258.78457   -317.65964            0     6239.167    24.821601    24.930264       22.976            0            0            0    14217.757     7380.042    5049.3671    6288.0918    1364.0287    1009.9542   -2279.5536 
   77000    238.94764   -316.78216   -257.51114   -316.78216            0    7010.4785    24.892816    24.652273    22.978481            0            0            0    14101.078      5887.62     8649.212    6494.6035   -12.170056   -1168.9573    1649.2096 
   77500    245.86518   -315.89024   -254.90333   -315.89024            0    6568.6915    24.934211     24.77413    22.964372            0            0            0    14185.629    6164.6103     6460.379     7081.085    18.492394    3033.1682   -907.26524 
   78000    253.73835   -313.49408   -250.55423   -313.49408            0    6610.8023    24.811673    24.989563     22.86657            0            0            0    14178.025     7988.875    4495.0234    7348.5085   -314.72027   -62.300742      -719.41 
   78500    250.14573   -316.97964   -254.93094   -316.97964            0    4756.9859    24.782089    24.914281     22.87827            0            0            0    14125.683    6698.6789    3235.8868     4336.392    474.34374    151.13494    3030.6055 
   79000    238.17396    -314.6432   -255.56409    -314.6432            0    5401.3816     24.91449    24.753446    22.981926            0            0            0    14173.401    3784.7074    5924.2501    6495.1873   -800.44634     598.3714    -487.7448 
   79500    244.54029   -313.71572   -253.05745   -313.71572            0    8018.2348    24.833143    24.807278    22.995689            0            0            0    14166.326    10569.666    9127.3492    4357.6892    918.54178   -1049.6962    655.57099 
   80000    251.09059   -315.18546   -252.90239   -315.18546            0    5503.7541    24.823925    24.917436    22.923838            0            0            0    14179.507    7263.2849    2941.8767    6306.1005    348.32495    2667.8275   -146.42964 
   80500    243.50137   -314.46948   -254.06891   -314.46948            0    6177.8303     24.83589    24.903191    22.897171            0            0            0    14161.737     6534.302    3604.2752    8394.9137   -448.99335   -319.30253    153.37271 
   81000    244.81268    -314.2685   -253.54266    -314.2685            0    9807.1129    24.851145    24.840446    22.939188            0            0            0    14160.671    12428.689    8726.1613    8266.4884   -233.87485    395.76183   -369.21143 
   81500    245.68272   -316.19142   -255.24977   -316.19142            0    6346.7162    24.849645    24.848979    22.943998            0            0            0     14167.65    7269.1763     4282.946    7488.0263   -414.11025    815.66918    326.88747 
   82000    252.85215   -316.25812   -253.53809   -316.25812            0    7073.9256     24.84194    24.864118    22.881763            0            0            0    14133.446    5670.4965    8509.6102    7041.6702    584.80162   -1886.2751   -1754.6652 
   82500    250.96615   -312.69108   -250.43887   -312.69108            0    7294.6269    24.935363    24.947961    22.875505            0            0            0    14230.542    6701.9651    6980.0913    8201.8243     1414.372   -105.14988    460.98221 
   83000    245.71214   -312.94137   -251.99242   -312.94137            0    9349.7997    24.889998    24.797517    22.848691            0            0            0    14102.444    11229.787    7833.6919    8985.9203   -269.36277   -159.89943   -184.45391 
   83500    240.27364   -313.16583    -253.5659   -313.16583            0    7075.9448    24.842616    24.829661    23.124097            0            0            0    14263.723    9268.8923    5471.7503    6487.1918    539.35631    1642.4269   -1343.2355 
   84000    249.11999   -312.10949   -250.31522   -312.10949            0    6269.8239    24.724096    24.803009    23.016372            0            0            0    14114.376    7823.6859    5766.0287    5219.7572    1481.5647   -807.79808    1030.8269 
   84500    239.99812   -313.30458     -253.773   -313.30458            0    6582.5257    24.939413     24.94296    22.875779            0            0            0     14230.17    3571.5277    7920.1307    8255.9188   -849.38781    872.82161    62.270506 
   85000    246.86558   -314.84731   -253.61225   -314.84731            0    5771.7237    24.893538    24.835913    22.785727            0            0            0    14087.361    7576.5013    5358.3254    4380.3444    1998.0655    275.34188    7.6570508 
   85500     244.6626   -312.38766   -251.69905   -312.38766            0    6508.2141    24.859827    24.803683     23.03199            0            0            0    14201.877     6605.854    7243.6753     5675.113   -578.89643   -254.83597     1797.403 
   86000    251.19383   -314.87012   -252.56143   -314.87012            0    8848.6856    24.781955    24.750026    23.100904            0            0            0    14169.033     10208.43     9485.306    6852.3206   -3055.0929    855.93447    130.02754 
   86500    243.96401   -315.57396   -255.05863   -315.57396            0    8272.7208    24.822425    24.864685     22.90577            0            0            0    14137.482    9732.5908    8607.3492    6478.2225   -584.87846    406.95219   -2026.1672 
   87000    247.77943   -315.48601   -254.02427   -315.48601            0    7520.5675    24.933472    24.976673    22.784631            0            0            0    14189.247    5899.2392    7447.8266    9214.6367   -275.39244    500.23963    -660.8261 
   87500    252.20035   -316.54401   -253.98566   -316.54401            0    6317.4269    24.889473    24.854828    22.835235            0            0            0    14126.415    5532.6474    5839.4415    7580.1919   -1436.4463    -846.5897     1325.671 
   88000    247.15268   -312.99888    -251.6926   -312.99888            0     6271.371    24.861132    24.836583     23.04826            0            0            0    14231.507    5630.6097    5529.2038    7654.2995   -229.51212   -844.15689    1708.8038 
   88500    245.68499   -314.64169   -253.69948   -314.64169            0    6115.8487    24.775201    24.788779    22.991078            0            0            0    14119.901    6220.6559    7872.8678    4254.0222   -44.485565   -2420.3047    1045.7039 
   89000    235.08951   -316.12208   -257.80808   -316.12208            0    5816.7747    24.908484    24.853951    22.922746            0            0            0    14190.881    3962.9377     7569.248    5918.1383    1017.6235    1355.6963    436.00386 
   89500    235.27444   -315.36361   -257.00373   -315.36361            0    8505.2362    24.845178    24.854702     22.85763            0            0            0    14115.032    7971.3701    10022.889    7521.4492   -1038.4632    58.482371    1350.9898 
   90000    237.08948   -316.25251   -257.44241   -316.25251            0     5808.967    24.837271    24.882739    22.939626            0            0            0    14177.132    4406.1625    9431.2143    3589.5243     340.6911    1814.7494    1538.8335 
   90500    250.10914   -315.25222   -253.21259   -315.25222            0    7027.6264    24.866634    24.790523    22.961696            0            0            0    14154.895    5632.0131    7394.0256    8056.8404    875.65361    235.71103    76.491239 
   91000    239.61857    -313.7547   -254.31726    -313.7547            0     10146.16    24.920481    24.792322    22.934358            0            0            0    14169.686    8848.5984    11190.123    10399.759   -383.63816   -2257.3381    1176.4326 
   91500    238.76921   -314.55463   -255.32787   -314.55463            0    4412.8223    24.925877     24.96561     22.81742            0            0            0    14199.046    3115.2435    4081.8877    6041.3355    719.68329   -747.07436    812.12849 
   92000    246.00108   -315.01234   -253.99172   -315.01234            0    7540.1472    24.804424    24.896671    22.802491            0            0            0    14081.623    6874.6105     7775.028    7970.8033   -178.14778    789.24676    -76.21142 
   92500    247.86393   -315.61534   -254.13264   -315.61534            0    4573.0004    24.904628    24.814555    23.135018            0            0            0    14297.378    1436.2521     7092.625    5190.1241    477.78879     886.7922   -1179.7885 
   93000    245.53429   -313.66509   -252.76026   -313.66509            0    8972.0918    24.794583    24.618093    22.999241            0            0            0     14038.63    9305.5409    9455.0383    8155.6961    -767.0418    2546.7561   -581.49635 
   93500    239.15514   -314.73648   -255.41399   -314.73648            0    6292.7867    24.907108    25.005116    22.899239            0            0            0    14261.763    7826.9394    4039.8754    7011.5452   -1341.4045   -1523.7318   -1704.3299 
   94000    242.45027   -314.54159   -254.40174   -314.54159            0      8559.76    24.793167    24.934943    22.765184            0            0            0    14073.806    9745.0455    8065.1046    7869.1297   -264.44147     215.5195    318.95422 
   94500     240.4195   -314.16593   -254.52982   -314.16593            0    8227.9068    24.884822    24.870489    22.968293            0            0            0    14215.023    9872.8552    7350.1312    7460.7338   -722.95552    -576.6478     1082.128 
   95000    246.93618   -316.67335   -255.42078   -316.67335            0    8866.2032    24.847549    24.721126     22.95099            0            0            0    14097.861    6113.1682    12926.711    7558.7304   -612.73286     394.2785   -1387.9112 
   95500    246.41516   -314.76638   -253.64305   -314.76638            0    5183.7308    24.857822    24.930807    22.917097            0            0            0    14202.311    4070.5769    7263.2454    4217.3701     808.0664    3633.5016    1309.1398 
   96000    242.50576   -313.81879   -253.66519   -313.81879            0    8595.8523     24.81868    24.974056    22.846929            0            0            0    14161.055    8498.7617    8889.1791    8399.6161   -781.37098    487.42826    1310.3798 
   96500    242.69436   -313.97351   -253.77312   -313.97351            0    6741.4253    24.892027     24.82868    22.881455            0            0            0    14141.567    6398.2134    6567.9733    7258.0891   -312.06326    1594.5268    2201.3791 
   97000    241.36152   -313.57947   -253.70969   -313.57947            0    6138.3986    24.931805    24.815816    23.007225            0            0            0    14234.641    6402.3725    9114.0293    2898.7939   -1319.7521    350.96772    -1967.079 
   97500    239.65891   -313.34474   -253.89729   -313.34474            0    7603.3105     24.75336    24.803776    22.926764            0            0            0    14076.501    7267.0958    7247.0939    8295.7417    933.29457    2316.3983    1356.7577 
   98000    244.12385   -315.57319   -255.01822   -315.57319            0     5000.534    24.892121    24.973748    22.958023            0            0            0    14271.845    4701.7352    4903.2997    5396.5671    57.812664   -2626.9573   -773.69967 
   98500    247.32632    -316.5576   -255.20826    -316.5576            0    6590.7683    24.876395    24.773174    22.778772            0            0            0    14037.811    6965.7264    5688.4582    7118.1203   -1040.1353    904.08797    857.27424 
   99000    251.09064   -316.39595   -254.11287   -316.39595            0    4468.7201    24.941293    24.893784    22.934086            0            0            0    14239.387    3054.5726    4814.8559    5536.7317    1632.5004    297.45008    1249.9282 
   99500    251.91631   -312.86098   -250.37309   -312.86098            0     7195.187    24.770608    24.851455    22.960172            0            0            0    14133.953     9862.562    4366.3935    7356.6055   -1742.2657    890.43341   -978.42538 
  100000    250.26699   -315.64441   -253.56562   -315.64441            0    8197.1089    24.846695     24.86802    22.971994            0            0            0    14194.122    9147.1032    8142.2761    7301.9474    685.20927   -288.03176   -1159.1217 
  100500    243.06435   -313.96066    -253.6685   -313.96066            0    7557.8639    24.956038    24.814772    22.861149            0            0            0    14157.416    6666.3278    7915.0554    8092.2084   -1005.1217   -580.12388  -0.57171096 
  101000    247.59822   -315.56573   -254.14894   -315.56573            0     7885.579    24.855559     24.89521    22.865473            0            0            0    14148.797      7999.94    8082.8645    7573.9326   -786.24808   -404.38093     607.6157 
  101500     252.4854   -316.38754   -253.75848   -316.38754            0    7512.0134    24.771197    24.911573    22.945733            0            0            0     14159.57    5765.6232    9498.1416    7272.2754    578.61757    633.73312   -2810.3736 
  102000    250.97566   -314.50803   -252.25346   -314.50803            0    6861.9625    24.848282    24.793122    22.980281            0            0            0    14157.381    8150.5449    7348.3015    5087.0412    521.41843    70.928929    185.64922 
  102500    234.98309   -313.64859   -255.36099   -313.64859            0    5778.8331    24.950415    24.820798    22.908482            0            0            0    14186.975    5661.7489     3822.125    7852.6254   -266.78592   -893.40441   -506.26709 
  103000    239.56776   -314.61176   -255.18692   -314.61176            0    6983.1528    24.844888    24.940739    22.783485            0            0            0    14117.783    6390.9284    8031.2889    6527.2413    1043.9249   -1130.4129   -273.34522 
  103500    241.54339   -314.85353   -254.93864   -314.85353            0    6619.1338    24.828255    25.031212    22.859152            0            0            0    14206.536    7191.5891    6577.5539    6088.2584   -141.60212   -481.97042   -883.08388 
  104000    247.36169   -314.69643   -253.33831   -314.69643            0    7541.1172    24.895407    24.735036    23.012697            0            0            0    14170.961    5917.8948    9371.5498     7333.907   -606.11492   -2035.5639    1082.3208 
  104500    244.03905   -315.99419   -255.46025   -315.99419            0    6913.6223    24.875045     24.70448    23.028956            0            0            0    14151.871    10448.692    6509.9143    3782.2607    2349.5375   -3180.4764   -186.65975 
  105000    246.44137    -313.0109   -251.88106    -313.0109            0    7776.8602    24.810606    25.043703    22.894828            0            0            0    14225.688    8566.1918     6492.005    8272.3839   -1209.7778    1850.3136    1331.3554 
  105500    257.10751   -314.20673   -250.43115   -314.20673            0    8748.2649     24.82875    24.948059    22.753915            0            0            0    14094.438    8265.2926    7313.7565    10665.746    617.75314    2300.3174    1463.7151 
  106000    248.31406   -314.72329   -253.12893   -314.72329            0    6750.2109    25.001472    24.817657    22.947623            0            0            0    14238.494    6734.7991    5379.0774    8136.7564   -543.72022   -806.15313    651.97196 
  106500    250.87689   -314.03876   -251.80869   -314.03876            0    8451.5783    24.825853    24.739673     22.98821            0            0            0    14118.979    7920.6378    11361.013    6073.0846    -631.8084    1494.8224   -417.69765 
  107000    241.49961   -313.87918   -253.97515   -313.87918            0    7133.5753    24.822314    24.957818    22.948072            0            0            0    14216.579     5846.066    5051.7229    10502.937    41.256617    1441.6914   -1826.1075 
  107500    247.23892   -312.74525   -251.41758   -312.74525            0    8811.9192    24.865279    24.895394     22.81971            0            0            0    14126.106    6484.8534    9404.9683    10545.936   -488.71008    1231.5507   -369.04006 
  108000    249.49229   -313.96293   -252.07632   -313.96293            0    6953.0637     24.95588    24.858866    22.919343            0            0            0    14218.585    7552.0114     6777.369    6529.8108    126.41188    1332.3691   -367.32873 
  108500    248.43542   -314.09919   -252.47473   -314.09919            0    9086.6771    24.850403    24.803231    22.911488            0            0            0    14121.961    9218.2294    8016.6148    10025.187    1192.0559    266.86979   -495.27196 
  109000    243.33287   -314.79584   -254.43707   -314.79584            0    7218.3829    24.831611    24.900641    22.980621            0            0            0    14209.448    6994.0491    6484.0857     8177.014   -31.908062    857.64034    1141.4856 
  109500    244.78482   -313.83807   -253.11914   -313.83807            0    5493.0471    24.842451      24.8633    22.927235            0            0            0    14161.358    7433.8784    4095.9283    4949.3346    270.14099   -893.31554    455.53598 
  110000    246.51808   -314.14267   -252.99381   -314.14267            0    6371.5607    24.958464    24.905192    22.823862            0            0            0    14187.206    5878.4985    7943.1241    5293.0596    340.78034   -1260.3019   -535.19661 
  110500    245.92684   -316.13313   -255.13092   -316.13313            0    8462.8599    24.909563    24.873086    22.822784            0            0            0    14140.488     7921.088    8125.3787     9342.113    1997.6365    -750.0861    392.01362 
  111000    246.53222   -315.44482   -254.29245   -315.44482            0    6187.2823    24.823119    24.798058    23.024713            0            0            0    14173.211    5200.0203    7053.7916    6308.0351    1207.8572   -1677.1244   -563.35646 
  111500    244.26043   -314.37407   -253.78521   -314.37407            0    5377.2933    24.815822    24.839905    23.107089            0            0            0    14243.733    8582.3394    3670.0033    3879.5372   -1027.0772   -2010.0243   -1170.0531 
  112000    241.34409   -314.54129   -254.67584   -314.54129            0    8738.5541    24.809323    24.855821    22.818252            0            0            0    14071.014    6401.6948     10569.81    9244.1572    620.82618   -1350.5785   -569.81955 
  112500    244.15174   -315.68824   -255.12635   -315.68824            0    5623.2054    24.965541    24.965159    22.805038            0            0            0    14213.666    5735.0487    4600.9878    6533.5796    1442.4537   -1118.3805    1056.8203 
  113000    238.54731   -313.35916   -254.18744   -313.35916            0    6106.7107    24.809485    24.768393    22.918701            0            0            0    14083.337    5160.7658     6525.115    6634.2511   -423.51605   -438.27869    223.19495 
  113500    244.81284   -313.94451   -253.21863   -313.94451            0    7932.4649    24.852305    24.824055     23.10785            0            0            0    14256.041     9855.269     7662.807    6279.3188    131.67852    726.60326     806.9089 
  114000    239.94625    -313.6974   -254.17868    -313.6974            0    8321.5223    24.759203    24.791792    22.882387            0            0            0    14045.782     8837.103    8588.9599     7538.504   -1937.5532    -404.9995    302.36982 
  114500    248.81547   -314.43713   -252.71839   -314.43713            0     5474.021    25.003739    24.972032    22.887845            0            0            0    14291.037    7058.0943     5745.681    3618.2876   -64.304305   -1407.5195    1148.7965 
  115000    244.21203   -311.81806   -251.24121   -311.81806            0    9167.5392    24.862749    24.806378    22.834135            0            0            0    14083.061    12592.079    7514.4778     7396.061   -702.90062   -81.845006   -3848.1087 
  115500    244.38923   -314.52925   -253.90845   -314.52925            0    8528.6604     24.86348    24.900426    22.956641            0            0            0    14212.715    12350.255    7145.6003    6090.1253    1584.8951    307.94983    1961.6133 
  116000    244.99204   -317.03974   -256.26941   -317.03974            0    8179.0692    24.820185    24.875905    22.938336            0            0            0    14162.692    7716.5642    11081.688    5738.9555    419.65553    1362.0928   -192.91328 
  116500    239.29681   -312.48021   -253.12258   -312.48021            0    8392.4403    24.823404    24.823755    22.935415            0            0            0    14133.035    10912.558    7765.7301    6499.0331    1515.3801     845.7167   -364.46658 
  117000    238.09996   -314.51315   -255.45241   -314.51315            0    7131.4484     24.90077    24.853349      22.9718            0            0            0      14216.5    7152.6773    6210.4667    8031.2011   -639.89272    1115.2375   -480.89542 
  117500    240.98046   -315.57398   -255.79872   -315.57398            0    7435.5154    24.784924    24.820101    22.857597            0            0            0    14061.178    6887.7326    9176.0444    6242.7691   -1271.6813    1048.3454    1127.2634 
  118000    233.47406   -314.40328   -256.48999   -314.40328            0    6314.6979     24.89126     24.97238    22.931513            0            0            0     14254.09    7176.2821    3786.8284    7980.9833    207.59002    715.33047   -1245.9074 
  118500    242.70308   -313.85203   -253.64948   -313.85203            0    7778.8535    24.776444    24.808534    22.866512            0            0            0    14055.296    8238.4459    7287.9495     7810.165   -728.80459    368.53613   -567.36942 
  119000    246.86285   -316.02494   -254.79056   -316.02494            0    6018.2875     24.90926     24.84233    23.025676            0            0            0    14248.382    2780.0633    7482.9662    7791.8331    690.87368    594.47966    647.52322 
  119500    247.04445   -314.44104   -253.16161   -314.44104            0    8155.8579    24.803224    24.794669    22.926947            0            0            0     14099.79     7654.166    7818.8245    8994.5831   -134.85905    1930.2136    441.99935 
  120000    238.93942   -312.60991   -253.34093   -312.60991            0    7327.1323    24.892169    24.993478    22.893202            0            0            0    14242.819    5077.8329    6082.7747    10820.789    780.24519    1198.7156    -1082.177 
  120500    238.24319   -312.23389   -253.13761   -312.23389            0     9708.189    24.841368    24.805066    22.790884            0            0            0    14043.555     6381.312    10607.886    12135.368   -174.89965   -1317.9967    -962.3259 
  121000    240.97258   -314.17993   -254.40663   -314.17993            0    3996.7497    25.020418    24.819212    23.004031            0            0            0    14285.205    4639.0669    2448.2052    4902.9769    964.99794   -671.04526    638.49499 
  121500    247.71516   -315.54368   -254.09788   -315.54368            0      8190.51    24.701023      24.7383    23.002132            0            0            0    14055.713    6815.6169     9050.295    8705.6181    150.26368   -1541.2577   -332.82242 
  122000    241.70093   -314.15418   -254.20021   -314.15418            0    7150.9955    24.739306     24.96288    23.018208            0            0            0    14215.224    8517.1558    5612.5112    7323.3195   -564.09089   -214.33069   -1686.8667 
  122500    242.53576   -311.33778   -251.17673   -311.33778            0    8517.2701     24.90842    24.872361    22.855159            0            0            0    14159.485    11381.257    7144.2958    7026.2571    877.39867    2643.5646    -1420.477 
  123000    243.20281   -314.81824   -254.49173   -314.81824            0    9731.7841     24.96043    24.763104    22.878414            0            0            0    14141.096    8342.9089    9670.5579    11181.886    192.57082    2313.5345   -2471.1194 
  123500    245.05501   -314.45642   -253.67047   -314.45642            0    6781.2781    24.821334    24.842444    22.931532            0            0            0    14140.101    4595.8571    8755.4653    6992.5121    334.88026    2636.2057   -1426.4769 
  124000    244.99216   -314.16759   -253.39724   -314.16759            0    7627.5792    24.794111     24.86093    22.946833            0            0            0    14144.535    5573.8489    8187.8225    9121.0664    508.76674    471.66029   -1001.6861 
  124500    248.71223    -313.6128   -251.91967    -313.6128            0    3494.2103     24.87123    24.872366    22.931495            0            0            0    14185.568    5659.8381   -81.164957    4903.9577    465.70433   -922.81048    426.34242 
  125000    251.52598   -312.53708   -250.14601   -312.53708            0    7655.2036    24.884899    24.803582    22.882113            0            0            0    14123.632    5882.5389    9243.8367    7839.2353    1671.0631    1392.0413    524.54634 
  125500    245.24613   -314.16237   -253.32901   -314.16237            0    6564.9273     24.90202    24.844215    22.989989            0            0            0    14223.243    4245.0798    8291.6677    7158.0344   -39.650193    293.06972   -3185.2947 
  126000    252.29353    -314.5158   -251.93433    -314.5158            0    8634.2876    24.785037    24.773912    22.980569            0            0            0    14110.582    8945.2516    7420.7765    9536.8346    248.02358   -472.60121    339.98441 
  126500    246.80409   -316.50743   -255.28762   -316.50743            0    6473.1774    24.845702    24.967002    22.903017            0            0            0    14207.261    8340.0079    5028.4357    6051.0886   -2344.9312   -971.88551    3085.2992 
  127000    246.60768   -314.49146   -253.32037   -314.49146            0    7449.6244     24.89896    24.908514    22.751989            0            0            0    14110.694    5917.2612    7564.2896    8867.3225   -861.19572   -2099.9333    1390.7585 
  127500     247.6993   -315.05058   -253.60872   -315.05058            0    3546.1243    24.935381    24.829927    22.984662            0            0            0    14230.808    7249.3474    161.65603    3227.3695   -1994.1372    1086.7259    -35.97886 
  128000    246.90089   -314.79085   -253.54703   -314.79085            0      7218.61    24.718201    24.683285    23.111221            0            0            0    14100.766    9909.4901    5702.2968     6044.043    278.43469   -1835.3648    67.987391 
  128500    244.35985   -314.09564   -253.48212   -314.09564            0    3665.9955    24.802404    24.947435    23.022306            0            0            0    14245.198     2852.264    4967.6585    3178.0641   -781.40789    269.87738    260.90921 
  129000    242.70898   -312.49961   -252.29559   -312.49961            0    8151.9453     24.88855    24.914179    22.761672            0            0            0    14114.007    5635.2348     10441.55    8379.0511   -947.78277   -1128.0014   -800.54679 
  129500    245.17226   -313.46424   -252.64921   -313.46424            0    5675.5868    24.927118    24.868546    22.870135            0            0            0    14177.224    3224.9213    6004.3406    7797.4986    376.23834   -687.96803     880.2934 
  130000     250.7103   -315.69935    -253.5106   -315.69935            0    8688.2495    24.812274    24.772532    22.993288            0            0            0     14133.12    10367.518    6134.8453     9562.385    961.56827   -2286.6308    894.06796 
  130500    245.52531   -313.66185   -252.75924   -313.66185            0    5099.0963    24.775832     24.80894    23.043734            0            0            0     14164.11    6449.3907    3356.6712    5491.2271   -212.21371   -71.613606   -444.54735 
  131000    240.71327   -316.10771   -256.39873   -316.10771            0    6665.6695    24.871209     24.87559    22.900913            0            0            0    14168.474    4450.5375    9192.2396    6354.2313   -330.46269   -1590.2789     -474.039 
  131500    243.77221   -317.29563   -256.82788   -317.29563            0    7630.3685    24.901648    24.908846    22.746418            0            0            0    14108.951    9785.0128    3080.5488    10025.544     1841.663    635.68013    902.17149 
  132000    242.84614    -314.7784   -254.54036    -314.7784            0    5766.0671    24.940749    24.875377    22.898211            0            0            0    14206.291    5277.2374    8472.7392    3548.2246   -41.502689    1715.1411    334.31595 
  132500     251.4207   -313.61927   -251.25431   -313.61927            0    5998.5375    24.801589    24.731499    23.041946            0            0            0     14133.48    4960.4093    4833.4716    8201.7318   -188.87852   -2808.6442     1869.293 
  133000    249.01211    -313.9152   -252.14769    -313.9152            0    5598.2083      24.7821    24.881359    23.129918            0            0            0    14262.192    7102.2636    5246.3074    4446.0539   -813.39589    1013.8216     -973.131 
  133500    246.41267   -314.70637   -253.58365   -314.70637            0    5965.7478     24.82371    24.859922    22.896188            0            0            0    14129.592     8721.051    2757.6547    6418.5377     483.1071   -1727.0977    2528.3681 
  134000    239.05284   -314.71502   -255.41791   -314.71502            0    6688.9416     25.00361    24.888221    22.728597            0            0            0    14143.901    7390.8924    5913.4259    6762.5063     2275.681     1568.756    627.60158 
  134500    255.38115   -315.62001   -252.27266   -315.62001            0    8029.0152    24.909524    24.864131    22.867887            0            0            0     14163.31    5073.5451    10108.483    8905.0175    842.61281   -1109.9804    690.98764 
  135000    244.59706   -316.89453   -256.22217   -316.89453            0    5423.9484    24.690969     24.83613    23.088965            0            0            0    14158.802    7790.5701    4911.0265    3570.2487   -238.26014    1171.6669    989.46633 
  135500    246.23572   -315.48075   -254.40192   -315.48075            0    7193.9172    24.795773    24.838932    23.008905            0            0            0    14171.196     9034.286    3014.8034     9532.662    73.685918    421.21433    1555.5707 
  136000    243.62342   -313.75902   -253.32818   -313.75902            0    7371.4915    24.996122    24.853968    22.788322            0            0            0    14157.309    4479.1706    9429.2214    8206.0825   -864.40484    1198.0832    667.32103 
  136500    244.49104   -314.20501   -253.55895   -314.20501            0    7459.5388    24.900317    24.904229    22.830445            0            0            0    14157.688    9577.2776    5942.0421    6859.2967   -7.8487533   -103.37813   -780.78897 
  137000    248.79232   -314.56878    -252.8558   -314.56878            0    7382.3275    24.775945    24.851356    23.050136            0            0            0    14192.334    8311.9221    6858.3328    6976.7278    911.32014   -400.94654    2452.2432 
  137500    249.50645   -312.77368   -250.88355   -312.77368            0    6122.8366    24.824081    24.811478    23.027098            0            0            0      14182.9    6176.2222    6070.4288    6121.8588    199.67554    1276.9033   -1621.5186 
  138000    249.86776   -314.28785    -252.3081   -314.28785            0    4321.8407    24.970055    24.859287    22.903772            0            0            0    14217.236    3430.3973    4801.6061    4733.5187   -266.48146     1022.856    155.47478 
  138500    240.49249   -312.97809   -253.32388   -312.97809            0    6950.3826     24.90995    24.851436     22.80564            0            0            0    14117.787    7997.2466    5019.9506    7833.9506   -405.35358   -1364.7013   -253.50281 
  139000    236.88962    -316.3058   -257.54528    -316.3058            0    6587.6369     24.80429    24.898641    22.946675            0            0            0    14171.709    5682.5295     6353.775    7726.6063    362.67692    914.74733   -51.095426 
  139500    247.07341    -314.7733   -253.48668    -314.7733            0    8825.6895    24.733937    24.762827    23.102654            0            0            0    14149.964    12157.549    5974.7555    8344.7644    259.98526   -463.33273    607.13045 
  140000    246.51839   -313.61789   -252.46895   -313.61789            0    6637.1158    24.931834    24.802154    22.975779            0            0            0    14207.376    4897.5747    8647.3644    6366.4081    772.25243    865.06345   -1746.5836 
  140500    249.93244    -312.9926    -250.9968    -312.9926            0    6592.8879     24.95465    24.913886    22.727734            0            0            0    14130.225    7611.8932    5069.2217    7097.5487    516.26155   -3711.4196   -623.85713 
  141000    246.86163   -315.01566   -253.78158   -315.01566            0     3540.238    24.867681    24.984387    22.865108            0            0            0    14206.178    4657.3345    1943.5311    4019.8483   -1114.1086   -2387.4127    3636.0126 
  141500    243.32597   -314.25334   -253.89628   -314.25334            0    10245.383    24.756582    24.744441    23.049409            0            0            0    14119.786    15012.556    7428.3522    8295.2392    299.87929   -613.52681    2091.7057 
  142000    242.97319   -313.84723   -253.57768   -313.84723            0    5550.4859    24.873871    24.754354    23.116197            0            0            0    14233.489    4668.3613    6128.8051    5854.2914     743.5964   -915.74466    -2078.147 
  142500    248.91572    -313.5204    -251.7768    -313.5204            0    8703.5104    24.844286    24.878782     22.87036            0            0            0    14136.069    9353.1205    5813.2092    10944.201    289.13434   -1067.8181   -1336.6556 
  143000    246.48744   -314.26743   -253.12616   -314.26743            0    8908.0453    24.872262    25.030599    22.815689            0            0            0    14204.309    9034.4156    8324.7232    9364.9972    1341.0736    -408.6137   -250.71502 
  143500    246.61345   -314.03691   -252.86439   -314.03691            0    9525.5719    24.867489     24.84802     22.90087            0            0            0    14150.628    8039.3958    9048.6659    11488.654   -1070.8708   -1689.0696    172.21022 
  144000     246.3319   -314.07544   -252.97276   -314.07544            0    8623.0202    24.882768    24.784482    23.018975            0            0            0    14195.952    7587.0729    6541.4056    11740.582    320.15458   -797.25276    3334.2835 
  144500    246.11106   -313.67626   -252.62835   -313.67626            0    6830.6206    24.806187     24.82761     23.00647            0            0            0    14169.187     6629.757    9064.0601    4798.0447   -1576.4377   -1975.6622   -567.05988 
  145000    237.06943   -312.08103    -253.2759   -312.08103            0    6420.9054       24.829    24.949184    22.893956            0            0            0    14181.965    4836.3683    8474.4758     5951.872    84.556538    1055.2924    1429.8362 
  145500    243.50679    -314.0574   -253.65549    -314.0574            0    7921.8855    24.915159    24.876633    22.840923            0            0            0    14156.925    8871.2387    4976.4424    9917.9755    -395.1432    112.92839    542.43445 
  146000    243.54185   -314.94114   -254.53053   -314.94114            0    7759.7761    24.894531    24.834941    22.932898            0            0            0    14178.361    3340.6095    11511.078    8427.6406   -624.60289    110.88357    256.95975 
  146500    239.40005   -314.52703    -255.1438   -314.52703            0    7842.4806    24.817849    24.811005    23.012804            0            0            0    14170.267    8855.0934    6159.1475    8513.2009    83.939734   -2587.6031   -1789.4661 
[...]
  365000     248.0243   -314.14728    -252.6248   -314.14728            0     8276.573    24.821979    24.892819     22.88941            0            0            0    14143.116    8779.1709    6343.0218    9707.5262   -149.37102   -255.18987   -206.00422 
  365500    249.19002   -314.92862   -253.11698   -314.92862            0    5241.0702    24.932369    24.861303    22.952254            0            0            0    14226.981    4447.7927     5300.132    5975.2859   -1215.0228   -499.33369   -353.06711 
  366000    249.98236   -312.93168    -250.9235   -312.93168            0    10698.933    24.906281    24.745593    22.959432            0            0            0    14150.373    10409.599    10814.477    10872.725   -1366.1497     87.63221   -531.35513 
  366500    244.24774   -314.35649   -253.77078   -314.35649            0    6711.6968    24.795481    24.977864    23.018659            0            0            0    14256.334    8471.8535    7095.0888    4568.1481    1155.9974   -997.95215    1998.2256 
  367000    242.39147   -314.40809   -254.28283   -314.40809            0    7566.6028    24.747615    24.962848    22.909018            0            0            0    14152.526    5450.3295    7859.0125    9390.4665    14.879132    1453.2156    271.24008 
  367500    249.29061   -315.59646   -253.75987   -315.59646            0    8501.2824    24.986872    24.760661    22.913244            0            0            0    14176.229    9258.3554    8861.6844    7383.8074    133.06276   -432.82237   -841.58248 
  368000    246.74693   -313.41036   -252.20473   -313.41036            0    5582.3402    24.933093    24.796894     22.97874            0            0            0     14206.91    4130.1685    6450.8401    6166.0119    1079.2725   -1608.3956    781.00678 
  368500    245.14373   -314.98965    -254.1817   -314.98965            0    6874.8172    24.661569    24.952385    22.975648            0            0            0    14138.409    6796.5515    3212.5255    10615.375    120.52894    1068.0908    94.077259 
  369000     250.0565   -314.74031   -252.71374   -314.74031            0    7443.0172    24.875194    24.915098     22.97557            0            0            0    14239.521    5284.2025    7721.8518    9322.9973    929.23207   -510.71889   -281.37768 
  369500    244.08739   -312.88933   -252.34339   -312.88933            0    7313.7541    24.940907    24.729198    22.921207            0            0            0    14137.081     7742.187    7188.0009    7011.0745   -1182.3037   -1287.9244    992.89937 
  370000    249.84704   -314.84924   -252.87463   -314.84924            0    6661.6188    24.882098    24.889273    22.969999            0            0            0    14225.259    6599.7473     7172.583    6212.5261   -1150.4947   -628.24744   -93.979519 
  370500    237.09628   -314.09698   -255.28519   -314.09698            0    8749.4071    24.763497    24.939617    22.864484            0            0            0    14120.926    9872.6585    8545.3281    7830.2349    444.36465    2198.6416    977.78591 
  371000    242.75102   -316.37889   -256.16445   -316.37889            0    7047.4346    24.920475    24.828179    22.916741            0            0            0    14179.276    9287.7546    4348.4259    7506.1232    1030.4527   -1520.8931     719.1767 
  371500    247.70431   -315.28255   -253.83944   -315.28255            0    4901.2696      24.9314     24.72577    22.938252            0            0            0    14140.241    6037.9723    5790.3439    2875.4925     2077.972   -1156.0034    3237.3536 
  372000    245.42497   -313.70414   -252.82643   -313.70414            0    6688.5489    24.828969    24.928311    22.922684            0            0            0    14187.864     6929.729     5969.182    7166.7359   -141.62885    1102.9253   -367.78469 
  372500    244.54501   -315.43994   -254.78049   -315.43994            0    5091.1461    24.750304    24.983227     22.91132            0            0            0    14167.042    6006.0153    2384.7802    6882.6429    882.12666     24.97321   -691.08004 
  373000    237.74394   -316.94823   -257.97579   -316.94823            0    9095.0326    24.875337    24.759109    22.925927            0            0            0    14119.877    8876.4724    8849.1871    9559.4384    1222.6456    390.69033    -512.3927 
  373500    243.43481   -313.72901   -253.34495   -313.72901            0    9283.3784    24.943089    24.707161    22.979706            0            0            0    14161.771    9026.6372     10043.58    8779.9182   -550.71748    578.95861    60.496278 
  374000    244.03976   -313.94197   -253.40786   -313.94197            0    6455.5465    24.721134    24.962273    22.990565            0            0            0    14187.378    7127.2582    7406.6381    4832.7433    26.347644    566.32584   -95.105251 
  374500    248.81516   -312.59638   -250.87773   -312.59638            0     8451.522    24.753821    24.966734    22.920373            0            0            0    14165.296    10723.762    5009.2758     9621.528   -1208.6165   -1918.3113    1735.6477 
  375000    242.87667   -312.89409   -252.64848   -312.89409            0    4183.1133    25.081686    24.787382    22.857746            0            0            0    14210.874    6404.3359    3130.2366    3014.7674    1440.1335   -857.78023    1150.4449 
  375500    248.05074   -314.72487   -253.19583   -314.72487            0    8930.9538    24.960182    24.709803    22.880743            0            0            0    14111.954    7164.6568    7616.5632    12011.642    435.47744   -1414.6859    568.39709 
  376000    246.97066   -313.16295   -251.90183   -313.16295            0    6993.5979    24.731041    24.976348    23.017476            0            0            0     14217.69    10599.371    5523.9223    4857.4999    829.90691    2501.4553   -222.09913 
  376500    240.68878    -313.4906    -253.7877    -313.4906            0    4615.9107    24.743526    24.912051    22.942574            0            0            0    14142.077     2992.656    4221.5977    6633.4783    1144.3724   -475.36445   -2619.2219 
  377000    241.70372   -315.90665   -255.95199   -315.90665            0    7946.7622    24.949727    24.790788     22.89667            0            0            0    14162.126      6590.56    8775.9717    8473.7549   -692.90753   -31.425933    1235.5411 
  377500    243.15672   -315.93704   -255.62196   -315.93704            0    8272.0623    24.924953    24.839894    22.894067            0            0            0    14174.476    6704.7051    7961.1214     10150.36    997.76051    1492.0063    1302.1606 
  378000    246.24412   -315.14936   -254.06845   -315.14936            0    7072.9047    24.788718    24.876846    23.010228            0            0            0    14189.605    5028.7364    8767.3873    7422.5905   -1526.4467    943.10255   -1789.2814 
  378500     240.7022   -313.68558   -253.97935   -313.68558            0    7224.8048    24.780553    24.820917    22.999533            0            0            0    14146.462    7651.8087    6101.3296    7921.2761    113.51111   -1904.9358   -854.50804 
  379000    241.96649   -313.82983   -253.80999   -313.82983            0    5023.1334    24.920603    24.828818    22.924711            0            0            0    14184.645    3962.7215    8265.1167     2841.562   -1277.6856    933.50075    1871.7037 
  379500    237.43547   -314.38817   -255.49225   -314.38817            0    7965.9119    24.934158    24.861499    22.791383            0            0            0    14128.391    7608.4031    6319.2644    9970.0682    2009.4525    34.009068   -94.801677 
  380000    238.88748   -316.93506   -257.67897   -316.93506            0    7432.2119    24.852845    24.961659    22.876664            0            0            0    14191.955    6519.3599    8792.4339     6984.842   -366.21079   -90.508005    2769.2424 
  380500    243.01743   -313.36437   -253.08384   -313.36437            0     6514.176    24.738891     24.83572    22.997119            0            0            0    14129.618    9376.9898    4968.4581    5197.0799   -822.41657    2436.2398    590.41506 
  381000    245.98006   -314.75142   -253.73601   -314.75142            0    7736.3811    24.894143    24.699586    23.113335            0            0            0    14211.812    5831.6724    9857.2098    7520.2611    291.73112    2038.2298   -1027.6858 
  381500    252.08903   -312.64518   -250.11445   -312.64518            0    9066.5358    24.976834    24.857713    22.837227            0            0            0     14178.88    7301.4464    6452.0561    13446.105   -460.63217   -1388.2177   -614.02394 
  382000    244.88052   -313.97599   -253.23333   -313.97599            0    8301.6247    24.838919    25.051924    22.738958            0            0            0    14149.606    9107.7776    6630.7537    9166.3429    2080.1437   -698.11742   -906.28917 
  382500    252.59721   -313.49226   -250.83547   -313.49226            0    8903.8747    24.807567    24.920524    22.984556            0            0            0    14209.457    9316.6552    8477.7839    8917.1849   -1286.7897    1471.8258    130.74687 
  383000    251.85505   -312.91418   -250.44148   -312.91418            0    5757.2669    24.856043    24.717714    23.062062            0            0            0    14168.975    5471.9204     7400.617    4399.2632    226.49364    1510.9843     2016.233 
  383500    245.05678   -311.16554   -250.37916   -311.16554            0      7437.01    24.931827    24.849649    22.959598            0            0            0    14224.553    7204.6596    7239.7456    7866.6249    179.26092   -1030.7573   -713.30904 
  384000    238.70489   -314.80125   -255.59045   -314.80125            0     6661.356    24.855232      24.9221    22.846515            0            0            0     14152.15    8178.6354    5973.2093    5832.2232   -49.694019    451.62336   -288.72647 
  384500    245.55263   -316.48726   -255.57788   -316.48726            0    7573.5955    24.840228    24.886373    22.888746            0            0            0    14149.437    4737.2437    10074.278    7909.2652    1409.8098    -1051.357   -1079.2962 
  385000    239.13238   -315.33831   -256.02147   -315.33831            0    7735.6875    24.890972    24.823733    22.979854            0            0            0    14198.949    9013.7936    5920.6407    8272.6282   -354.11932    319.34824   -498.38731 
  385500    244.44585   -315.84046   -255.20561   -315.84046            0      8076.28    24.809326    24.793501    22.943686            0            0            0    14112.892    7745.3963    9562.2354    6921.2082   -517.94207    832.16301    676.43727 
  386000    248.87007   -314.23368   -252.50141   -314.23368            0    8076.6234    24.947477    24.946767    22.912779            0            0            0    14259.971    7919.4355    8233.2803    8077.1546    1059.4099    481.33982    1922.3155 
  386500    244.13514   -313.32454   -252.76676   -313.32454            0    6943.2893    24.880872    24.848482    22.825713            0            0            0    14112.041    8949.3827    4628.8358    7251.6494   -1364.0845   -491.55739    548.79763 
  387000    242.99892   -314.18367   -253.90774   -314.18367            0    5556.8031    24.914442     24.94503    22.946539            0            0            0    14261.079    5704.5718    4720.8593    6244.9782   -370.56149   -1029.7248   -2061.4557 
  387500    238.45745    -313.5967   -254.44728    -313.5967            0    9641.2624    24.781115    24.816876    22.907645            0            0            0    14087.969    10110.074    12784.831    6028.8822    258.27778    897.08375    -1038.766 
  388000    241.74381    -315.8193    -255.8547    -315.8193            0    2890.3074    24.904138    24.876381    22.958365            0            0            0    14223.277      3758.53    1337.9201     3574.472   -131.30674      448.566    1317.5182 
  388500    240.96194   -316.25311   -256.48245   -316.25311            0    9343.9544     24.84612    24.800736    22.888815            0            0            0    14104.135    7972.0443    11364.121    8695.6976    1925.1933    1003.7522    1629.5527 
  389000    236.03178   -314.62304   -256.07531   -314.62304            0    8360.8682     24.84108    24.890266    22.937053            0            0            0    14182.005    9709.4412    5650.0222    9723.1413    249.89587   -2036.9061   -960.21994 
  389500    236.97008   -315.32647   -256.54599   -315.32647            0    6969.7592    24.843822    24.827525    22.974494            0            0            0    14170.912    5679.3508    7339.3554    7890.5714   -374.60198    -1400.711   -2669.1912 
  390000    234.40963   -316.38738   -258.24202   -316.38738            0    8259.5161    24.849499    24.762311    22.935718            0            0            0    14113.059    7088.3659    10109.747    7580.4351    405.32188   -18.720892    446.06971 
  390500     243.6577   -313.65121   -253.21187   -313.65121            0    6706.7401    24.886644    24.924097    22.985067            0            0            0    14257.112     4763.841    9144.1651    6212.2143   -334.15737   -1919.4067   -806.48633 
  391000    252.73823   -315.24923   -252.55746   -315.24923            0     10126.16    24.764746    24.868289    22.857954            0            0            0    14077.227    7694.1046    11172.018    11512.357    357.26254    1521.0749    843.78992 
  391500    243.43122   -313.21344   -252.83028   -313.21344            0    4893.0836    24.970147     24.93633     22.98102            0            0            0     14309.45    3930.9831    6561.3976    4186.8702   -414.56125   -1189.5772    1807.7575 
  392000    240.94305   -314.63626   -254.87028   -314.63626            0    9390.6591    24.786234    24.756389    22.850163            0            0            0    14021.263    11470.216    7321.7714    9379.9897   -213.08732   -687.11252    419.23608 
  392500     246.7236   -314.70845    -253.5086   -314.70845            0    7222.3101    24.851063    24.969323    23.015353            0            0            0    14281.353    5819.6203    9358.1407    6489.1691   -752.34981    1352.8885    1113.7605 
  393000    241.95546   -311.97471    -251.9576   -311.97471            0    8292.3525    24.769401    24.843055    22.947999            0            0            0    14120.996    9055.2601    9304.9146    6516.8827   -458.97051    581.79009    451.46693 
  393500    244.85654   -314.43554   -253.69882   -314.43554            0    6339.2329     24.97025    24.868743    22.971669            0            0            0    14264.918    5435.9815    4537.4324    9044.2848   -371.50214   -1267.5898   -338.95162 
  394000    243.51007    -314.9651   -254.56237    -314.9651            0     6315.731    24.859033     24.75694    22.947309            0            0            0    14122.545      3340.09    7575.7626    8031.3404   -524.16317   -759.59371   -198.33327 
  394500    246.06208   -314.41479   -253.37904   -314.41479            0    4359.9201    24.814454    24.867063    23.040732            0            0            0    14217.574    4375.4096    4325.4243    4378.9266    632.22421   -864.31864   -46.874333 
  395000    243.26076   -314.53452   -254.19364   -314.53452            0    7227.0496    24.820941    24.916428    22.963287            0            0            0    14201.626    7895.1889    7991.8178    5794.1423   -933.51357   -82.815663    627.22509 
  395500    247.42694   -316.47958   -255.10528   -316.47958            0    6810.3446     24.87309    24.818376    22.888004            0            0            0    14128.987    4711.1453    7890.6729    7829.2157    2306.3618   -2398.1279     232.6691 
  396000    239.44491   -314.86326   -255.46889   -314.86326            0    5617.8973    24.895113    24.845974    22.967713            0            0            0    14206.525    4792.6101    6081.3692    5979.7126   -1074.1133    659.00035   -2484.4586 
  396500    249.50524   -313.29425   -251.40442   -313.29425            0    8204.9704    24.782137    24.836443    22.958085            0            0            0    14130.704    7802.0118    8692.3255    8120.5741    345.79123   -1937.6665     430.1204 
  397000    239.64373     -314.697   -255.25332     -314.697            0    5673.8877    24.840494    24.888933    22.966881            0            0            0    14199.352    6708.3959    4635.4815    5677.7855     1157.537    1256.6002    -6.182908 
  397500    246.25167   -313.88981   -252.80703   -313.88981            0    8356.6419     24.88029    24.820612    22.884641            0            0            0    14132.273    6881.4866    10602.584     7585.855     75.61248   -816.47703    742.72271 
  398000    244.20459   -314.94603   -254.37103   -314.94603            0    7874.1729    24.956731    24.898251    22.911315            0            0            0    14236.609    6693.3476    9824.3766    7104.7945   -1417.0901   -475.80332   -611.57271 
  398500    246.54097   -314.58976   -253.43522   -314.58976            0    7027.3723    24.785737    24.849136    22.947843            0            0            0    14133.671    4585.7832    9850.1304    6646.2034   -1396.5039   -754.00063    -1675.382 
  399000    241.63427   -316.52607   -256.58863   -316.52607            0    4293.3385    24.834896    24.813787    23.059982            0            0            0    14210.663    5344.7248    3031.5559    4503.7346    605.06259    512.87865   -935.80442 
  399500    237.21679   -314.27152   -255.42984   -314.27152            0    7855.4258    24.870591    24.814847    22.874184            0            0            0     14117.03    3291.9635    10294.074    9980.2398    390.66468    893.08364     558.6155 
  400000    243.57385   -316.29753   -255.87899   -316.29753            0    7189.5066    24.901685    25.054799    22.725954            0            0            0    14178.876    5602.4706    5439.4763    10526.573    2312.6633   -478.57907   -138.45384 
Loop time of 4380.61 on 1 procs for 400000 steps with 1920 atoms

Performance: 3.945 ns/day, 6.084 hours/ns, 91.311 timesteps/s
65.1% CPU use with 1 MPI tasks x 1 OpenMP threads

MPI task timing breakdown:
Section |  min time  |  avg time  |  max time  |%varavg| %total
---------------------------------------------------------------
Pair    | 3752.1     | 3752.1     | 3752.1     |   0.0 | 85.65
Bond    | 0.046088   | 0.046088   | 0.046088   |   0.0 |  0.00
Neigh   | 578.54     | 578.54     | 578.54     |   0.0 | 13.21
Comm    | 15.987     | 15.987     | 15.987     |   0.0 |  0.36
Output  | 2.8149     | 2.8149     | 2.8149     |   0.0 |  0.06
Modify  | 28.919     | 28.919     | 28.919     |   0.0 |  0.66
Other   |            | 2.247      |            |       |  0.05

Nlocal:        1920.00 ave        1920 max        1920 min
Histogram: 1 0 0 0 0 0 0 0 0 0
Nghost:        7172.00 ave        7172 max        7172 min
Histogram: 1 0 0 0 0 0 0 0 0 0
Neighs:         0.00000 ave           0 max           0 min
Histogram: 1 0 0 0 0 0 0 0 0 0
FullNghs:      546234.0 ave      546234 max      546234 min
Histogram: 1 0 0 0 0 0 0 0 0 0

Total # of neighbors = 546234
Ave neighs/atom = 284.49687
Ave special neighs/atom = 0.0000000
Neighbor list builds = 40000
Dangerous builds not checked

unfix		3
unfix		2

write_data	data.final.${pid}
write_data	data.final.0
System init for write_data ...

write_restart   restart.lmp.${pid}
write_restart   restart.lmp.0
System init for write_restart ...
Total wall time: 1:13:04
