LAMMPS data file via write_data, version 29 Sep 2021, timestep = 400000

1008 atoms
2 atom types

0.13784366035936735 18.261711339640264 xlo xhi
-0.05908657449640664 22.629475574498343 ylo yhi
0.15304167236363675 19.35267432763725 zlo zhi
-0.3471784289809919 -7.184330828911346 0.12504709105489212 xy xz yz

Masses

1 1.008
2 15.999

Atoms # full

1 0 1 0 6.566367072801811 1.0219239196177146 4.894297976710667 0 0 0
2 0 2 0 7.040211749926883 1.6902710761919728 5.417809942263478 0 0 0
3 0 2 0 5.660829413908175 0.9783290555960118 5.235859224475402 0 0 0
4 0 1 0 3.6953908858373747 1.3092302924601464 5.187741059918255 0 0 0
5 0 2 0 2.9659468264023525 0.6033864995248084 5.1866415244296045 0 0 0
6 0 2 0 3.4336438477666613 1.9022815284319279 4.486219891643657 0 0 0
7 0 1 0 -0.639104801357746 6.383572098652428 5.127551774730972 0 0 0
8 0 2 0 -0.5476379521621004 6.229846838351987 6.085893246958727 0 0 0
9 0 2 0 -0.9795946207567856 5.619175961128257 4.666326058912703 0 0 0
10 0 1 0 2.0837585954734896 6.708670702729304 4.311683901129589 0 0 0
11 0 2 0 2.432679660136775 5.980200300262564 4.782778880909415 0 0 0
12 0 2 0 1.149592729573863 6.640644110977656 4.603344575346261 0 0 0
13 0 1 0 4.483789211137601 4.703194559364184 9.800240654788642 0 0 0
14 0 2 0 3.5110614889294576 4.850166436930739 9.741956468901536 0 0 0
15 0 2 0 4.652765971920022 5.318225515263452 10.538663746387396 0 0 0
16 0 1 0 -2.1505742181245244 5.103338708984657 19.346247068456478 0 0 -1
17 0 2 0 5.990777410720469 4.754310224703732 0.20690132932405886 0 0 0
18 0 2 0 -2.7071447720719988 4.276105824054382 19.34177052391606 0 0 -1
19 0 1 0 0.8171598519013479 2.7083628847279324 0.2682298619453042 0 0 0
20 0 2 0 -6.631138935576853 2.1999887029453973 18.764426463389263 0 0 -1
21 0 2 0 0.9635751086146511 2.1969241416160954 1.056858293663105 0 0 0
22 0 1 0 0.06964854767480855 2.595097320512695 9.517983395827052 0 0 0
23 0 2 0 0.35655637859577416 1.8698836196643014 10.126476229559476 0 0 0
24 0 2 0 0.6615036936387031 3.384964509514821 9.59613937654154 0 0 0
25 0 1 0 4.877550659161063 6.342849366012021 7.616468192318171 0 0 0
26 0 2 0 4.962205208912978 5.993617890617309 6.72631148682317 0 0 0
27 0 2 0 4.811421650058847 5.623152574713347 8.29394188000388 0 0 0
28 0 1 0 5.315915619094536 6.617621508797654 2.6766893893665324 0 0 0
29 0 2 0 4.7330926078219315 7.3875601183818675 2.5117127505254646 0 0 0
30 0 2 0 4.998111888861594 5.890870263979829 2.14922982844726 0 0 0
31 0 1 0 1.5933589190442907 0.954974747847821 2.7323303844458358 0 0 0
32 0 2 0 1.2670384605095382 1.4849369314963377 3.4895410723637306 0 0 0
33 0 2 0 0.9429784951114413 0.3016830661954726 2.472775571105969 0 0 0
34 0 1 0 -0.28214805492640327 1.5535198685534803 7.042874991407718 0 0 0
35 0 2 0 -0.2841744810702709 1.8610183177838289 7.994006807650518 0 0 0
36 0 2 0 -1.0375345698028644 0.981113365021534 7.0046120105411145 0 0 0
37 0 1 0 6.0163189102746335 2.9544193604670292 2.684636183264088 0 0 0
38 0 2 0 6.251798720266009 2.6332579838246795 1.7818393219408082 0 0 0
39 0 2 0 6.291133053460871 2.288518348122651 3.2993286701084834 0 0 0
40 0 1 0 4.220165471084827 2.9229876890344624 7.197079860553974 0 0 0
41 0 2 0 3.9460648095325235 2.3879741635036837 6.402403173934392 0 0 0
42 0 2 0 3.846400010605103 2.474655510429174 7.980303719658931 0 0 0
43 0 1 0 -0.3973140112339175 4.98784232290254 7.685895822104282 0 0 0
44 0 2 0 -0.3930527925395557 5.597814102544099 8.480988853130672 0 0 0
45 0 2 0 0.5261245725328805 4.957071037354156 7.3385937441906055 0 0 0
46 0 1 0 1.488382866180081 4.954883467293002 2.2877670577820632 0 0 0
47 0 2 0 1.631275417055045 5.49671202338358 1.425109829311361 0 0 0
48 0 2 0 1.6650718623897012 5.65613513014877 3.0079584039827285 0 0 0
49 0 1 0 6.83311295189602 3.4819874392013146 6.29797476328834 0 0 0
50 0 2 0 5.983260584458529 3.2492731719965344 6.715304031345965 0 0 0
51 0 2 0 6.585862847925681 4.209183791033891 5.701687880291711 0 0 0
52 0 1 0 3.5960153604191394 3.513393029389244 3.500699225580596 0 0 0
53 0 2 0 4.421940332047511 3.3384589056390013 3.010479623543048 0 0 0
54 0 2 0 3.035440628281985 3.9973480142153317 2.887706312572463 0 0 0
55 0 1 0 16.895917242181596 4.3934101222904385 3.3393153419130868 -1 0 0
57 0 2 0 -0.5752855996791298 4.547564640902783 2.6572125666302617 0 0 0
58 0 1 0 2.06066766185568 4.476876661598129 6.4268878067004955 0 0 0
59 0 2 0 1.570886475536835 3.7730197668115464 5.937436913514068 0 0 0
60 0 2 0 2.859358255374477 4.034852504485441 6.759450151562948 0 0 0
61 0 1 0 8.15925348581964 6.927440741663692 1.5727490326148081 0 0 0
62 0 2 0 7.679876234689221 7.431913639151801 0.8618073861479577 0 0 0
63 0 2 0 7.436043543923555 6.700508866305021 2.1561076547280273 0 0 0
64 0 1 0 2.140231292679713 7.187141186295216 8.106997902797968 0 0 0
65 0 2 0 2.4536957926929395 7.894632317719034 8.737342157422571 0 0 0
66 0 2 0 2.994302846852618 6.921588022712078 7.714769918518075 0 0 0
67 0 1 0 -2.4884144968626636 0.17283025551631118 8.41269473332507 0 0 0
69 0 2 0 -2.5234177175971126 1.0023685959055768 8.800668769235529 0 0 0
70 0 1 0 4.153487723298016 0.19575690605655524 1.565269663423172 0 0 0
71 0 2 0 3.353718091247034 0.41398104229345495 2.0566138610536346 0 0 0
72 0 2 0 4.3964282383571724 22.45497044017458 2.226037352196533 0 -1 0
73 0 1 0 5.1246162292282955 5.382567013363246 5.054163972801836 0 0 0
74 0 2 0 4.46540891879689 4.731720461094352 4.701969098960476 0 0 0
75 0 2 0 5.384127489139332 5.907937709306603 4.26968232317915 0 0 0
76 0 1 0 0.719276249870372 2.664242813136102 4.9062799483389545 0 0 0
77 0 2 0 0.2508740563945673 2.1975266019745705 5.612843027263381 0 0 0
78 0 2 0 0.09965238567119661 3.248464557376438 4.416854620805136 0 0 0
79 0 1 0 7.108365188306833 1.6596317789469017 0.2882377408970874 0 0 0
80 0 2 0 -0.8017262848070148 1.2571554549039012 19.06246317270496 0 0 -1
81 0 2 0 7.577542851770511 1.0455850981767962 0.8348151474954111 0 0 0
82 0 1 0 -4.913448463542942 6.456156350770542 19.234034230824207 0 0 -1
83 0 2 0 -5.384720683441718 7.155629244480539 18.828807741615137 0 0 -1
84 0 2 0 -4.780272954422944 5.70189209759624 18.625078249596925 0 0 -1
88 0 1 0 12.773055863571924 1.0134777690647807 5.331676155591302 0 0 0
89 0 2 0 12.202261406253706 0.24975608787551157 5.1904137073226115 0 0 0
90 0 2 0 12.550397325695783 1.5558286888075084 6.145884447775172 0 0 0
91 0 1 0 8.46761379099845 6.650627887432035 5.247156366363901 0 0 0
92 0 2 0 7.7256488919659105 7.243335552524305 5.058071132072838 0 0 0
93 0 2 0 8.363331408796308 5.856166580317221 4.708771559246749 0 0 0
94 0 1 0 11.128881504192034 6.049880380453362 4.785475603058063 0 0 0
95 0 2 0 10.293318521133275 6.436852949640828 5.017799909719153 0 0 0
96 0 2 0 11.71538916473324 6.8251114156305634 4.65628215002116 0 0 0
100 0 1 0 14.284452728515449 4.646035044516118 0.2768078229211418 0 0 0
101 0 2 0 15.194290675599458 4.436454572209473 0.36590024266177 0 0 0
102 0 2 0 7.037192204483976 5.5128754475321955 18.83196738308495 0 0 -1
103 0 1 0 9.861527182359634 2.659339724664856 0.20204394756922164 0 0 0
104 0 2 0 2.0127952238841758 3.4670482874767234 19.190409494876974 0 0 -1
105 0 2 0 10.741553694960622 3.097494043670389 0.2075486677219176 0 0 0
106 0 1 0 9.191330744172538 2.8389812155336753 9.599852396491977 0 0 0
107 0 2 0 9.159412314790519 2.6216020862868423 8.673087701501245 0 0 0
108 0 2 0 9.18384922590674 1.9869826682252962 10.1307515564122 0 0 0
109 0 1 0 13.692371007842322 6.3429666995389455 7.323807075441206 0 0 0
110 0 2 0 13.61510046609711 6.083678899988477 6.383589885914903 0 0 0
111 0 2 0 12.819347858444926 6.740345969103905 7.504640448694607 0 0 0
112 0 1 0 14.197087759808323 6.160729011782748 2.6863661385325823 0 0 0
113 0 2 0 14.255292377571307 5.603053145854733 3.449428171745248 0 0 0
114 0 2 0 14.095841384637241 5.490523959773997 2.0215069418872407 0 0 0
115 0 1 0 10.038200811985373 1.2959680158802283 2.4335269664897727 0 0 0
116 0 2 0 10.790957057328084 0.6983754297832963 2.1425448605530946 0 0 0
117 0 2 0 9.847695624854813 1.8470422877297699 1.6694596118837515 0 0 0
118 0 1 0 8.77834198231017 1.2879182250996357 7.203400900463261 0 0 0
119 0 2 0 9.079081883473602 1.7546779877619216 6.3622642474284055 0 0 0
120 0 2 0 9.500084314683445 0.7126818085356982 7.502466876335954 0 0 0
121 0 1 0 15.349068963285829 2.1378670404242532 2.7784197126453143 0 0 0
122 0 2 0 15.545973590646136 1.6778239148646372 1.9381497179019853 0 0 0
123 0 2 0 14.451397935271755 2.4110652703029225 2.63997851926448 0 0 0
124 0 1 0 13.208942823833098 2.5617935476662788 7.619047190506792 0 0 0
125 0 2 0 12.65745865319936 3.126500018674273 7.087868972208284 0 0 0
126 0 2 0 14.09608806710152 2.904552889895569 7.498604757079176 0 0 0
127 0 1 0 8.830994072448322 4.951634792842848 7.498447549643107 0 0 0
128 0 2 0 8.780549053789779 5.805745498302589 6.965818137080729 0 0 0
129 0 2 0 8.044242474338484 4.49069792359643 7.092551251483081 0 0 0
130 0 1 0 10.805593452181416 5.03096830017623 2.2687451208664733 0 0 0
131 0 2 0 9.873017413365066 4.898325622681089 2.4664229552560557 0 0 0
132 0 2 0 11.048591091983978 5.433732168512128 3.125668277946809 0 0 0
135 0 2 0 -1.726936141881715 4.070963179856192 6.970997693409931 1 0 0
136 0 1 0 12.77409549394077 2.9349342291431744 3.2730217515492455 0 0 0
137 0 2 0 12.002111981195398 3.232159376323772 2.8007687478653303 0 0 0
138 0 2 0 12.555294746847537 2.0777803517023132 3.7264484049302076 0 0 0
139 0 1 0 8.21469990219843 4.557797558418258 3.450855741049395 0 0 0
140 0 2 0 7.535151373651249 4.163908257401066 2.8705455737484407 0 0 0
141 0 2 0 8.750139182279728 3.80375871065028 3.8359171562171825 0 0 0
142 0 1 0 11.239723327907644 3.7632341490113874 6.475474646582222 0 0 0
143 0 2 0 11.533314222521035 4.614074664714621 6.057206884410742 0 0 0
144 0 2 0 10.700329137023616 4.137297708354928 7.199818598291966 0 0 0
148 0 1 0 11.024564522270992 6.664456636817306 8.107136460481463 0 0 0
149 0 2 0 10.52201262185398 5.948907191752159 8.561103659361176 0 0 0
150 0 2 0 10.44750966365462 7.302185727040074 7.645303523450213 0 0 0
151 0 1 0 6.171079337167561 0.4157141278698062 8.024892850588696 0 0 0
152 0 2 0 7.0917857057197775 0.5416410219221496 7.650480256617887 0 0 0
153 0 2 0 6.078312041463327 1.211477175989892 8.54405602681634 0 0 0
154 0 1 0 12.514281767052235 0.24520182171948085 1.4775399246499719 0 0 0
155 0 2 0 12.790729852455359 0.9739975350269908 0.9125617366493529 0 0 0
156 0 2 0 11.98421086613283 22.141060766074485 0.9165854819484567 0 -1 0
157 0 1 0 13.835028679447902 4.6458127667788265 5.015704216174076 0 0 0
158 0 2 0 13.402507364398913 3.91799915469902 4.588054207195499 0 0 0
159 0 2 0 14.548718525968024 4.289925406634185 5.529765119873565 0 0 0
160 0 1 0 9.645249620234342 2.4034172044825484 4.909237945830783 0 0 0
161 0 2 0 10.387729524804323 2.841488568146525 5.315457986346548 0 0 0
162 0 2 0 9.961233659760374 1.9946711668744763 4.106870259187657 0 0 0
163 0 1 0 15.908475836412476 0.9911064893969773 0.32400062557062426 0 0 0
164 0 2 0 9.09727618935737 1.678033107692765 18.826301330137028 0 0 -1
165 0 2 0 8.073274928313808 0.5530170681714036 19.0286978660314 0 0 -1
166 0 1 0 4.014725850542259 6.531947298638656 19.223253334216082 0 0 -1
167 0 2 0 10.76785945075935 5.914795539773686 0.7562318312799438 0 0 0
168 0 2 0 3.40461832884489 6.928201319665245 18.625046487396524 0 0 -1
169 0 1 0 6.601476520149538 8.703594611886743 4.578296100028252 0 0 0
170 0 2 0 5.623510758843864 8.729438064685219 4.677097480718102 0 0 0
171 0 2 0 6.921825294005863 9.41065865342679 5.193174591076679 0 0 0
172 0 1 0 3.783732808556412 8.775992446226784 4.691770577417163 0 0 0
173 0 2 0 3.0321852767003277 8.200770521391997 4.656115444519228 0 0 0
174 0 2 0 3.53309069361827 9.541942748256112 4.215431154365008 0 0 0
175 0 1 0 -0.8026936450482225 13.945938772986178 4.773891377749477 0 0 0
176 0 2 0 -1.5002591001760546 14.607805686016105 4.924632624819759 0 0 0
177 0 2 0 0.09224217001278867 14.346394078691759 4.797926436132283 0 0 0
178 0 1 0 1.8711793961307777 13.869682534981377 4.577964224974892 0 0 0
179 0 2 0 1.953127770203527 13.06767196977037 5.173563601547606 0 0 0
180 0 2 0 1.9783432623861146 13.572814944963522 3.6345308998510397 0 0 0
181 0 1 0 4.558630375695657 12.134777911959638 9.84401516535047 0 0 0
182 0 2 0 4.789852327951263 12.895770917410422 10.373500825306055 0 0 0
183 0 2 0 5.203301353513867 11.429663388042135 10.035750144042831 0 0 0
184 0 1 0 5.3806626838814955 12.57908858177418 0.23975685166987645 0 0 0
185 0 2 0 -1.8957863501050953 13.294803792334669 18.6393281852178 0 0 -1
186 0 2 0 6.332773462624702 12.434485259850488 0.2105947488331295 0 0 0
187 0 1 0 -6.43068542607399 10.508191304341008 19.288051958884147 0 0 -1
188 0 2 0 0.6685127643455395 10.01697021928007 0.9982938798423465 0 0 0
189 0 2 0 -5.517904340305031 10.734351433113067 19.162345546355468 0 0 -1
190 0 1 0 -0.028985313424017 10.257264183513575 9.386529624632955 0 0 0
191 0 2 0 -0.007176459377416844 9.870579887871017 8.474264737830513 0 0 0
192 0 2 0 0.2952812524080195 11.171518168863987 9.393525804589805 0 0 0
193 0 1 0 4.2070638908536475 13.703169970910665 7.569345077104677 0 0 0
194 0 2 0 4.3961097057709475 13.224315512925259 6.719701314137157 0 0 0
195 0 2 0 4.521530193576117 13.125323812399223 8.272503726958597 0 0 0
196 0 1 0 5.516444499914557 14.21325871151361 2.7461740722899286 0 0 0
197 0 2 0 5.371867599089988 13.61167037645643 2.009403903200424 0 0 0
198 0 2 0 5.493238416672236 13.722954529200642 3.587069457007333 0 0 0
199 0 1 0 0.9337905982135396 8.930856253213204 2.6240197962525813 0 0 0
200 0 2 0 0.1705630460173312 8.347594054862407 2.5113303181411255 0 0 0
201 0 2 0 1.7222467328905287 8.398421232843482 2.41712601722107 0 0 0
202 0 1 0 -0.2997476588709196 8.444161650292736 7.344910877777029 0 0 0
203 0 2 0 -1.1504235280479402 8.293580558144201 7.8142361103833045 0 0 0
204 0 2 0 0.39915114150375874 7.80453523993479 7.566778165118825 0 0 0
205 0 1 0 6.005736110659542 9.874419684451366 2.348148363769496 0 0 0
206 0 2 0 6.282164116555598 9.225857267368823 3.0140401866281343 0 0 0
207 0 2 0 6.683402934552087 10.590685409258748 2.4582770708137938 0 0 0
208 0 1 0 4.439204203946225 9.77353526169423 7.3206981719952235 0 0 0
209 0 2 0 3.8102606137648247 10.52699851829421 7.2182828375897365 0 0 0
210 0 2 0 4.12920623123723 9.289180581852486 6.54446471796953 0 0 0
211 0 1 0 -0.6804602046708217 12.252832480428982 7.092755117084869 0 0 0
212 0 2 0 -1.0148524231925506 12.765938769459535 7.815804476723598 0 0 0
213 0 2 0 -0.9484268990591058 12.751458319087325 6.285909203997524 0 0 0
214 0 1 0 1.6933229638700422 12.507131285897714 2.1196994788497285 0 0 0
215 0 2 0 1.6411238784402427 12.899056113817787 1.2257621686203186 0 0 0
216 0 2 0 0.8791735694887842 12.052091579582024 2.3265217655800905 0 0 0
217 0 1 0 6.796709814924009 10.808336194618123 6.477440640119113 0 0 0
218 0 2 0 6.174108591392772 10.585552608563315 7.163221138513885 0 0 0
219 0 2 0 7.460004479917435 11.313548962106362 7.010360854432609 0 0 0
220 0 1 0 3.661480424630714 10.969919899752078 3.228754061291697 0 0 0
221 0 2 0 4.497196471973583 10.750541504888183 2.749584924927361 0 0 0
222 0 2 0 3.0051438742266887 11.477656700349666 2.778349765189776 0 0 0
223 0 1 0 -0.6355801962176375 11.68500719899906 3.386886052746904 0 0 0
224 0 2 0 -0.23547030273433456 11.11997337555618 4.046071550111106 0 0 0
225 0 2 0 -0.7299168703532444 12.500815805551435 3.958914539103764 0 0 0
226 0 1 0 1.9122040642418243 11.786737060862851 6.565828159471174 0 0 0
227 0 2 0 1.1082942383322214 12.00379136986982 7.10866877238839 0 0 0
228 0 2 0 1.53175455714049 11.099069998677004 5.957948814901887 0 0 0
229 0 1 0 8.20471108008026 14.776966045626779 1.6833376401083464 0 0 0
230 0 2 0 7.410853622829356 14.790415776163838 2.246020824691694 0 0 0
231 0 2 0 8.881782847412616 15.182457380620885 2.270458878195735 0 0 0
232 0 1 0 1.6025247278569927 14.595087796052665 8.071755302425384 0 0 0
233 0 2 0 2.370364025903113 14.503841815204606 7.487809445704055 0 0 0
234 0 2 0 0.9500375926707374 15.073176287634478 7.52438752170166 0 0 0
235 0 1 0 -2.656284313749934 7.99801675734452 8.534022024203962 0 0 0
237 0 2 0 -2.9191226356241873 8.853529986966889 8.886969510430523 0 0 0
238 0 1 0 3.40846907759622 8.250094002110531 1.4454714291314659 0 0 0
239 0 2 0 3.7100139591641312 8.999868109110412 0.9068623948691164 0 0 0
240 0 2 0 3.1549515890110635 7.498209315540664 0.87856651559767 0 0 0
241 0 1 0 4.898790593244401 12.576626212634395 5.1893478901930505 0 0 0
242 0 2 0 5.63667494666605 11.993058296051569 5.29709969531301 0 0 0
243 0 2 0 4.272342159104698 12.13117717116901 4.5733205680468005 0 0 0
244 0 1 0 0.8407813656020406 9.855018827754915 5.069936419483654 0 0 0
245 0 2 0 0.9489882149936759 9.311150507672302 4.226736547424587 0 0 0
246 0 2 0 0.3462384388693045 9.384273972633233 5.800455636602453 0 0 0
247 0 1 0 -0.5431671070835851 8.78565341427591 18.98153674895373 0 0 -1
248 0 2 0 6.37917231955775 9.214776669750513 0.5495829057446254 0 0 0
249 0 2 0 -1.2912007599717628 8.270542567778381 18.668872036596845 0 0 -1
250 0 1 0 -5.2295559161342915 14.078396910809792 18.888726213426324 0 0 -1
251 0 2 0 -5.767960596969736 14.753001990862192 18.424457037961126 0 0 -1
252 0 2 0 -4.536165848498566 14.597981886232592 19.34597166569567 0 0 -1
256 0 1 0 12.650070611485623 8.083447430785423 5.064560432753107 0 0 0
257 0 2 0 13.63846428245845 7.925198510825393 4.9719826034719565 0 0 0
258 0 2 0 12.519981263101027 8.377659172815918 5.967542374373523 0 0 0
259 0 1 0 8.256975546182478 14.041231085975195 4.743878418246675 0 0 0
260 0 2 0 9.18104304831522 13.882638553482586 5.0273498137558175 0 0 0
261 0 2 0 8.066893928311785 13.280897260999492 4.14719337838951 0 0 0
262 0 1 0 11.030738461206226 13.83213618787513 4.819890987411473 0 0 0
263 0 2 0 10.992172666878332 13.33897221130298 3.947786251577662 0 0 0
264 0 2 0 11.544228741712416 14.674029136213312 4.644130101130429 0 0 0
268 0 1 0 14.411526604362692 12.220226910149115 0.17396620814414496 0 0 0
269 0 2 0 14.504699074457802 12.595344690887655 1.0418048127783286 0 0 0
270 0 2 0 13.666412865664137 11.572415327310335 0.2317773266606935 0 0 0
271 0 1 0 9.738417053323733 10.21702468305878 0.3376960992892152 0 0 0
272 0 2 0 10.654874315704406 10.526230047785042 0.47736917528933676 0 0 0
273 0 2 0 9.607597763188018 9.62323873280758 1.0828084430138625 0 0 0
274 0 1 0 9.207779980366666 10.127084345566093 9.948445724928234 0 0 0
275 0 2 0 9.738744866502092 10.932112950608474 10.13364428729551 0 0 0
276 0 2 0 9.557695329040204 9.688940164734865 9.163096252266612 0 0 0
277 0 1 0 13.163670598065199 13.957693558736452 7.244470059891453 0 0 0
279 0 2 0 12.247545311688604 14.08941780228466 7.5010437630736515 0 0 0
280 0 1 0 14.781186374889526 13.534108920993695 2.561060491320807 0 0 0
281 0 2 0 14.48876937593497 13.286639288058742 3.4464221644342445 0 0 0
282 0 2 0 15.699535861650538 13.74938464375275 2.5147288690704217 0 0 0
283 0 1 0 9.900752381498638 8.783552278300503 2.7516779307546293 0 0 0
284 0 2 0 9.616560356568874 7.912924228781042 2.5421716783078843 0 0 0
285 0 2 0 10.830667279288106 8.660029323102501 2.8003964416234193 0 0 0
286 0 1 0 9.323581963470978 8.722881139064809 7.54045609229536 0 0 0
287 0 2 0 8.397512396161147 8.632722206873993 7.771312080566224 0 0 0
288 0 2 0 9.238656402848694 8.8385264292892 6.578944495464378 0 0 0
289 0 1 0 15.363738355606957 10.172078950629034 2.6449415088222983 0 0 0
291 0 2 0 14.471453471209204 10.462313080283865 2.7460159619725535 0 0 0
292 0 1 0 12.858800242600635 9.965891032603652 7.4301473336156905 0 0 0
293 0 2 0 13.741555023000977 10.196882091906874 7.1222743126297665 0 0 0
294 0 2 0 12.920582687722918 9.641862331790147 8.352751754942958 0 0 0
295 0 1 0 8.749658131983143 12.47811533869894 7.5114686620391415 0 0 0
296 0 2 0 8.548823343567593 13.077487965178744 6.801460189141046 0 0 0
297 0 2 0 9.70621121732948 12.184605971426416 7.437626533547115 0 0 0
298 0 1 0 10.692901753539463 12.299651168637979 2.5411055673041427 0 0 0
299 0 2 0 10.970059480134227 12.78714473715274 1.7303094647919477 0 0 0
300 0 2 0 11.441852356955769 11.705056539690824 2.741787628632323 0 0 0
303 0 2 0 -2.0568067899548454 10.747110112388947 6.686085823243737 1 0 0
304 0 1 0 12.492636992288384 10.498271092600131 3.5798012966742077 0 0 0
305 0 2 0 12.615563010646678 9.589704341270984 3.8728695426100037 0 0 0
306 0 2 0 12.855720818044118 11.020704482410363 4.30206044327882 0 0 0
307 0 1 0 8.19019758003318 11.656289452726135 3.2479932659595585 0 0 0
308 0 2 0 8.921772981800345 12.016683080278854 2.732381514652373 0 0 0
309 0 2 0 8.542064952317503 11.068850304150319 3.9855990001933144 0 0 0
310 0 1 0 11.049872832325867 11.753533016151309 6.546504949245789 0 0 0
311 0 2 0 11.84020902165274 11.337078236896275 6.899187258938861 0 0 0
312 0 2 0 11.346860100946095 12.448379793554667 5.93454222632537 0 0 0
314 0 2 0 -0.4139196878608725 15.077403880926953 1.831043053977346 1 0 0
316 0 1 0 10.73990947531476 14.502202085736227 8.499084353929284 0 0 0
317 0 2 0 10.638456367327578 13.655960100613092 8.951343582571145 0 0 0
318 0 2 0 11.197524109087379 15.018127401211911 9.137684636830627 0 0 0
319 0 1 0 6.903571060569188 7.90584238467769 8.501004038827217 0 0 0
320 0 2 0 7.295161481632884 7.179542982916478 9.074970483850427 0 0 0
321 0 2 0 6.10421626205631 7.456789612167118 8.107499619821256 0 0 0
322 0 1 0 12.677530929087322 8.242987204364379 1.6066265085528304 0 0 0
323 0 2 0 12.20902758925704 7.706587947946668 0.9840537224174669 0 0 0
324 0 2 0 13.202750371444402 7.661483662082128 2.2304313484164573 0 0 0
325 0 1 0 13.811890095552208 12.450477320217397 5.123352066200506 0 0 0
327 0 2 0 13.595061012027466 13.137148664353164 5.801943189138492 0 0 0
328 0 1 0 9.496284413197873 9.773041057079908 5.302871221430595 0 0 0
329 0 2 0 9.803075544972323 9.386563964088943 4.446780966212099 0 0 0
330 0 2 0 10.190191163201693 10.365363084168894 5.542022282512076 0 0 0
331 0 1 0 15.819275777276161 9.014910548202675 0.2428356664483401 0 0 0
332 0 2 0 15.5809522563702 9.569101397115078 1.009153027834135 0 0 0
333 0 2 0 8.939164153109465 9.664906736353426 18.67340925672149 0 0 -1
334 0 1 0 11.33864925571507 13.630899017417596 0.17763576716981463 0 0 0
335 0 2 0 4.538659365521944 13.196176296536187 18.658520226664116 0 0 -1
336 0 2 0 3.4812722050796063 14.310198051273158 18.945178841370044 0 0 -1
337 0 1 0 6.4059989746872805 16.203757017796768 4.745820758246661 0 0 0
338 0 2 0 6.925449319107727 15.384670552910743 4.697851578961061 0 0 0
339 0 2 0 6.339102454275351 16.497856630372294 3.820677363927441 0 0 0
340 0 1 0 3.4078938732319806 16.183675789369367 4.925717873657786 0 0 0
341 0 2 0 2.87699499881228 15.377183073050404 4.805827304064021 0 0 0
342 0 2 0 4.360531332394604 15.920435092092044 4.85456673595021 0 0 0
343 0 1 0 -1.3863167576379074 21.61323253321599 5.263782219717058 0 0 0
344 0 2 0 -1.3582606957009133 21.134211582344523 6.119309779721892 0 0 0
345 0 2 0 -2.01469648292571 22.361905137534333 5.350606999934458 0 0 0
346 0 1 0 1.5896178628821729 21.936509538374427 5.013501068615233 0 0 0
347 0 2 0 1.788854931724245 21.177242669824974 5.6066048519588305 0 0 0
348 0 2 0 0.6377497389354649 22.034123694169764 5.040908673592796 0 0 0
349 0 1 0 4.498411397606445 20.185063658672572 9.309719800894994 0 0 0
350 0 2 0 4.560676499857783 20.906513847260086 9.980810847683305 0 0 0
351 0 2 0 4.2576050436032915 20.63551353170282 8.485299167829954 0 0 0
352 0 1 0 5.152932780709238 19.915789404893292 0.272080611151801 0 0 0
353 0 2 0 -2.8078225654763598 19.44084853850296 19.32968205077907 0 0 -1
354 0 2 0 5.176877064336121 20.227146965890917 1.2143566714686007 0 0 0
355 0 1 0 0.8518192449152314 17.863576818629742 0.4326998548262627 0 0 0
356 0 2 0 0.9056780528639643 17.428178677309162 1.2784493562674402 0 0 0
357 0 2 0 -6.516175828097391 17.304972830660773 18.938558234555785 0 0 -1
358 0 1 0 -0.25089027273730347 17.662040192896935 9.593931954870104 0 0 0
359 0 2 0 -0.010800046222861681 17.007590335004853 10.302767473311928 0 0 0
360 0 2 0 0.2234379549725647 18.43918926976308 9.725708378362876 0 0 0
361 0 1 0 3.712227091938194 21.600498298866967 7.198319364311961 0 0 0
362 0 2 0 4.4531042102238345 22.210337584876434 7.120605398055953 0 0 0
363 0 2 0 2.9793609520145923 22.147084853664673 7.457373424481485 0 0 0
364 0 1 0 5.400060101940085 21.188322335256572 2.9021196148005206 0 0 0
365 0 2 0 6.274884282905459 21.65761501075215 2.892424445260883 0 0 0
366 0 2 0 5.229943878429164 20.80574445215905 3.7782428270321313 0 0 0
367 0 1 0 1.0525617372845133 16.116107964331665 2.5997678333129 0 0 0
368 0 2 0 1.9938721255282785 15.96126851909056 2.265418932341348 0 0 0
369 0 2 0 1.061834663765223 16.48180761553647 3.493668785517756 0 0 0
370 0 1 0 -0.28245572862511237 16.2684093509747 7.097312850237346 0 0 0
371 0 2 0 -0.16822409644077885 16.948231185585513 7.803252398023738 0 0 0
372 0 2 0 0.09139384228475178 16.6568158374328 6.257755192495715 0 0 0
373 0 1 0 5.940775939273117 17.51775826824291 2.372755748373331 0 0 0
374 0 2 0 6.054076138860571 17.25588132777011 1.465903262628393 0 0 0
375 0 2 0 5.014148251724073 17.904463645751278 2.510657333160753 0 0 0
376 0 1 0 3.595645144007868 17.648869114648072 7.290179674920889 0 0 0
377 0 2 0 3.324788472285856 16.952337171036273 6.695975353573458 0 0 0
378 0 2 0 4.512490389766656 17.95157133656204 7.228040112052944 0 0 0
379 0 1 0 -0.7014558799218367 20.006713877050966 7.198734417947221 0 0 0
380 0 2 0 -1.3934493375061412 19.341937369547324 7.035760460605816 0 0 0
381 0 2 0 -0.8205020533314675 20.227156897709914 8.144187561256427 0 0 0
382 0 1 0 1.3575685887417754 20.037442651892437 2.6513862466117994 0 0 0
383 0 2 0 1.9307460873045443 19.328228675629134 2.962991314074358 0 0 0
384 0 2 0 1.3871764949780974 20.74293549153457 3.347815482129091 0 0 0
385 0 1 0 6.2645492238511995 18.240236425068964 6.676653158651324 0 0 0
386 0 2 0 7.123927613479386 18.656935418850736 6.895895992916832 0 0 0
387 0 2 0 6.438203483417464 17.484287010709046 6.097764812909521 0 0 0
388 0 1 0 3.4516685228654818 18.357251505984568 3.2646352236877387 0 0 0
389 0 2 0 3.2942940585026017 17.505637272345908 3.722110058351357 0 0 0
390 0 2 0 3.6843646856528935 18.872014710230232 4.038176250165663 0 0 0
391 0 1 0 -1.0803762477828853 19.230013415217368 3.74629393215852 0 0 0
392 0 2 0 -0.23182646169588583 19.546243391312114 3.387665006031208 0 0 0
393 0 2 0 -1.3496436249248722 20.005209803156657 4.280888914578975 0 0 0
394 0 1 0 1.7368366396571169 19.471263355220707 6.061300891688927 0 0 0
395 0 2 0 0.917295683226051 19.44828833197875 6.590809811656172 0 0 0
396 0 2 0 2.440027298013019 19.0667895078074 6.611597780866354 0 0 0
397 0 1 0 7.735809098371233 22.024727865394027 1.7453245267648376 0 0 0
398 0 2 0 7.976012074014552 21.22433673029808 1.2740063776213253 0 0 0
399 0 2 0 8.600994357112508 22.39526589865138 2.0291143639564764 0 0 0
400 0 1 0 1.2450640977597014 22.501143834461985 8.243681559054089 0 0 0
401 0 2 0 1.9887195538871016 0.5552815609744488 8.786026842763079 0 1 0
402 0 2 0 0.9478806799813917 0.28080595281202547 7.686548260622091 0 1 0
403 0 1 0 -2.928283855577984 15.625509926569334 8.105102033858728 0 0 0
404 0 2 0 -2.267367601966412 15.881679200573624 7.51794910161809 0 0 0
405 0 2 0 -2.9486832012745627 16.385953037660165 8.73900749144328 0 0 0
406 0 1 0 3.449587272438877 15.534882695591133 1.6057398714628777 0 0 0
407 0 2 0 4.184377116615349 15.414287231804144 2.2084337976062427 0 0 0
408 0 2 0 3.7001491501815185 16.310801741312392 1.0692954867545268 0 0 0
409 0 1 0 4.641577289944161 19.76767297983025 5.185596810275112 0 0 0
410 0 2 0 5.318291767032157 19.216284538694794 5.556756814222503 0 0 0
411 0 2 0 4.180371927116248 20.268916345888474 5.887158346411619 0 0 0
412 0 1 0 0.5300248421132092 17.405871111514497 4.846539163641689 0 0 0
413 0 2 0 1.108662869277082 18.109369292327003 5.117465258801015 0 0 0
414 0 2 0 -0.27956399213124183 17.88020241463065 4.533289070006174 0 0 0
415 0 1 0 -0.6834155341978798 16.340421416125867 19.100253491150013 0 0 -1
416 0 2 0 7.173128222480153 15.876623389935894 0.5373624066797948 0 0 0
417 0 2 0 -0.28426102647013973 16.991132489703578 18.490407564593283 0 0 -1
418 0 1 0 2.0062704198354524 21.218146822591027 0.4005376733046554 0 0 0
419 0 2 0 1.6272256675202186 20.78780910597571 1.1897953178531036 0 0 0
420 0 2 0 2.7561838279612507 21.67103442901217 0.804084524338438 0 0 0
424 0 1 0 12.590904273876793 16.35991786655148 5.189886872251475 0 0 0
425 0 2 0 13.425206701879015 15.854038097516073 5.205432548820503 0 0 0
426 0 2 0 12.655905888374205 17.030303568345854 4.463553197223405 0 0 0
427 0 1 0 7.923776491328977 21.425726084188888 4.879700602527132 0 0 0
428 0 2 0 7.261202534735299 21.98281704090875 4.4975017408860065 0 0 0
429 0 2 0 7.960191363616815 20.57897471521925 4.400731359398563 0 0 0
430 0 1 0 10.729709213127716 21.62961929078207 4.858528697639228 0 0 0
431 0 2 0 10.666352442736104 21.33677364792968 3.946407730114859 0 0 0
432 0 2 0 9.839082844811392 21.562953381896925 5.19970414876574 0 0 0
435 0 2 0 12.291547931266752 19.750080292472422 9.771372533885666 0 0 0
436 0 1 0 14.361925985290052 19.877477964075094 0.346663594615632 0 0 0
437 0 2 0 15.20692287185894 19.45945757166184 0.3173485210266751 0 0 0
438 0 2 0 13.67625484904582 19.174359060750678 0.1952728346873198 0 0 0
439 0 1 0 9.804337027735551 17.875684594205502 0.5882430350377096 0 0 0
440 0 2 0 10.771280845030232 17.976511112793244 0.4631716971529628 0 0 0
441 0 2 0 9.818296616253976 17.41017172446541 1.4651164944570758 0 0 0
442 0 1 0 9.06972749997291 17.96918619610872 9.607857316694911 0 0 0
443 0 2 0 8.084191196042811 18.05795780213967 9.759369192006943 0 0 0
444 0 2 0 9.20774410843499 17.5126019651251 8.795514736979639 0 0 0
445 0 1 0 13.059364038851124 21.472619830493862 7.437925097511593 0 0 0
446 0 2 0 13.158043703349856 20.919775765406836 8.240710588135697 0 0 0
447 0 2 0 12.21186650124858 21.907324351482494 7.601084182719107 0 0 0
448 0 1 0 14.5536795571669 21.38220387538027 2.4496263172713597 0 0 0