LAMMPS data file via write_data, version 29 Sep 2021, timestep = 400000

1008 atoms
2 atom types

0.07631453260592913 18.323240467392814 xlo xhi
0.0413112647957945 22.529077735203728 ylo yhi
0.09340363602441215 19.412312363976888 zlo zhi
-0.10396549442555554 -7.137712713542227 0.07764331302142392 xy xz yz

Masses

1 1.008
2 15.999

Atoms # full

1 0 1 0 6.697741842470686 1.2325603281530024 5.067351965829574 0 0 0
2 0 2 0 6.796640381096543 2.0165216901115444 5.6420223335263815 0 0 0
3 0 2 0 5.78908701489654 0.8803151196427522 5.092846608659689 0 0 0
4 0 1 0 3.892026494071837 0.8759306620555986 5.078491708131893 0 0 0
5 0 2 0 3.246923943110902 0.1172003811424253 4.908514899719971 0 0 0
6 0 2 0 3.6833424383744715 1.591690101665691 4.436719580207266 0 0 0
7 0 1 0 -1.0359871397672151 6.651966252148868 4.928090942000325 0 0 0
8 0 2 0 -0.8745179589954089 6.253800687489985 5.812864276333623 0 0 0
9 0 2 0 -0.9579367398823218 5.880549621365109 4.3188019975135745 0 0 0
10 0 1 0 1.9000640561589541 6.425757870933547 4.845430244789641 0 0 0
11 0 2 0 2.0398882481097087 5.769229336606277 5.564184898645831 0 0 0
12 0 2 0 0.9650146380623639 6.702714732721323 4.9185393281004846 0 0 0
13 0 1 0 4.645135111477581 4.803776562838713 9.553015951276247 0 0 0
14 0 2 0 3.6657172567992347 4.772375897575447 9.655895539066464 0 0 0
15 0 2 0 4.978616998113224 5.591187986246352 10.00850280843415 0 0 0
16 0 1 0 -1.8437707110933088 5.149282992318093 19.334188185619034 0 0 -1
17 0 2 0 -0.9174760776026716 4.86438197997223 19.10758266454586 0 0 -1
18 0 2 0 -2.3645505437153274 4.3431344161572625 19.198947206191416 0 0 -1
19 0 1 0 -5.978754754648065 2.7629750282552323 19.215676508210393 0 0 -1
20 0 2 0 -6.153248375547255 2.008708703412696 18.675388671807024 0 0 -1
21 0 2 0 1.0712077755986935 2.3421618207911914 0.7884402209511422 0 0 0
22 0 1 0 0.3748042288096487 2.9795645041504746 9.413251154767925 0 0 0
23 0 2 0 0.31946645668927287 2.2670304636923295 10.076056110436683 0 0 0
24 0 2 0 0.8504762640219559 3.7774455212782523 9.66998171124173 0 0 0
25 0 1 0 4.29187336128669 6.409963496264921 7.1700127550307515 0 0 0
26 0 2 0 4.2816177431844356 6.031266184517242 6.274869585376149 0 0 0
27 0 2 0 4.285767221047845 5.67591613172836 7.755438907692428 0 0 0
28 0 1 0 5.542905646171322 6.431718195352338 2.6596805322909423 0 0 0
29 0 2 0 4.831104279927663 7.121563501127044 2.4576943198556687 0 0 0
30 0 2 0 5.563263347696214 5.884163209843267 1.8776168448348018 0 0 0
31 0 1 0 1.1131478007268407 1.4128984118566839 2.209252851872642 0 0 0
32 0 2 0 0.8719870738081767 1.6433665738216368 3.1273162566551105 0 0 0
33 0 2 0 0.5541537209382433 0.6077137022183484 2.09086279130125 0 0 0
34 0 1 0 -0.2746635474619854 1.5040281825231387 7.056364858609803 0 0 0
35 0 2 0 -0.31648060168192194 2.2316989458704746 7.746435242731148 0 0 0
36 0 2 0 -1.1803833105010912 1.1316183820995926 7.118830465126747 0 0 0
37 0 1 0 6.244876357895436 2.5902027381938693 2.386508447368127 0 0 0
38 0 2 0 6.5712648696475995 2.1980295883161527 1.5325268657424904 0 0 0
39 0 2 0 6.604506515180637 1.978998343276181 3.0922722195758956 0 0 0
40 0 1 0 3.934445036748137 2.7429309724623794 7.087973725183381 0 0 0
41 0 2 0 3.8871323767693724 1.971369942134677 6.454307935224007 0 0 0
42 0 2 0 3.9158645682710067 2.2965672829597845 7.952466956352744 0 0 0
43 0 1 0 -0.6214373847931758 5.176306469000042 7.40094879732298 0 0 0
44 0 2 0 -0.7358848192279264 5.310703971423514 8.32560310793234 0 0 0
45 0 2 0 0.24305937143314216 4.77411098048386 7.198863282337527 0 0 0
46 0 1 0 1.7025638644645635 4.7627200627997315 2.407875876484438 0 0 0
47 0 2 0 2.1477998410731844 5.172141276543335 1.6400847968389283 0 0 0
48 0 2 0 1.9736328965487808 5.33658714609255 3.1545774415688403 0 0 0
49 0 1 0 6.533800877886245 3.613924378564663 6.579970012586137 0 0 0
50 0 2 0 5.722282369756606 3.263283127447079 6.897346898300093 0 0 0
51 0 2 0 6.2201533730488645 4.23495747456519 5.868821887354087 0 0 0
52 0 1 0 3.6032812527020566 3.046742018823208 3.281349335204198 0 0 0
53 0 2 0 4.42753097993147 3.0698662178852287 2.812120628384944 0 0 0
54 0 2 0 2.837271168679108 3.40997155579895 2.8324662509799223 0 0 0
55 0 1 0 -0.834306528159634 4.305052470152368 3.1097838916521416 0 0 0
57 0 2 0 8.091812795374409e-06 4.374932274082216 2.6858082946364403 0 0 0
58 0 1 0 1.8108842487723478 4.300330437279134 6.557375865670947 0 0 0
59 0 2 0 1.4416869201955067 3.7762580395818213 5.856551928084536 0 0 0
60 0 2 0 2.6311265559649075 3.805094046621138 6.864828046567433 0 0 0
61 0 1 0 8.10848297090209 7.23950927834192 1.8275837559323715 0 0 0
62 0 2 0 7.670953465889377 7.881020193423572 1.2130551527861637 0 0 0
63 0 2 0 7.402494494237217 6.965055918988107 2.425268247389303 0 0 0
64 0 1 0 1.8342395517607017 7.214344815446781 7.991441497210936 0 0 0
65 0 2 0 2.3225755795101177 7.5415812419610795 8.785767094729064 0 0 0
66 0 2 0 2.6718105430244385 6.9635244065739315 7.495914080524463 0 0 0
67 0 1 0 -2.6150804497070057 0.6358566642826887 8.027576715410696 0 0 0
69 0 2 0 -2.7712394827556417 1.4734386469148535 8.463806303449227 0 0 0
70 0 1 0 3.433315700837157 0.45496278124682615 1.4241168889835336 0 0 0
71 0 2 0 2.7033523516624682 0.8856755251125438 1.9410591828569592 0 0 0
72 0 2 0 4.150594219876927 0.26093994662177106 2.0810002410027373 0 0 0
73 0 1 0 4.818482233674244 5.0663509390103485 4.914153679329277 0 0 0
74 0 2 0 4.218799809173948 4.390697581010212 4.58463479909806 0 0 0
75 0 2 0 5.065691274098878 5.55202334161737 4.093410647096811 0 0 0
76 0 1 0 0.5970280776554107 2.494363689612319 4.63094623590339 0 0 0
77 0 2 0 0.06978166100621563 2.0550780753506674 5.280725893879759 0 0 0
78 0 2 0 -0.04560189792245062 3.049453848137757 4.1892792314730345 0 0 0
79 0 1 0 -0.08148503003145091 1.4368716532762253 19.39018308795051 0 0 -1
80 0 2 0 -0.7461593963634705 0.8682387906040353 18.936717770317532 0 0 -1
81 0 2 0 7.711420414324223 0.7251246977788234 0.3366029023920539 0 0 0
82 0 1 0 -4.849302299722549 6.2251016956726275 19.31422750425686 0 0 -1
83 0 2 0 -5.53804029139671 6.722494740559485 18.898018771994604 0 0 -1
84 0 2 0 -4.3854799773605535 5.921652439104148 18.481265630820022 0 0 -1
88 0 1 0 12.830577879773983 1.2826175150555883 5.040013467233742 0 0 0
89 0 2 0 12.083243346084396 0.6343566831718109 4.99340322212126 0 0 0
90 0 2 0 12.749467938282717 1.7789786519354964 5.867821739671458 0 0 0
91 0 1 0 8.310266138317623 6.561320986437176 5.1627414828019855 0 0 0
92 0 2 0 7.551527880032401 7.140403748089538 5.000131505330938 0 0 0
93 0 2 0 8.19464504283194 5.7954791600167335 4.580707417774982 0 0 0
94 0 1 0 11.242043062338764 6.741952105493636 4.615614579533875 0 0 0
95 0 2 0 10.338890777859666 6.949523110534837 4.732737635320952 0 0 0
96 0 2 0 11.75510516812966 7.555608065319586 4.786153638113137 0 0 0
100 0 1 0 7.462265668515891 4.813604193355033 19.39368531866076 0 0 -1
102 0 2 0 7.50419223313389 5.672736757143807 18.874277298465415 0 0 -1
103 0 1 0 2.502508864736062 2.4913221457408548 19.33301017710939 0 0 -1
104 0 2 0 1.8941392478346852 3.2353033658819284 19.140853217907775 0 0 -1
105 0 2 0 3.3971961004475677 2.8529099205525403 19.28250785830868 0 0 -1
106 0 1 0 9.602245283819997 2.8247315831204323 9.683471699672168 0 0 0
107 0 2 0 9.291393797855651 2.5237321100912204 8.812450864031607 0 0 0
108 0 2 0 9.822423343690929 2.0466753496736367 10.244109273923147 0 0 0
111 0 2 0 12.43687143564375 6.797923408327497 7.206204761618989 0 0 0
114 0 2 0 14.517125119915393 5.554683421404757 1.6313417313157155 0 0 0
115 0 1 0 10.408295004377369 1.3071417403067482 2.56321644608317 0 0 0
116 0 2 0 11.321712225677786 1.038677604566702 2.333620747246204 0 0 0
117 0 2 0 10.054648207574314 1.8110089553129627 1.8138494379278185 0 0 0
118 0 1 0 9.122563731436495 1.1329676177563948 7.413095335942334 0 0 0
119 0 2 0 9.189759434710531 1.329959145693892 6.504635373324535 0 0 0
120 0 2 0 9.907938879348515 0.5243817022930669 7.55513859067699 0 0 0
123 0 2 0 14.319407161919303 2.9289731291527765 2.3980798289037466 0 0 0
125 0 2 0 12.5220663354832 3.5843825466940666 6.901386971370348 0 0 0
127 0 1 0 8.580826894765785 4.907736986191964 7.481179508666295 0 0 0
128 0 2 0 8.35536612016584 5.6469392352866725 6.896442547094746 0 0 0
129 0 2 0 7.853830978920805 4.311697529767859 7.303338703158474 0 0 0
130 0 1 0 10.700417050861773 5.120688689377962 2.4040939564267667 0 0 0
131 0 2 0 9.82285546260305 4.663452813749691 2.5396200261232003 0 0 0
132 0 2 0 10.859271139808877 5.727186528817056 3.18576728370099 0 0 0
135 0 2 0 -1.8696899816979324 3.8433189205773934 6.856349142800054 1 0 0
136 0 1 0 12.757761415101454 3.4034976076595713 3.1882973403478188 0 0 0
137 0 2 0 11.928576236613363 3.7707508951218593 2.8028718449209253 0 0 0
138 0 2 0 12.59683577378882 2.6194811223584136 3.7206978148028576 0 0 0
139 0 1 0 8.248381358166595 4.182626712262621 3.369895857944658 0 0 0
140 0 2 0 7.5519221495248265 3.8664152569331405 2.7840919496613723 0 0 0
141 0 2 0 8.367214787313511 3.4143651161517674 3.954489838322624 0 0 0
142 0 1 0 11.16982365998463 4.388932574132384 6.248857478609726 0 0 0
143 0 2 0 11.521564826808499 5.098789472594912 5.745299271022479 0 0 0
144 0 2 0 10.336141334550343 4.772452069725396 6.6634693550367565 0 0 0
148 0 1 0 11.048482279486329 7.274091953173654 8.024546257915059 0 0 0
149 0 2 0 10.92148188988254 6.43923966039971 8.557506106850026 0 0 0
150 0 2 0 10.093486228641012 7.42080354813386 7.821270811344273 0 0 0
151 0 1 0 6.656338198161772 0.5965799903029176 8.360675724131507 0 0 0
152 0 2 0 7.476797583182082 0.7699361263050185 7.900160005318274 0 0 0
153 0 2 0 6.458380192761885 1.4517577647319184 8.73377792653011 0 0 0
154 0 1 0 12.792243961219896 0.28972835026628063 1.453609030253249 0 0 0
155 0 2 0 12.895225858028597 1.056427977893132 0.8116369281982062 0 0 0
156 0 2 0 12.361586164604558 21.898714301203004 0.9732652782638896 0 -1 0
158 0 2 0 13.359685754304106 4.725814429956689 4.541947437786724 0 0 0
160 0 1 0 9.519679724372812 2.282144186002629 4.928273269926418 0 0 0
161 0 2 0 10.066138978386828 3.02548603511865 5.2554134227963765 0 0 0
162 0 2 0 9.977086006488705 1.933078430719752 4.139294915225871 0 0 0
165 0 2 0 8.01577865278766 0.8015509538695174 18.676812930382006 0 0 -1
166 0 1 0 4.2986538197166135 6.293982216564751 19.392225590548545 0 0 -1
167 0 2 0 10.991231007542705 5.819674077067696 0.8200126074675558 0 0 0
168 0 2 0 3.690410631828202 6.932963488694382 18.960545922268906 0 0 -1
169 0 1 0 6.577140220326344 8.537837789470371 4.7511711488046195 0 0 0
170 0 2 0 5.612699768662459 8.421088561871107 4.804638048015252 0 0 0
171 0 2 0 6.864312089941336 9.209417861786207 5.4240415325927165 0 0 0
172 0 1 0 3.7344487085147042 8.53227346774307 5.016484415342217 0 0 0
173 0 2 0 3.0148459291699012 7.894487511319808 4.868147626352467 0 0 0
174 0 2 0 3.456665954582143 9.31586470172562 4.5098198303223 0 0 0
175 0 1 0 -0.9438557971283689 13.982184622751767 5.343540902629829 0 0 0
177 0 2 0 -0.11264122341594107 14.499437536600448 5.278949027234056 0 0 0
178 0 1 0 1.8125600618361866 14.184161770590906 4.969706462533809 0 0 0
179 0 2 0 1.9565869899744486 13.377804898972515 5.460176891113023 0 0 0
180 0 2 0 1.7463435924175488 13.877478553927308 3.9988337374665477 0 0 0
181 0 1 0 4.508637827213026 12.436755532751102 9.835906248286937 0 0 0
182 0 2 0 4.600083655926254 13.12010517217594 10.505846455352463 0 0 0
183 0 2 0 5.182962550537708 11.759954497123527 9.977738815396808 0 0 0
184 0 1 0 5.359502746098078 12.3408157079173 0.25735634684502706 0 0 0
185 0 2 0 -1.8712024146447463 13.162125344841277 18.94525168395757 0 0 -1
186 0 2 0 6.335787369687133 12.184406656160846 0.17412897211017858 0 0 0
187 0 1 0 0.6992957145499572 10.31755438916855 0.23043260470950122 0 0 0
188 0 2 0 0.49418169086953323 9.916684223175949 1.0281225489395027 0 0 0
189 0 2 0 1.6879847647671649 10.360747684105716 0.1593228722686165 0 0 0
190 0 1 0 0.06467852816562836 10.259394806924993 9.888856388978898 0 0 0
191 0 2 0 -0.09722565934400906 10.044005100447704 8.949512754699034 0 0 0
192 0 2 0 0.49789477258566217 11.114487252523768 9.931676780293353 0 0 0
193 0 1 0 4.461357470209345 14.126644178847675 7.250946672326067 0 0 0
194 0 2 0 4.596521707019321 13.75198942289321 6.3838101455058025 0 0 0
195 0 2 0 4.490061055181459 13.378663557923508 7.890878688369747 0 0 0
196 0 1 0 5.662833456308151 13.839717755302917 2.5807552799968576 0 0 0
197 0 2 0 5.326408103553576 13.25187210362439 1.8654600950510574 0 0 0
198 0 2 0 5.609274940793534 13.338774408321497 3.4187193705295598 0 0 0
199 0 1 0 0.8545537926996616 8.700548850403322 2.4556510921307395 0 0 0
200 0 2 0 0.2827826245046704 7.945871068733484 2.32418284858684 0 0 0
201 0 2 0 1.7631306943783556 8.377172863952087 2.4923634960459733 0 0 0
202 0 1 0 -0.24855814976318946 8.854746189608097 7.44718715526286 0 0 0
203 0 2 0 -1.0761372365045119 8.362067625444562 7.547085617282221 0 0 0
204 0 2 0 0.4187781283770322 8.145847068458488 7.527755855542331 0 0 0
205 0 1 0 6.088954016794271 10.362348272777107 2.6126278923735096 0 0 0
206 0 2 0 6.295525687452423 9.523853685267637 3.0784772300321217 0 0 0
207 0 2 0 6.725063855860931 10.988967906647652 3.0147342398908976 0 0 0
208 0 1 0 3.91244539279145 9.917269412155198 7.617233181426862 0 0 0
209 0 2 0 3.496457995229597 10.737179817053493 7.2968505949257905 0 0 0
210 0 2 0 3.7618651217066765 9.336747371052809 6.859062600328167 0 0 0
211 0 1 0 -0.42835135467165397 12.07517449334779 7.3339449746808585 0 0 0
212 0 2 0 -0.5286275280026476 12.372282862142862 8.265784120128732 0 0 0
213 0 2 0 -0.4742186359971994 12.89153579210955 6.808397883142374 0 0 0
214 0 1 0 1.8139210444131257 12.637260206633922 2.5642656145467075 0 0 0
215 0 2 0 1.8037187168369466 13.027745157918742 1.663986978312441 0 0 0
216 0 2 0 0.9504118169611067 12.380100890660708 2.7727639689672734 0 0 0
217 0 1 0 6.659429338220837 10.796823776481006 6.549303711067858 0 0 0
218 0 2 0 6.115536441676256 10.592164481839653 7.369415442517776 0 0 0
219 0 2 0 7.445921231254282 11.238245239094356 6.850144476323268 0 0 0
220 0 1 0 3.6349431480264194 11.031605779371501 3.7300579938082583 0 0 0
221 0 2 0 4.531277098542812 10.85364177666983 3.234192993616205 0 0 0
222 0 2 0 3.0204352962210756 11.555548734323072 3.2072319505468485 0 0 0
223 0 1 0 -0.8033844370857437 11.89007994793636 3.5332700246910904 0 0 0
224 0 2 0 -0.4755411359897912 11.21899809835504 4.136003897723036 0 0 0
225 0 2 0 -0.8841618743450499 12.685405352079375 4.106879408725372 0 0 0
226 0 1 0 2.2272310945528213 11.721045127101341 6.081025044901327 0 0 0
227 0 2 0 1.373612710386185 11.275618773640522 6.189783349394784 0 0 0
228 0 2 0 2.678933116695469 11.286240840098612 5.3235351343146995 0 0 0
229 0 1 0 8.461748951791607 14.416476668117292 2.244661705819182 0 0 0
230 0 2 0 7.5927865333630535 14.23927436243823 2.695253014400668 0 0 0
231 0 2 0 8.922898229744597 15.171025605234664 2.6179680348713323 0 0 0
232 0 1 0 1.9542002243193117 14.797347753182025 8.48941063999069 0 0 0
233 0 2 0 2.595830424074648 14.527219596394131 7.85132082095755 0 0 0
234 0 2 0 1.2920930143335916 15.395868880028953 8.092594339314402 0 0 0
235 0 1 0 -2.71519223415992 8.007863567038807 8.124691981051807 0 0 0
238 0 1 0 3.4550753792660815 8.02909219918739 1.8411428777868977 0 0 0
239 0 2 0 3.8622068438939947 8.72361927450684 1.2760619976467718 0 0 0
240 0 2 0 3.092367811071534 7.381412004686908 1.1653187842430808 0 0 0
241 0 1 0 5.420787977478312 12.879004971143518 5.056880425593015 0 0 0
242 0 2 0 5.839685407542541 12.16413631238326 5.571437278426069 0 0 0
243 0 2 0 4.701653806156607 12.361264463722161 4.603881803582924 0 0 0
244 0 1 0 0.5643318305371101 9.702510774907214 4.90851460285025 0 0 0
245 0 2 0 0.5057827601736677 9.147699749696626 4.102502454201791 0 0 0
246 0 2 0 0.2611471336550433 9.15806777345601 5.690436823886819 0 0 0
247 0 1 0 6.760733646642862 9.30980310051065 0.22827720257248588 0 0 0
248 0 2 0 6.554914584016411 9.783110888502431 1.0328648852302331 0 0 0
249 0 2 0 -1.1607628964714527 8.97522483786984 19.18567516359534 0 0 -1
250 0 1 0 2.397447356329596 13.59929719373367 0.14433080610330654 0 0 0
251 0 2 0 -5.248697384876621 14.292195349448662 18.959768712566845 0 0 -1
252 0 2 0 3.08908281868736 14.032698685718836 0.5697937275042853 0 0 0
256 0 1 0 12.72002462665512 8.969739073080527 5.051334599907731 0 0 0
257 0 2 0 13.699038195349237 8.86541775398479 4.881774268754396 0 0 0
258 0 2 0 12.76146006972077 9.333091264558425 5.974134209327595 0 0 0
259 0 1 0 8.329475682680881 14.131265231085232 5.125405156794484 0 0 0
260 0 2 0 9.298267711638468 14.143925351921098 4.94860581003748 0 0 0
261 0 2 0 8.106804472952424 13.212586467625565 4.918214977834798 0 0 0
262 0 1 0 11.061050668045986 13.796293117617887 5.059775209861813 0 0 0
263 0 2 0 11.106944685471337 13.72381481084923 4.094820837607624 0 0 0
264 0 2 0 11.716619977928167 14.469837784876091 5.406218259509985 0 0 0
268 0 1 0 14.495113046450056 12.598775111379382 0.5083949483676278 0 0 0
269 0 2 0 14.364630520951822 12.787603925568067 1.4370617628751108 0 0 0
270 0 2 0 13.86500711878642 11.92695407893369 0.2060301080352569 0 0 0
271 0 1 0 9.861716694332108 10.088235175248526 0.3654369928566288 0 0 0
272 0 2 0 10.855404741382472 10.333111448817832 0.22533218180691383 0 0 0
273 0 2 0 9.940201188014404 9.693087873329068 1.2698753313498123 0 0 0
274 0 1 0 9.09154956898326 10.16138527790743 9.938235361199682 0 0 0
275 0 2 0 9.672440852975198 10.972571289035852 9.789527791643415 0 0 0
276 0 2 0 9.118678483614593 9.68133138912959 9.129167765171074 0 0 0
279 0 2 0 12.885453022877995 13.814528442301054 7.46667828289223 0 0 0
280 0 1 0 14.480859898620142 14.045139326271064 2.761887601895783 0 0 0
283 0 1 0 10.124027146691802 8.67597374647434 2.6552056289197266 0 0 0
284 0 2 0 9.532741932449431 7.9306884982934465 2.5152089121088816 0 0 0
285 0 2 0 11.056473400389228 8.388226714230722 2.6051703296920508 0 0 0
286 0 1 0 8.843183755509537 8.522988045379487 7.514287031875963 0 0 0
287 0 2 0 7.940755630037978 8.271927590352183 7.742273685787661 0 0 0
288 0 2 0 8.786255230764443 8.956037029362204 6.619792182031204 0 0 0
291 0 2 0 14.386962758830384 10.785747700203395 2.6040963999253277 0 0 0
295 0 1 0 8.692047628485296 12.435503467500606 7.495781392348961 0 0 0
296 0 2 0 8.693010604326489 13.181679488903532 6.829528924179474 0 0 0
297 0 2 0 9.602713902515028 12.090026554122478 7.4681813677235 0 0 0
298 0 1 0 10.848725131641256 12.617202675736571 2.6603207571465766 0 0 0
299 0 2 0 10.876153713730853 13.133876972296772 1.8277923604682211 0 0 0
300 0 2 0 11.527188999740009 11.914592656999615 2.5833723652224863 0 0 0
303 0 2 0 -1.5948031597630763 11.007882995126057 6.822762543545974 1 0 0
304 0 1 0 12.89134645974323 11.005752005650798 3.3445592681631977 0 0 0
305 0 2 0 12.683376274839945 10.223130701471488 3.891226443154306 0 0 0
306 0 2 0 13.287072583513128 11.556927784803262 4.012839809778955 0 0 0
307 0 1 0 8.268220704409003 11.719831527226539 3.6738109398388032 0 0 0
308 0 2 0 8.995124740311786 12.107197147381335 3.1305345911119966 0 0 0
309 0 2 0 8.71259299545332 11.02170866296415 4.1773557850762435 0 0 0
310 0 1 0 11.029016830752399 11.487499266301935 6.611779423015062 0 0 0
311 0 2 0 11.931306486882809 11.205497666059182 6.889045993373397 0 0 0
312 0 2 0 11.244385682589067 12.261227686360526 6.026528413339244 0 0 0
314 0 2 0 -0.46730511422625237 15.187890761320526 2.1338518264920543 1 0 0
316 0 1 0 11.367453808035469 14.632087003832792 8.289079593920478 0 0 0
317 0 2 0 10.86210565815098 13.885210264391306 8.742192680040207 0 0 0
318 0 2 0 11.784478620478062 15.144191623090014 9.014408031738663 0 0 0
319 0 1 0 5.991718313817502 7.9953418422208635 8.50800164410674 0 0 0
320 0 2 0 6.24651938922488 7.234170694229923 9.051628115196985 0 0 0
321 0 2 0 5.21554152543276 7.660754016799949 7.985694011619764 0 0 0
322 0 1 0 12.765464555500204 8.097007222421711 1.5787752415663763 0 0 0
323 0 2 0 12.304137997976767 7.387100814682802 1.120347240782219 0 0 0
324 0 2 0 13.547930663449856 7.734256092069814 1.975293860506761 0 0 0
328 0 1 0 9.50868930206842 9.740599634360906 5.1817361055201525 0 0 0
329 0 2 0 10.06394960649798 9.331446892996144 4.510738508280968 0 0 0
330 0 2 0 10.168493977649511 10.253374451300449 5.656477555733233 0 0 0
334 0 1 0 4.076129259995678 13.698395884547802 19.247724604405285 0 0 -1
335 0 2 0 4.51121975208433 13.151293977028171 18.559102029218554 0 0 -1
336 0 2 0 3.404629886490321 14.232291358767748 18.74722141520324 0 0 -1
337 0 1 0 6.561345978205267 16.355214544729147 4.837278541190856 0 0 0
338 0 2 0 7.215506582872062 15.675150798786465 5.06684483721151 0 0 0
339 0 2 0 6.7478569260677865 16.56551960953762 3.9072029400007797 0 0 0
340 0 1 0 3.9182362476608255 16.30506330118456 5.116123192254123 0 0 0
341 0 2 0 3.374328999222554 15.58587895056077 4.754645088728103 0 0 0
342 0 2 0 4.808025092290941 15.987480750924787 5.191381172891485 0 0 0
343 0 1 0 -0.7262218037634101 22.088459360034207 4.605110532659964 0 0 0
344 0 2 0 -0.6753517121353043 21.73873887979397 5.494504922507226 0 0 0
345 0 2 0 -1.4013862220394244 0.11683272400548622 4.539271342795129 0 1 0
346 0 1 0 1.9805339239054292 21.441245682498007 4.484010950421974 0 0 0
347 0 2 0 1.9056556638207844 20.616469810260657 4.981413453991874 0 0 0
348 0 2 0 1.1331476904672988 21.862363608685 4.516846197343197 0 0 0
349 0 1 0 4.989741247355977 19.82739257357375 9.593221351884273 0 0 0
350 0 2 0 5.042683538864933 20.466047550584232 10.311780468846942 0 0 0
351 0 2 0 4.846870368487885 20.391602590264405 8.806580078547334 0 0 0
352 0 1 0 5.408303106763835 19.933656760931967 0.48918501320143515 0 0 0
353 0 2 0 4.662733245453993 19.32301601626113 0.5055877644533794 0 0 0
354 0 2 0 5.2384124141031565 20.39953727923608 1.338788841101 0 0 0
355 0 1 0 0.757795406768699 17.654335055789417 0.1308710482145719 0 0 0
356 0 2 0 0.6976850012302799 17.14979461845227 0.9469499520344588 0 0 0
357 0 2 0 -6.593208655763183 17.055360987069797 18.7874284112953 0 0 -1
358 0 1 0 -0.011248784795179212 17.9322009537465 9.572566496906559 0 0 0
359 0 2 0 0.10554815705100395 17.1667732098003 10.18139731111474 0 0 0
360 0 2 0 0.5257380814410042 18.680196581067612 9.834595569951134 0 0 0
361 0 1 0 4.497286107858117 21.37957950890418 7.431818958181723 0 0 0
362 0 2 0 5.264052003806619 21.97968803041773 7.501914281908819 0 0 0
363 0 2 0 3.7112159021910527 21.916103810655912 7.417016761304388 0 0 0
364 0 1 0 5.688328225519568 21.69158010162614 2.4900126681303045 0 0 0
365 0 2 0 6.677671357819734 21.754897882832406 2.391264333436538 0 0 0
366 0 2 0 5.513215940580428 21.18655806965156 3.294437477138371 0 0 0
367 0 1 0 0.9799785316222474 16.162060834343652 2.3614353104756898 0 0 0
368 0 2 0 1.9191412102017436 15.88851067962636 2.175165847327774 0 0 0
369 0 2 0 1.033016548901696 16.499841368867543 3.2694670814594553 0 0 0
370 0 1 0 -0.04629753487523125 16.3141144927588 7.39341929751771 0 0 0
371 0 2 0 -0.027714054372677488 17.135559901634792 7.807734764693636 0 0 0
372 0 2 0 -0.028317798043411724 16.43322898115946 6.400839956604077 0 0 0
373 0 1 0 6.622475115141177 17.53284106595514 2.346109315135331 0 0 0
374 0 2 0 6.601631813925672 17.036759469716102 1.4880550966344641 0 0 0
375 0 2 0 5.713365049680198 17.830593201531816 2.461108321636517 0 0 0
376 0 1 0 3.776096183777396 17.997227344070556 7.13282125354249 0 0 0
377 0 2 0 3.489699640985603 17.324595621907083 6.495355337488144 0 0 0
378 0 2 0 4.697302273437112 18.19277739509345 6.895693447929683 0 0 0
379 0 1 0 -0.746268558129543 20.211927464506992 6.733060845415165 0 0 0
380 0 2 0 -1.5243339001715042 19.639354342753894 6.586589663053675 0 0 0
381 0 2 0 -0.9388827153851471 20.584655285932712 7.616274212973622 0 0 0
382 0 1 0 1.4885298633772335 19.701470038452168 2.4146876088327573 0 0 0
383 0 2 0 2.164392884731129 18.976441720289337 2.417637389283493 0 0 0
384 0 2 0 1.8872491411553982 20.285265493501328 3.0497316439348214 0 0 0
385 0 1 0 6.2655693831862855 18.63329726885493 6.589106541983452 0 0 0
386 0 2 0 6.996582527196071 19.026964241834097 7.018371674617073 0 0 0
387 0 2 0 6.6814841049485025 17.951940264496073 6.064162527160788 0 0 0
388 0 1 0 4.01876172410171 18.40965488676235 3.1967465424433135 0 0 0
389 0 2 0 3.89122706063058 17.653153935167573 3.7741952612875354 0 0 0
390 0 2 0 3.9830430032863573 19.1490944388783 3.8087351059523264 0 0 0
392 0 2 0 -0.2399377553482721 19.432517878508023 2.836271721688936 0 0 0
394 0 1 0 1.752259241855258 19.309730637266135 5.869199717316914 0 0 0
395 0 2 0 1.0466732973145545 19.622409285043044 6.401006745474535 0 0 0
396 0 2 0 2.5428948440213954 19.122014940036117 6.435106356788576 0 0 0
397 0 1 0 8.527001113886563 22.02262345282578 1.5089411184695838 0 0 0
398 0 2 0 8.765715709813199 21.254813028857317 0.926892632693471 0 0 0
399 0 2 0 9.291321565097368 22.44521814947913 2.000583217155862 0 0 0
400 0 1 0 1.628146221663985 22.43101155199943 7.86585697969826 0 0 0
401 0 2 0 2.371860790298726 0.5163201465578421 8.414293879182367 0 1 0
402 0 2 0 0.8945812329629206 0.39827681969705925 7.670242326333608 0 1 0
403 0 1 0 -2.815667919579137 15.527694745250313 8.514653812731943 0 0 0
404 0 2 0 -1.9792503129859123 15.75820122913389 8.043357003156494 0 0 0
405 0 2 0 -2.942699880714822 16.331317300883025 8.99294656151404 0 0 0
406 0 1 0 3.6392107288722104 15.52530409332934 1.8417943464121953 0 0 0
407 0 2 0 4.385595541420546 15.142175051344584 2.281816343627308 0 0 0
408 0 2 0 4.01297064152533 16.33231386474864 1.385154229777397 0 0 0
409 0 1 0 4.733579715501967 20.341584464223924 4.992443858768278 0 0 0
410 0 2 0 5.514331532118386 19.880277213283975 5.355169261012541 0 0 0
411 0 2 0 4.548499290422031 20.974380913401838 5.666877726689414 0 0 0
412 0 1 0 0.21410673302874583 17.1570210289362 4.648511371438955 0 0 0
413 0 2 0 0.7975700339305949 17.846781404516715 5.063691705829364 0 0 0
414 0 2 0 -0.29629695602584083 17.799020787789217 4.110171667099077 0 0 0
415 0 1 0 -0.2641840060119014 16.04075470888982 19.407289426664782 0 0 -1
416 0 2 0 7.500254898322731 15.342795002280733 0.4262622442266265 0 0 0
417 0 2 0 0.13700243620398656 16.43028049149264 18.59427612689032 0 0 -1
418 0 1 0 2.132183131057114 20.96865959471664 0.12570154581428858 0 0 0
419 0 2 0 1.76853671678531 20.513891163256798 0.8758761281141774 0 0 0
420 0 2 0 2.6891331953791258 21.589650456600676 0.596852885101869 0 0 0
424 0 1 0 12.829049553652915 15.730393581019701 5.513860421478394 0 0 0
425 0 2 0 13.775105775959041 15.826940513009298 5.269024357214653 0 0 0
426 0 2 0 12.495302159682971 16.528162822769705 4.995323420723471 0 0 0
427 0 1 0 8.372501118734332 21.6449162482076 5.046308330727491 0 0 0
428 0 2 0 7.778675992524936 22.396793843183115 4.897868798692516 0 0 0
429 0 2 0 8.15506351487226 20.960898625240173 4.339702527617975 0 0 0
430 0 1 0 11.204017871332425 21.46015492020878 4.995991403703616 0 0 0
431 0 2 0 11.454182679415245 20.989019606241367 4.227546452527681 0 0 0
432 0 2 0 10.310164390630456 21.737861862662307 4.844981817581789 0 0 0
436 0 1 0 14.556469707514971 19.61707392943556 0.4950303651847674 0 0 0
438 0 2 0 13.877539228401831 18.964082606042844 0.3396705033725108 0 0 0
439 0 1 0 9.803518556236826 17.661982643078435 0.30890145106433636 0 0 0
440 0 2 0 10.772273413401146 17.792245920544357 0.2025519906151247 0 0 0
441 0 2 0 9.697075975274055 17.35839056300113 1.260528787365968 0 0 0
442 0 1 0 9.28596589147389 17.842034238434803 9.49337424587986 0 0 0
443 0 2 0 8.31667105251708 17.973625869032006 9.724119685030894 0 0 0
444 0 2 0 9.242109404367534 17.732306934199606 8.525896218270013 0 0 0
447 0 2 0 12.757246118071773 21.843272061752266 6.972251452118086 0 0 0
450 0 2 0 14.026325602077257 22.00655361835575 2.195540857878819 0 0 0
451 0 1 0 10.338991841453256 16.573955174966926 2.813521484679772 0 0 0
452 0 2 0 11.16701643469402 16.10536810571177 2.7580609048936218 0 0 0
453 0 2 0 10.179596134504965 16.770062794764023 3.773316161808185 0 0 0
454 0 1 0 9.046190184815467 16.003255236808148 7.420496524014787 0 0 0
455 0 2 0 8.228198158219277 15.704366985923553 7.8636104444537205 0 0 0
456 0 2 0 9.806500020476825 15.45649779730692 7.792279351299907 0 0 0
461 0 2 0 12.182825389787093 18.101384153553642 7.50268750427385 0 0 0
462 0 2 0 13.012702571987722 16.939518324735328 7.0938453144856295 0 0 0
463 0 1 0 8.365435048755964 20.166508959781936 7.50356708505328 0 0 0
464 0 2 0 8.241744427003537 20.851707251197535 6.813227695375237 0 0 0
465 0 2 0 8.35458797219961 20.578393220997192 8.377379495228002 0 0 0
466 0 1 0 10.963084655880749 19.777735136817476 2.582488193367376 0 0 0
467 0 2 0 11.395517966338103 18.937440236628316 2.7636003282272243 0 0 0
468 0 2 0 10.040118865826525 19.53555083408871 2.881445618054599 0 0 0
472 0 1 0 12.60122389412016 17.816544423450306 3.6707426751746532 0 0 0
473 0 2 0 13.233034972157194 17.438047632061586 3.0617747271523 0 0 0
474 0 2 0 13.032409645197655 18.668049727022826 3.908844549033654 0 0 0
475 0 1 0 8.371847165315488 19.18259443160361 3.6102708516377264 0 0 0
476 0 2 0 8.632081242671413 18.58891198255902 4.3332314826802225 0 0 0
477 0 2 0 7.889896643490662 18.491297030677945 3.0657919068035704 0 0 0
478 0 1 0 10.851414383683005 19.25019390207329 7.04603943246617 0 0 0
479 0 2 0 10.023882599098178 19.535102527725662 7.432592450267764 0 0 0
480 0 2 0 11.045495740674006 20.040906485324943 6.54017613226304 0 0 0
484 0 1 0 11.24674749619134 22.036575529445393 8.250006904995782 0 0 0
485 0 2 0 11.55333747050989 0.23294978730067115 8.880080653533927 0 1 0
486 0 2 0 11.13789794480843 21.22334078745236 8.767420528867495 0 0 0
487 0 1 0 6.51637266441118 15.409204208566157 8.377053670287927 0 0 0
488 0 2 0 6.86920213733252 14.805350350303328 9.052662634753817 0 0 0
489 0 2 0 5.817285197051948 14.9386627830298 7.945260266739094 0 0 0
490 0 1 0 12.449205922568702 15.374662081384967 1.7302534356064587 0 0 0
491 0 2 0 13.197860543876667 14.838258566452161 2.063645176344249 0 0 0
492 0 2 0 12.048190938423257 14.910461314304177 0.9819268789616793 0 0 0
496 0 1 0 9.525554342312464 17.514759951092113 5.312388059172698 0 0 0