LAMMPS (29 Sep 2021 - Update 2)
  using 1 OpenMP thread(s) per MPI task
echo both

include		in.partitions
variable        pid world 0
include		in.temp
variable        temperature equal 260
variable        tempDamp equal 0.100 # this is 0.1 ps
include		in.pressure
variable        pressure equal 6079.5
variable        pressureDamp equal 1.0 #this is 1ps
include		in.seed
variable        seed world 745823

units           metal
atom_style	full
include		in.box
read_data       iceV.data
Reading data file ...
  triclinic box = (0.0000000 0.0000000 0.0000000) to (18.399555 22.570389 19.505716) with tilt (0.0000000 -6.7926110 0.0000000)
  1 by 1 by 1 MPI processor grid
  reading atoms ...
  1008 atoms
Finding 1-2 1-3 1-4 neighbors ...
  special bond factors lj:    0        0        0       
  special bond factors coul:  0        0        0       
     0 = max # of 1-2 neighbors
     0 = max # of 1-3 neighbors
     0 = max # of 1-4 neighbors
     1 = max # of special neighbors
  special bonds CPU = 0.003 seconds
  read_data CPU = 0.016 seconds
include 	in.setup
variable	out_freq equal 500
variable	out_freq2 equal 500

timestep        0.0005

neigh_modify    delay 7 every 1

include         in.deepmd
# This is deepMD model

# create groups ###
#group ox type 2
#group hy type 1

mass 2 15.999
mass 1 1.008

pair_style      deepmd ../graph.pb
pair_coeff      * *

bond_style      none
angle_style     none
dihedral_style  none
improper_style  none
neigh_modify exclude none


neighbor        2.0 bin
neigh_modify    every 10 delay 0 check no

thermo          ${out_freq}
thermo          500
thermo_style 	custom step temp pe etotal epair emol press lx ly lz xy xz yz vol pxx pyy pzz pxy pxz pyz

restart 	${out_freq} restart.lmp.${pid} restart2.lmp.${pid}
restart 	500 restart.lmp.${pid} restart2.lmp.${pid}
restart 	500 restart.lmp.0 restart2.lmp.${pid}
restart 	500 restart.lmp.0 restart2.lmp.0


include         in.dump
dump            myDump all atom ${out_freq2} dump.water.${pid}
dump            myDump all atom 500 dump.water.${pid}
dump            myDump all atom 500 dump.water.0
dump            myDump2 all dcd ${out_freq2} dump.dcd
dump            myDump2 all dcd 500 dump.dcd
dump_modify     myDump append yes
dump_modify     myDump2 append yes


timer           timeout 03:55:00 every 1000
New timer settings: style=normal  mode=nosync  timeout=03:55:00

fix             2 all nph tri ${pressure} ${pressure} ${pressureDamp}
fix             2 all nph tri 6079.5 ${pressure} ${pressureDamp}
fix             2 all nph tri 6079.5 6079.5 ${pressureDamp}
fix             2 all nph tri 6079.5 6079.5 1
fix             3 all temp/csvr ${temperature} ${temperature} ${tempDamp} ${seed}
fix             3 all temp/csvr 260 ${temperature} ${tempDamp} ${seed}
fix             3 all temp/csvr 260 260 ${tempDamp} ${seed}
fix             3 all temp/csvr 260 260 0.1 ${seed}
fix             3 all temp/csvr 260 260 0.1 745823
velocity 	all create ${temperature} ${seed} dist gaussian
velocity 	all create 260 ${seed} dist gaussian
velocity 	all create 260 745823 dist gaussian

run             400000

CITE-CITE-CITE-CITE-CITE-CITE-CITE-CITE-CITE-CITE-CITE-CITE-CITE

Your simulation uses code contributions which should be cited:

- USER-DEEPMD package:

@article{Wang_ComputPhysCommun_2018_v228_p178,
  author = {Wang, Han and Zhang, Linfeng and Han, Jiequn and E, Weinan},
  doi = {10.1016/j.cpc.2018.03.016},
  url = {https://doi.org/10.1016/j.cpc.2018.03.016},
  year = 2018,
  month = {jul},
  publisher = {Elsevier {BV}},
  volume = 228,
  journal = {Comput. Phys. Commun.},
  title = {{DeePMD-kit: A deep learning package for many-body potential energy representation and molecular dynamics}},
  pages = {178--184}
}

CITE-CITE-CITE-CITE-CITE-CITE-CITE-CITE-CITE-CITE-CITE-CITE-CITE

Neighbor list info ...
  update every 10 steps, delay 0 steps, check no
  max neighbors/atom: 2000, page size: 100000
  master list distance cutoff = 8
  ghost atom cutoff = 8
  binsize = 4, bins = 7 6 5
  1 neighbor lists, perpetual/occasional/extra = 1 0 0
  (1) pair deepmd, perpetual
      attributes: full, newton on
      pair build: full/bin
      stencil: full/bin/3d
      bin: standard
Per MPI rank memory allocation (min/avg/max) = 7.699 | 7.699 | 7.699 Mbytes
Step Temp PotEng TotEng E_pair E_mol Press Lx Ly Lz Xy Xz Yz Volume Pxx Pyy Pzz Pxy Pxz Pyz 
       0          260   -178.42725   -144.58436   -178.42725            0    36074.613    18.399555    22.570389    19.505716            0    -6.792611            0    8100.4335    35605.887    36855.564    35762.387   -447.06712    1251.1798    365.72257 
     500    256.78556   -164.92722   -131.50273   -164.92722            0    12488.675    18.033083     22.23327    19.263184 -0.028169654   -6.7493279 -0.0087292403    7723.2733     11263.51    12931.916      13270.6   -2667.9802    9.9621167   -333.02143 
    1000    259.36608   -164.28614   -130.52576   -164.28614            0    7008.7782    18.072984    22.610699    19.494818 -0.025365867   -6.8573206  0.013758558    7966.4169    8224.6226    7380.7571    5420.9549     1972.597   -224.89659   -473.02699 
    1500    255.82936   -164.72964   -131.42962   -164.72964            0    17356.169    18.052524    22.678949    19.375187 -0.016470866   -6.9066404 -0.0069126231    7932.4393    18960.592    14491.291    18616.625   -1467.4326    3266.1059    1626.8283 
    2000    253.86122   -162.24386   -129.20002   -162.24386            0    2295.8508    18.034126    22.643516    19.268065 0.0076051659   -6.9333627 -0.056045776    7868.2303    6723.9664    2913.7849    -2750.199   -1313.4106    1455.0869    382.83527 
    2500    259.68026   -162.37813   -128.57686   -162.37813            0    7001.0249    18.154462    22.835615    19.343743   0.01297707   -7.0049018 -0.086608329    8019.3027    6335.9807    5735.1023    8931.9918   -3759.1643    2679.0138    119.56856 
    3000    271.71197   -163.07772   -127.71034   -163.07772            0    10491.823    17.997982    22.592345    19.192332  0.026398424   -6.9793276 0.0058077637    7803.9209    10724.738    8997.0119     11753.72    1122.9283    1033.3442   -1461.4995 
    3500    255.15948   -163.61797   -130.40514   -163.61797            0    942.63959    18.138398     22.69938    19.389569  0.069879815   -7.0504934   0.18528249    7983.2747    1728.6733    316.13206    783.11336    402.90686     63.14114   -4091.7056 
    4000    255.28138    -163.8087   -130.58001    -163.8087            0    7558.2457    18.143157    22.625058    19.351058 0.0047597957   -6.9988179   0.23058877    7943.4156    9479.3983    7396.2759     5799.063    2187.9473    1109.8251    4924.0932 
    4500    255.86841   -163.57453   -130.26943   -163.57453            0    7706.4509    18.061304    22.484073    19.272272  -0.13060347   -6.8830698  0.092112449    7826.3091    7321.2384    8339.2945    7458.8198   -3491.3687    -61.57787   -498.11614 
    5000    254.24825   -163.34787   -130.25366   -163.34787            0    6039.8685    18.165907    22.628293    19.463835  -0.22640378   -6.8740204  -0.10255799    8000.8717    4114.0847    5628.4537    8377.0671    2013.9047   -203.06138   -380.68556 
    5500    260.63732   -164.83805    -130.9122   -164.83805            0    7952.2568    18.017683    22.520004    19.307751  -0.10773223   -6.8072206 -0.078585419    7834.2798    11199.756    5115.7018    7541.3127   -1733.8628    757.21489    1235.8206 
    6000     256.8419   -163.43884   -130.00702   -163.43884            0    4979.8694    18.034185    22.677468    19.283093   0.09638858   -6.8050032   0.11283828       7886.2    3465.5608     5423.839    6050.2082   -3198.1495   -1382.2238   -2467.8635 
    6500    252.22729     -163.851   -131.01985     -163.851            0    3927.0588      18.0062    22.901542    19.275521   0.17729365   -6.8596546   0.22828829    7948.6415     6425.189    1506.0328    3849.9545    632.82435    1495.7072   -2051.9943 
    7000    266.53889   -162.90233   -128.20831   -162.90233            0    9055.6855    17.963219    22.786148    19.173822   0.15261157   -6.8577549   0.14110362    7848.0864    10180.746     9034.351    7951.9593   -300.85343    -1450.282    924.66278 
    7500    260.24138   -162.89502   -129.02071   -162.89502            0    1323.4533    18.178082    22.764736    19.317992   -0.0643945   -6.9442134  -0.17652442    7994.1567    3063.1567   -488.07967    1395.2829    -646.6619   -299.38358    3069.2727 
    8000    259.29226   -163.78431   -130.03355   -163.78431            0    9176.0141    18.176437     22.35038     19.33453  -0.23786338   -6.8955451  -0.35490316    7854.6581    9845.3502    10524.096    7158.5957   -2546.9793   -2244.6696    914.43398 
    8500    247.00735   -163.55117   -131.39947   -163.55117            0    7408.6473    18.155019      22.3334    19.465786  -0.21570283   -6.8425765  -0.12790997    7892.6618    10060.143    4547.8648    7617.9343    184.95864    1589.3618    1132.4582 
    9000    259.33216   -162.32355   -128.56759   -162.32355            0    3686.8623    18.170356    22.511738    19.561618 -0.041707752   -6.8192834   0.23216971    8001.6075    1209.6096    5189.3549    4661.6223   -7.9864356   -1483.6044    -583.6411 
    9500    268.55078   -163.28157   -128.32567   -163.28157            0    9847.0418    17.971662     22.47588    19.325586  0.033454911   -6.7864313    0.4217932    7806.1629    10622.274    9981.2078    8937.6435    1832.6982    1055.7842   -396.74435 
   10000    272.23174   -164.27652   -128.84149   -164.27652            0    3857.8411    18.151345    22.784776    19.345879 -0.084967146   -6.8871581   0.24223173    8000.9589    5711.9652    1124.6141     4736.944   -3702.8038    330.38767    897.29086 
   10500    268.94536   -161.14475   -126.13749   -161.14475            0    8550.8216    18.066099    22.765058    19.233254  -0.16759268   -6.8436768 -0.067314228    7910.1713    9154.0779    8070.4395    8427.9475    3598.0428   -2087.8446    5862.9758 
   11000    254.88534   -162.06392   -128.88677   -162.06392            0    9368.3697    18.013378    22.710217    19.289494  -0.13763327   -6.8453204   -0.1378376    7891.0955    7520.0731    10705.276    9879.7595   -67.152658   -372.19293   -400.11987 
   11500    252.17402   -162.99265   -130.16843   -162.99265            0    3236.5697    18.097649    22.663371    19.420154 0.0044571217   -6.9087218  0.036861341    7965.2485    3017.9506    4917.8667    1773.8917   -214.60095    1911.8567   -29.291085 
   12000    260.14124   -161.60485   -127.74357   -161.60485            0    9075.9473    18.064011    22.419139    19.329749   0.13236476   -6.9329153   0.19605525    7828.1533    7141.3327    10588.676    9497.8333    -2180.394      1863.58   -496.67301 
   12500    269.63976   -163.65794   -128.56029   -163.65794            0    1304.8235    18.242404    22.575257    19.522293  0.044988108    -6.978339   0.13271708    8039.8067   -1359.6696    1218.1617    4055.9783     1209.645     936.5724    89.866517 
   13000    275.38038   -162.60804   -126.76316   -162.60804            0    12830.178    18.052934    22.445958    19.373568  -0.12810818   -6.8452047 -0.022098317    7850.4684    14061.743    13764.266    10664.524   -570.65745   -1462.7178    733.02892 
   13500    261.96027   -164.11488   -130.01683   -164.11488            0    4512.5804    18.013251    22.750678    19.355329  -0.20526345   -6.7182015 -0.061194994    7932.0784    4268.6491    3882.5165    5386.5755    1885.2989   -1238.7583    2848.5617 
   14000    263.94676   -165.25393    -130.8973   -165.25393            0    3233.4993    18.063571    22.922725    19.325929  -0.20872734   -6.6914399 0.0083787294    8002.2157    3647.6947    2707.4021    3345.4012    818.25527    738.27756   -646.97801 
   14500    256.34596   -164.54086    -131.1736   -164.54086            0    6215.4671    17.965016    22.662019    19.131955 -0.031026696   -6.6333735    0.1358445    7789.0691    7169.5049    6548.7779    4928.1185    559.19106   -1822.1794     1306.866 
   15000    265.33718   -163.95484   -129.41723   -163.95484            0     3802.971    18.130377    22.776023    19.446122   0.19077561   -6.7521386   0.20188517    8030.0403    5760.7327    3771.8209    1876.3595   -1616.8486   -1936.0151   -3376.9199 
   15500     261.8282   -163.11511   -129.03425   -163.11511            0    6588.9691    18.023952    22.467763    19.402248   0.22517631    -6.856859   0.11572193     7857.093    5752.2436    6012.2054    8002.4581   -461.12403   -168.38235   -1573.0348 
   16000    261.92365   -162.91676   -128.82348   -162.91676            0    6598.8423    18.105177    22.415425    19.435524  0.065266819   -6.9866545 -0.062877498    7887.6206    8766.0131    7631.6267    3398.8871     1896.685   -2774.2255   -1210.1054 
   16500     258.8136   -162.56519   -128.87672   -162.56519            0    4480.0952    18.195767      22.5464    19.446234  -0.14205347   -7.1355464   -0.0935029    7977.7992     4108.302    5322.9986    4008.9851    438.88043    646.92082   -1629.4077 
   17000    263.18535    -162.6325   -128.37499    -162.6325            0    8862.4216    18.100464    22.479217    19.301407  -0.27704624   -7.0681864 -0.0039182565    7853.4386    4051.2354    14528.144    8007.8857    2252.0717    1691.9753    2882.7821 
   17500    260.30128   -163.63911     -129.757   -163.63911            0    4537.2405    18.160822    22.720063     19.36447  -0.21331419   -6.9682529   0.12148964    7990.0712     4265.948    4970.5207    4375.2529    2650.8902   -422.27615   -1277.0163 
   18000    259.48948   -164.75017   -130.97373   -164.75017            0    10383.985    17.999789    22.747068    19.173185  0.085511358   -6.7173404   0.18757716    7850.3153    8272.1855    11851.556    11028.215   -7.3655572   -168.87085   -122.39176 
   18500    256.31216   -164.29252   -130.92966   -164.29252            0     5426.231    17.928759    22.917028    19.285533   0.27926845   -6.4343886  0.069661093    7923.9215    4889.2878     6906.702    4482.7031    -1136.919    1543.7758   -453.80857 
   19000    262.09903   -164.00251    -129.8864   -164.00251            0    4786.7933    17.883573    22.931542    19.337958   0.17230513   -6.3222725  -0.18363339    7930.4564    8234.9481    2374.1824    3751.2494    2611.2684   -2137.9439    1338.6975 
   19500     261.0781   -163.32751   -129.34429   -163.32751            0    9182.7345    17.952737    22.698561    19.332096 -0.070657801   -6.4782996  -0.32605338    7877.8542    9902.9704    9796.7454    7848.4875   -126.20398    -527.5199    4293.1364 
   20000    251.92355   -164.15337   -131.36175   -164.15337            0    4659.9795    18.238824    22.570133    19.434117  -0.18953628   -6.8675601  -0.12661811    8000.1063    5009.4897    3800.4859    5169.9628   -526.81692    331.92661   -253.68267 
   20500    263.47831   -164.40976   -130.11412   -164.40976            0    4182.3952    18.224052    22.364738    19.271522  -0.19938135   -7.1161001   0.21521805    7854.6129    1689.4936    4994.1125    5863.5795    700.61851   -2158.4635   -180.14868 
   21000    258.41373   -164.36209   -130.72567   -164.36209            0    5527.9992    18.173769    22.514142    19.418137  -0.20423129    -7.189256   0.28929266    7945.2573    4706.0416    5400.2856    6477.6703    1777.9089    851.49796    1126.9888 
   21500    250.09578   -164.67665   -132.12294   -164.67665            0    6791.4799    18.034035    22.589676    19.463026  -0.11970588   -7.1276032   0.12350955    7928.9059    4172.9077    9737.7437    6463.7884   -144.36559   -596.73426    1065.4428 
   22000    261.66263    -164.0655    -130.0062    -164.0655            0    6767.1359    17.975897    22.594907    19.390794  0.016889526   -6.9634734   -0.0638543    7875.8371    5983.2754     8231.196    6086.9362    84.017781    2921.6829    534.73978 
   22500    259.67016    -163.4777   -129.67774    -163.4777            0    6282.1557    18.071548    22.837074    19.281568   0.19706606   -6.8070125  -0.18672727    7957.5277    5922.9244    6124.0677     6799.475    474.21579    1392.4373    1947.4975 
   23000    250.26866   -163.56754   -130.99132   -163.56754            0    9242.5108     18.08643    22.833938    19.115243   0.28066654   -6.6833035  -0.14842089    7894.2973    8906.5835    7508.1101    11312.839   -2049.8543   -1935.8902    4101.1042 
   23500    255.49538    -163.0873   -129.83075    -163.0873            0    7224.4679    18.021783    22.843903    19.295449  0.097813622    -6.612171   0.08300886     7943.702    7672.7548    6747.4663    7253.1827    257.54706   -92.608546   -3800.6123 
   24000    272.59653   -162.93305   -127.45054   -162.93305            0    9502.5071    17.894741    22.597151    19.519027  -0.22968762   -6.6093997   0.29558414    7892.9121    12224.628    11683.756     4599.137   -3171.7137   -1.2377563    143.38966 
   24500    257.69618   -162.15213   -128.60912   -162.15213            0    7296.9078    18.070538    22.481781    19.575678  -0.45654229   -6.7852041   0.33086056    7952.7735    9455.5845    7857.1941    4577.9448    1623.7209    892.80648   -1991.2628 
   25000    265.86763   -163.35617   -128.74952   -163.35617            0    3270.8391    18.250298    22.378679    19.446746  -0.36809992   -6.9382615   0.16643829    7942.3925    4501.5579    3484.2674    1826.6919   -164.03872   -811.88676    1099.8354 
   25500    260.08119   -162.59279   -128.73933   -162.59279            0    5297.1968    18.290391    22.412722    19.339425  -0.10572342   -7.0477232 -0.052082303    7927.9543    1639.1225     7066.407    7186.0608     191.2349    1764.0902    177.53321 
   26000    269.63944   -163.13063   -128.03302   -163.13063            0    5279.5426    18.179874     22.64237    19.365821   0.21415093   -7.0201139 -0.092383228     7971.658    2945.0801    6543.3621    6350.1855   -3495.5598   -66.913609   -1349.1155 
   26500    248.37024   -162.64441    -130.3153   -162.64441            0    7594.3027    18.036248    22.666941    19.349679   0.40203916   -6.9662956 -0.078656958    7910.6627     6769.331    8380.7887    7632.7885   -467.95348    3444.6701   -3436.0453 
   27000    270.17037   -162.43745   -127.27074   -162.43745            0    6980.4272     18.10081    22.768509    19.321668   0.21241118   -6.8960177  -0.04591508     7963.009     8772.775     5978.155    6190.3516   -503.52482   -688.34615    3555.7837 
   27500    264.88536   -163.38262   -128.90382   -163.38262            0     9760.412    18.087723    22.753154     19.25466  -0.12890905   -6.7772697  0.043213209    7924.3083    8279.5301    8582.1828    12419.523    -205.4493   -2593.6554   -1725.7302 
   28000    257.71561   -163.42995   -129.88441   -163.42995            0     6425.798    18.021132    22.723777    19.342166  -0.36763781   -6.7171667   0.10767247    7920.7755    7498.2561    8136.8202    3642.3177    -221.6934   -286.31296    2667.0738 
   28500    260.97364   -162.80549   -128.83586   -162.80549            0    7839.1637    18.039628    22.765684     19.40326  -0.48926933   -6.7265726    0.2383574    7968.6173    6700.2008    8872.1119    7945.1783    1011.7121    1833.3284    495.90003 
   29000    260.11435   -163.32044   -129.46267   -163.32044            0    6549.6004    18.095895    22.634801    19.397773  -0.32737135   -6.7335908   0.25852707    7945.2692    6847.9132    6972.9803    5827.9078    1237.9874    1144.0851   -1284.7814 
   29500     265.2433   -162.32128    -127.7959   -162.32128            0    4363.8336    18.138577    22.416506    19.338374   0.12121568   -6.8168682 -0.010038537    7863.0509    1480.9243    5734.1992    5876.3774   -1674.1433    520.22951   -1116.1363 
   30000    274.97008   -161.61781   -125.82634   -161.61781            0    7444.8321    18.297198    22.533874    19.478893   0.48244879   -6.9412126  -0.33545462    8031.2791    7297.1584    6988.1722    8049.1659   -926.21459   -1161.0012    -1572.487 
   30500    266.87158   -162.24921   -127.51188   -162.24921            0      8118.76    18.118703    22.496341    19.363403    0.4783213   -6.9106051  -0.45733332    7892.6105    6887.6034    7111.5017    10357.175   -3040.4602    -2257.268    2453.5104 
   31000     260.1051   -161.28828   -127.43171   -161.28828            0    7277.1716    18.024581    22.730654    19.382821   0.20272742   -6.8356545  -0.28159087    7941.3451    8377.2452    7607.0481    5847.2214    160.79857   -478.42245    1682.5488 
   31500    264.48296   -162.71325   -128.28684   -162.71325            0    8774.6186    18.023101    22.847931    19.353849  -0.10274614   -6.8457675  0.056371857    7969.7324     7784.767    9673.5388    8865.5501   -2377.4655    2308.7693    1464.6411 
   32000    263.20954    -163.5076   -129.24693    -163.5076            0    5461.4499    17.970409    22.790916    19.280019  -0.29403571   -6.8211308   0.28377919    7896.3645    5740.9109    6290.9964    4352.4425    119.76862   -1304.0835    -671.5279 
   32500    271.00707   -164.13551   -128.85988   -164.13551            0    6593.1483    18.069889    22.764652     19.28448  -0.32743245   -6.8759497   0.25230904    7932.7622    7503.4386    5843.6115    6432.3948    1016.2847   -558.31207   -1358.6905 
   33000    265.15573   -162.91742   -128.40343   -162.91742            0    5696.8815    18.149171    22.622568    19.380811  -0.21149885   -6.9609394  0.075372729    7957.3901    369.15181    8730.4199     7991.073    237.62222    1044.5686    -1341.637 
   33500     258.1632   -163.23983   -129.63602   -163.23983            0    2292.4188    18.100521    22.479217     19.43523  0.076548543   -6.9692643   -0.1001988    7907.9142    513.60457    3456.0713    2907.5805    2070.0784   -272.10965    835.66403 
   34000    260.73966   -165.02071   -131.08154   -165.02071            0    4469.2807    18.108049    22.418393    19.472859   0.38922266   -6.9789826  -0.15364489    7905.0721    7110.6021    3429.9046    2867.3356   -3333.8296    -1472.132   -2729.3836 
   34500    249.21087   -164.39475   -131.95623   -164.39475            0    5867.1133     18.20263    22.463851    19.387824   0.52650807   -7.0316761  -0.10639495    7927.7038    3702.5223    9739.2589    4159.5587   -4913.8768    976.34732   -988.81796 
   35000    255.41877   -165.43189   -132.18531   -165.43189            0    9198.6438    18.145891    22.737695    19.154556   0.18352506   -6.9035319 -0.099166413     7903.088    7500.1742    7768.9684    12326.789   -788.20898   -2178.6193   -1032.3819 
   35500     254.0385   -163.67094   -130.60402   -163.67094            0    9408.8723    18.020565    22.943317    19.069628  -0.35175474   -6.7849813 -0.042351923    7884.3673    5929.3599    9593.3751    12703.882    4465.9514   -746.41858     2978.596 
   36000    258.13755   -163.57446     -129.974   -163.57446            0    5604.2384    17.984771    23.010201    19.234025  -0.51485558   -6.7330171   0.14011566     7959.678    6531.5275    4521.6339    5759.5538    803.62662    1039.5538   -1338.1453 
   36500    270.47442   -164.34891   -129.14261   -164.34891            0    7838.3603    17.939126    22.678697    19.342008  -0.32321172   -6.6966652   0.29934185    7869.0253    9685.4287    6947.5126    6882.1395   -1031.6054   -559.63389   -715.45487 
   37000    259.71054   -163.66736   -129.86215   -163.66736            0    3566.0173    18.130066    22.463229    19.504723 -0.027442051   -6.8578572   0.31058121    7943.4901    3557.5051    4479.9576    2660.5892    1097.4796    701.44133    -397.1953 
   37500    256.60167   -163.24645    -129.8459   -163.24645            0    5140.9022    18.232688    22.402473    19.428706   0.17339153   -6.9622384    0.1300674    7935.7967    5388.5822    5384.0055    4650.1188   -2307.0775    -192.5918   -2564.4547 
   38000    264.96143   -162.99237   -128.50367   -162.99237            0    5761.5904      18.2553    22.453008    19.299863   0.15239626   -7.0165115  -0.11962698    7910.7513    3876.5397    7399.8112    6008.4202   -2519.1713   -942.08848    -770.6632 
   38500    264.01197   -162.96874   -128.60363   -162.96874            0    7641.0548    18.116091    22.727055    19.307627   0.01935441   -6.9915548  -0.22651524    7949.4405    7880.4434    5254.6988    9788.0221    611.36223   -442.72743    1994.3378 
   39000    250.70009   -163.05755   -130.42518   -163.05755            0    11076.085    17.904546    22.819415    19.321724  -0.11138631   -6.9142203 -0.050211678    7894.3016    12892.299     10250.47    10085.485   -26.386371   -1523.5627    49.263651 
   39500    266.63109   -163.40383   -128.69781   -163.40383            0    4959.8975    17.827517    22.943584      19.3413  -0.16164218   -6.8054831    0.2311486    7911.1163    4543.0185    7603.1878    2733.4864   -3429.8005    2323.6482    286.96232 
   40000    259.72951   -163.10096   -129.29327   -163.10096            0    6948.6785     17.89705    23.025064    19.313618  -0.21181655   -6.6943977    0.4928357    7958.7699    9527.2712    3067.2256    8251.5387   -363.63777    -1580.907    355.61712 
   40500    261.07051   -163.67787   -129.69563   -163.67787            0    5500.0769    18.155032    22.787833    19.167912  -0.34888506   -6.6473111   0.53979053    7930.0304     1799.599    9727.6111    4973.0208    257.01468    1207.3352   -1280.1611 
   41000    261.36838    -164.1606    -130.1396    -164.1606            0    6341.1461    18.252955    22.507118    19.249717  -0.37241106   -6.5619434   0.15978788    7908.1959    5922.6537    6416.8753    6683.9094   -880.92429   -1353.6895   -1858.2193 
   41500    264.80629   -163.45845   -128.98995   -163.45845            0    6550.2516    18.170105    22.388526    19.520556  -0.25164408   -6.5514127  -0.12213222    7940.9982     6974.946    8477.3575    4198.4514    859.17859    1143.1474   -1324.6112 
   42000     263.3134   -163.57447   -129.30029   -163.57447            0    2851.5217    18.087798    22.398944    19.570443  -0.04407436   -6.6409282  -0.16997205    7928.9175    4018.1624    4081.4844    454.91842    -1482.515    -843.1261    1636.8336 
   42500    267.14472   -163.90987   -129.13698   -163.90987            0    9774.8722    18.109277    22.409679    19.488864   0.15590397   -6.8586385 -0.011535444    7909.0309    3684.5519    11359.881    14280.184   -744.41397     847.2352    1891.4435 
   43000    262.69345   -162.77405   -128.58057   -162.77405            0    8543.9345    18.156478    22.560884    19.418766   0.24635908   -7.0630671   0.18142912    7954.4348    8497.7416    9603.1751    7530.8869   -587.01606    1204.1558     1000.559 
   43500    268.80543   -163.99905   -129.01001   -163.99905            0    4116.2888    18.076534    22.654445    19.315135   0.17258277    -7.172676   0.19024437    7909.8154    4238.3705    3513.3017    4597.1942   -922.29082    -417.5601   -2693.2663 
   44000    259.18394   -163.66949   -129.93282   -163.66949            0    7126.8945    18.055317    22.763627    19.359261  -0.11066676   -7.2459532  0.028860863    7956.7436     10341.76      6636.22    4402.7036    1211.0541    806.42721    746.94869 
   44500    267.29925   -164.54956   -129.75657   -164.54956            0      5543.38    18.038859    22.796385    19.321064  -0.37992324   -7.1699593  -0.11918838    7945.2231    5077.0436    3413.0481    8140.0484    1756.6778   -1102.6148   -1237.5801 
   45000    258.02142   -165.21088   -131.62553   -165.21088            0    6402.6211    18.094825    22.777158    19.183125  -0.30996529   -6.9633047  -0.15948388    7906.2997    2638.8149    7679.5839    8889.4644    3987.1649    1278.6766     1453.322 
   45500    268.87078   -165.62937   -130.63181   -165.62937            0    8138.2896    18.181548    22.809062    19.144157   0.13819997    -6.612089  0.086153451    7939.1597    7443.9798    7422.9177    9547.9715     314.2219   -176.66061   -293.47116 
   46000    257.54341   -163.36967   -129.84654   -163.36967            0    6085.6935    18.039312    22.700359    19.238785   0.36476091   -6.2992627   0.18999007    7878.2606    6622.1472    4083.1249    7551.8085   -3340.0543   -1316.6531   -1608.3702 
   46500    265.94575   -164.71252    -130.0957   -164.71252            0    7361.8518    17.967199    22.679168    19.514191   0.20715087   -6.2580446  0.030238809    7951.6641    7276.0041    10624.915    4184.6363     3291.914     1738.243    2169.4236 
   47000    270.33908   -164.15899   -128.97031   -164.15899            0    4286.3593    17.946159    22.578606    19.499976 -0.078637563   -6.4351377 -0.090063238    7901.3755    2990.8356    3958.4291    5909.8132   -196.35613    964.99381   -810.63781 
   47500    272.28958   -163.76109   -128.31853   -163.76109            0    2727.6461    18.078394    22.584827    19.419206  -0.22320997   -6.7409535 -0.037490374    7928.8116    1741.7714    3548.7849    2892.3819     3537.096   -1279.6219    192.62197 
   48000    268.20382   -163.93591   -129.02517   -163.93591            0    5204.9424    18.214743    22.624116     19.30084  -0.15153358   -7.0645137   0.05900278    7953.7309    4325.5981    3011.4047    8277.8245    799.64254   -3861.5825    444.99928 
   48500    252.55877   -161.96514   -129.09084   -161.96514            0    5460.0997    18.192641    22.566217     19.25727 -0.044930839   -7.1846611    0.1482424    7905.8621    4503.3142     3716.403     8160.582    695.34591   -1098.6832   -4245.7459 
   49000    271.05316   -163.36413    -128.0825   -163.36413            0    8442.9781    18.046423    22.687217     19.33596 -0.0069250374    -7.159285   0.13137705    7916.5888    8596.3013    9162.0302    7570.6028   -2687.3355    3084.8944    104.38933 
   49500    273.54185    -160.1629   -124.55733    -160.1629            0    7848.8096    18.016744    22.832692    19.487334 0.0056604473   -6.9978456  0.036481061    8016.5193    7715.6928     8479.664    7351.0721   -3175.9705    -1186.924    506.34835 
   50000    269.21506    -162.0358   -126.99343    -162.0358            0    9189.9449    18.006157    22.746803    19.269148  0.064050959   -6.6585481 -0.042736385    7892.3063      6922.75    8417.8365    12229.248    1508.7464   -119.71203    4646.4338 
   50500     264.0643   -163.94968   -129.57776   -163.94968            0    5871.9875    18.146731    22.659629    19.221223  0.070244829   -6.4229563  -0.11102617     7903.732     4539.052    6578.8844    6498.0261   -1662.9941    667.53308   -670.09442 
   51000     261.7528   -162.47269   -128.40164   -162.47269            0    1221.9222    18.183258    22.605109    19.485787  0.039941673   -6.3300159   -0.1011147    8009.3315    1842.4314    270.29549    1553.0397    3895.5098    960.62304   -443.38099 
   51500     262.2391   -163.04611   -128.91177   -163.04611            0      7451.09     17.95422    22.358374    19.530042 -0.00016744095    -6.396122  0.040002824    7839.8894    7236.3723    7394.7027    7722.1949    3308.1356    682.31847    2050.0762 
   52000    246.38959   -163.59309    -131.5218   -163.59309            0    2320.7845    18.091961    22.510209    19.595393 -0.084197397   -6.7408728   0.17364676    7980.2984   -348.33693    5857.6757    1453.0148   -1189.5287    420.80421    894.48319 
   52500    263.24732    -161.9527   -127.68712    -161.9527            0    6164.8566    18.116472    22.620631    19.255256   -0.1089934   -7.1001178   0.24318055    7890.9198    4566.4119    5370.9797     8557.178    887.38235    901.68635   -1213.8306 
   53000    256.25494   -163.63243   -130.27701   -163.63243            0    2378.9964    18.206365    22.752314    19.175247  -0.11159162   -7.2905872   0.13734281    7943.0957    1038.2487    2629.4813    3469.2591    696.90694    847.01574    2893.1663 
   53500    261.80311   -163.17453   -129.09694   -163.17453            0    5196.7963    18.084258     22.79311    19.203843  -0.10683393    -7.251803 0.0045904252    7915.7565    6460.1264    4806.6576    4323.6049    1061.6934    3460.4158   -1123.9668 
   54000    268.82455   -163.49406   -128.50252   -163.49406            0    5515.2659    18.009577    22.827136    19.305601 -0.052631163   -7.0713029 -0.030684382    7936.6693    4433.5416    4316.7588    7795.4973    1686.8836    1070.1531   -3396.9474 
   54500     254.1947     -164.161   -131.07375     -164.161            0    3815.0019    17.934395    22.776113    19.329354 -0.00047958438   -6.8653669 -0.013796581    7895.5733    8387.7955    1233.2714    1823.9389   -194.95694   -809.56126    524.61004 
   55000    249.91032   -162.33422   -129.80465   -162.33422            0    8569.1501    18.043317    22.719807    19.317352  0.019474194   -6.7433701  0.017816778    7918.9682    9714.9982    7636.6757    8355.7766    1001.6296   -268.32556   -815.58359 
   55500    246.81756   -163.88938   -131.76238   -163.88938            0    11131.499    18.169172    22.555538    19.275134 -0.004248543   -6.7320993  0.038621479     7899.248    7650.4815    13922.924    11821.092   -388.73988    989.39855   -1700.6335 
   56000    270.90704   -163.09231   -127.82971   -163.09231            0    8664.3325    18.182138    22.539921    19.309608 -0.039284391   -6.7952596  0.084905755      7913.54    9019.1465    10122.834    6851.0167   -498.46073    2207.2798   -3504.1331 
   56500    258.91878   -162.48712   -128.78496   -162.48712            0     10071.12    18.040661    22.547726      19.4055 -0.066454712   -6.9411078   0.12090033    7893.6893    10765.595    10176.736    9271.0282   -2824.2552    1.5329385    -994.6537 
   57000    270.52906   -164.79537   -129.58196   -164.79537            0    7572.9893    17.995614    22.726654    19.421879 -0.030683127   -7.2436014   0.18067624    7943.1619    7577.5133    7318.7829    7822.6718   -3196.3346    1862.8912   -869.32642 
   57500     263.1378   -163.73633   -129.48501   -163.73633            0    849.69492    17.986217    22.925403    19.188502 0.0096829992   -7.4583131   0.16178428    7912.2113    5535.5509   -1871.7531    -1114.713   -1315.0744    1426.4925    728.08711 
   58000    257.10958   -163.39625    -129.9296   -163.39625            0    5796.8469    18.086205    22.969175    19.004972  -0.10270427   -7.4840366  0.001210562    7895.1442     8405.796     2857.732    6127.0128   -452.10368    1746.0683    498.81635 
   58500    251.31745   -162.33775   -129.62502   -162.33775            0    3008.2166    18.124024    22.875859    19.240859  -0.11261851   -7.2329199  -0.13919992    7977.3105    -1307.696    3446.7958    6885.5498    27.332486    1077.6857    2058.9362 
   59000    260.24111    -162.6127   -128.73843    -162.6127            0    4574.7037     17.99425    22.601221    19.436311  0.026732465   -6.7916839  -0.11689852    7904.5928    2198.9577    4980.2167    6544.9366   -169.67516    178.28576    736.05911 
   59500    254.60437   -161.41433   -128.27376   -161.41433            0    6686.2088    17.996309    22.503138    19.528391   0.11803511   -6.4707729   0.04179313    7908.4794    9126.1387    6346.6981    4585.7896    1185.3634   -1352.6038    93.240961 
   60000     256.0295    -163.9084   -130.58233    -163.9084            0    4792.0663    18.158922    22.480483     19.45037  0.065845137   -6.4916271   0.13442166    7940.0558    4551.2582    4405.8881    5419.0526    2253.7191   -1253.7072    3447.7579 
   60500    260.51037   -164.30842   -130.39909   -164.30842            0     7689.674    18.198474    22.487682     19.33932 -0.010138031   -6.7012736  0.060016114    7914.4521    7284.3098    6901.3501    8883.3621    98.367541   -2479.7149    2148.2273 
   61000    262.03513   -164.03022   -129.92242   -164.03022            0    2752.0582    18.086156    22.578938    19.348379  -0.12251137   -6.9861388 -0.020501768    7901.2241    2900.8111    3433.5383    1921.8251    3488.5153   -1417.0973   -1285.3045 
   61500    257.13861   -162.50747   -129.03704   -162.50747            0    5722.6704    17.952186    22.741269    19.395969  -0.13569192   -7.2240199 -0.022173274    7918.5107    6606.0885    6052.7382    4509.1845    2485.6308    1623.8036    791.46952 
   62000    263.38942    -163.2846   -129.00053    -163.2846            0    8577.6159    17.891452    22.829977    19.377631 -0.053014651   -7.2836778   0.05448533    7915.0154    5680.0576    10530.121    9522.6689    3148.3835    2992.2721   -603.72052 
   62500    259.57195   -163.45324   -129.66607   -163.45324            0    4684.3012     18.01382    22.811907    19.255491  0.092954345   -7.1928997   0.12342694     7912.651    5592.3744    2730.7239    5729.8052    -2266.301    1158.6085   -2726.8034 
   63000    262.43702   -160.79976   -126.63966   -160.79976            0    8393.4367    18.266358     22.65038    19.129147    0.1858043    -6.940935   0.12197266    7914.4923    7336.1013    11691.181    6153.0277   -808.02059    987.98392    1772.0573 
   63500    259.48529   -163.25439   -129.47849   -163.25439            0    3136.5095    18.333104    22.470879    19.280093  0.019094669   -6.6699328  0.030380102    7942.6455    5511.8018    1391.2629    2506.4636   -858.95036     281.9385    1364.0769 
   64000    259.47689   -162.51765   -128.74285   -162.51765            0    2345.5178    18.188022    22.350442    19.559029  -0.15727904   -6.5134046 0.0094878129    7950.9471    3658.2901    3891.0269    -512.7636    164.63831    -350.9806    3347.7513 
   64500    261.40136    -163.5842    -129.5589    -163.5842            0    7584.1891    17.988764    22.355329    19.633834  -0.25895364   -6.5016964    0.1020577    7895.6432    7750.0452    6474.1241    8528.3979    2521.4991     1281.709   -226.70662 
   65000     265.2349   -166.13872   -131.61442   -166.13872            0    4268.6808    18.087434    22.450477    19.497906 -0.081389346    -6.740798   0.23060931    7917.5441    4218.8901    5941.7401    2645.4121   -1757.8084    792.22225   -1242.5086 
   65500    255.60576   -163.99192     -130.721   -163.99192            0    7209.9047    18.250983    22.554781    19.287202  0.068179048   -7.0660237     0.273456    7939.5175    6238.4657    6246.4105    9144.8379    2044.2277     1216.888   -2178.6287 
   66000    280.66371   -163.72463   -127.19205   -163.72463            0    5126.1117    18.196348    22.619069     19.15111  0.047923143   -7.2635657   0.12244359    7882.2993    4752.8632     3981.956    6643.5158   -4655.2317   -1326.4987    940.58124 
   66500    269.13529   -163.10481   -128.07282   -163.10481            0    5385.9911    18.077916    22.858137    19.305822 -0.089866705    -7.297833  -0.07170822    7977.6961    6539.3073    5021.9146    4596.7514    2413.6775    1065.3067    4823.8015 
   67000    247.23544   -162.20779    -130.0264   -162.20779            0    5861.0968    17.902878    22.783964    19.378816  -0.13249603   -7.1592832 -0.098875769    7904.5906    8221.3303    4283.0895    5078.8707     3754.538    326.70024    5647.2712 
   67500     258.8751   -163.30639   -129.60992   -163.30639            0    6978.9638    17.993759    22.655116    19.343711 -0.023099253   -6.9664465   0.13163915    7885.4774    5377.6077    5831.1845    9728.0992    1973.6307   -3884.7261   -1358.3053 
   68000    254.97413   -163.51774   -130.32904   -163.51774            0     3095.396    18.184024    22.599237    19.285856   0.07964469   -6.7764488   0.28959106    7925.4277   -970.41473    4167.9701    6088.6325   -192.82188   -2342.0703    1558.9272 
   68500     268.8562   -163.48926    -128.4936   -163.48926            0    5954.0928    18.168642    22.529888    19.291423 -0.020214066   -6.6435485   0.20939334    7896.7019    3921.5404     6306.143     7634.595   -313.03763   -558.99253   -979.55398 
   69000    258.68106   -164.87475   -131.20354   -164.87475            0    7346.7916    18.138762     22.54607    19.459387 -0.096083705   -6.5897399 -0.025715134    7958.0679    8123.9982    7758.8521    6157.5245   -1349.5075    2364.9655   -647.24024 
   69500    253.79166   -163.92735   -130.89257   -163.92735            0    5695.4368    17.931157    22.430792    19.454484 -0.078755702   -6.6565155  -0.16180009    7824.7889    5996.6241     6201.055    4888.6314   -121.77261   -599.33194    615.27997 
   70000    255.86649   -163.94489   -130.64004   -163.94489            0     6198.567       18.098    22.582819    19.538541 -0.0026274463   -6.9137113 -0.060813123    7985.4771    6764.3015    5752.7659    6078.6335   -366.46059    1057.5673    2811.0775 
   70500    258.88926   -164.52099   -130.82268   -164.52099            0    8063.7248    18.082549    22.500991    19.268386  0.063822161   -7.1385944  0.076374432    7839.8296    7929.0584    8362.0641    7900.0519   -294.78946   -49.727578   -2253.8952 
   71000    259.93161   -164.48639    -130.6524   -164.48639            0    6201.5368    18.158164    22.681873    19.298088  0.018466792   -7.2287413   0.16746679     7948.133     7647.323    2910.7235     8046.564    2022.9421   -2279.8328    2787.6759 
   71500    256.46289   -163.50263   -130.12015   -163.50263            0    8042.2854    18.015409      22.7702     19.29848   -0.1114077   -7.1216227   0.13856981    7916.5155    9634.7199    8128.6817    6363.4547    2759.1982   -179.94031   -333.63561 
   72000    270.01223   -162.00123    -126.8551   -162.00123            0    10150.396    17.982906    22.727454    19.354171  -0.20335363   -6.8891255 0.0011434556    7910.1599    9856.7867    10611.078    9983.3229     -1074.14    2262.7389    1547.5561 
   72500    262.26166   -163.75786   -129.62057   -163.75786            0   -646.10715    18.102935    22.713402    19.491697  -0.26831732   -6.6046125 -0.075087849     8014.581   -727.37728    1655.7334   -2866.6775    1322.4891    773.53943    514.26014 
   73000    264.84146   -165.16148    -130.6884   -165.16148            0    6366.0823    18.110927    22.345618    19.370727  -0.17085381   -6.3507617 -0.043129339    7839.3304    7459.2732    7039.3087     4599.665   -1933.1328    161.63143    1588.7984 
   73500    266.03203   -163.64348   -129.01543   -163.64348            0    6659.5854    18.197215    22.334117    19.532549  0.054826313   -6.3402002 -0.021976012    7938.3935    4405.6578    8675.9034    6897.1951    1142.5665    916.53877    186.55968 
   74000    263.10207   -164.29792   -130.05125   -164.29792            0    6318.2991    18.030604    22.358876    19.554109   0.13305915    -6.490476  0.048964428    7883.1224    8784.7498    4946.5305    5223.6171    1320.3196    1118.9107    894.64519 
   74500    260.24466   -163.95549   -130.08076   -163.95549            0    6383.5799    17.959184    22.649323    19.410859  0.089809175   -6.8342505  0.078638505    7895.6258    5304.2776    6097.2398    7749.2222   -229.45359   -901.36364   -431.64825 
   75000    261.29068   -162.43016   -128.41927   -162.43016            0    7224.0511    18.046609     22.91749    19.273779 0.0012625382   -7.1859392  0.020981685    7971.3072    5700.2476    6247.7879    9724.1179   -574.44454    869.71293    1111.4086 
   75500    254.23217   -163.75878   -130.66666   -163.75878            0    8783.7617    18.041932    22.814316    19.192566 -0.050447096   -7.3228957 -0.006667512    7899.9351    6355.5567    10427.163    9568.5658     2803.205    1031.6409    2086.6108 
   76000    257.20786   -162.96459   -129.48514   -162.96459            0    7027.5038    18.046318    22.768078    19.326271 -0.093774082   -7.2547353   0.01428383     7940.778    6261.8302    9071.4898    5749.1912    4069.5766     3083.855    1083.7502 
   76500    249.89874   -166.19024   -133.66218   -166.19024            0     5265.403    18.103501    22.608002    19.400049  0.032868216   -7.0071418   0.11474136    7940.1294    5958.3878    4937.3976    4900.4235   -890.08359     709.9668     1271.573 
   77000    254.04572   -165.71643   -132.64857   -165.71643            0    8909.0508    18.109891    22.366472    19.310948   0.17871033   -6.6982791   0.14148796    7821.9836    10134.085    7882.5016     8710.566   -2635.5582    450.46723      1168.99 
   77500    262.59401   -164.35328   -130.17274   -164.35328            0    5516.1889     18.26157    22.442419    19.409346  0.080315269   -6.5631416 0.0070382814     7954.606    4978.3646    4370.0575    7200.1447    114.53075   -3055.5298   -1515.5715 
   78000    266.77651   -161.46344   -126.73849   -161.46344            0    7732.1882    18.218209    22.444161    19.387528 -0.095338607   -6.5491557  -0.11468597    7927.4132    10800.135    4385.6556    8010.7738     545.7273    979.14067   -1829.8538 
   78500    254.33331   -164.45381   -131.34852   -164.45381            0    7971.5316    17.965046    22.582764    19.372083  -0.16681608   -6.6356029  -0.17369122    7859.2617    9557.3738    7846.9162    6510.3047    963.53885   -2014.3101   -271.72006 
   79000    255.20046   -164.36514   -131.14698   -164.36514            0    3825.1734    17.955023    22.942894    19.426031  -0.09865624   -7.0660879 -0.045504691    8002.3627    3259.7003     3071.454    5144.3659    1200.4255   -791.38353   -5500.3291 
   79500    273.76035   -164.11276   -128.47876   -164.11276            0    7094.7794    17.936768    22.920948     19.11028  0.010631561   -7.3359193   0.14986706    7856.7657    4925.5189    6079.3466    10279.473   -2176.1854    2442.5058   -1622.6068 
   80000    267.29157   -163.23841   -128.44641   -163.23841            0    5385.7512    18.111183    22.864626    19.137664  0.032855983   -7.4147682   0.15628991    7925.0105    2980.2196    5872.9258    7304.1082   -3356.9078    305.73423    239.35402 
   80500    255.85827   -162.56575   -129.26197   -162.56575            0    5294.3049    18.125384    22.678648    19.328016 -0.040071813   -7.2439347   0.07113834    7944.9587    1872.1345    5973.5816    8037.1987   -728.43453    2077.7481    -2636.209 
   81000     263.7528   -163.74474   -129.41336   -163.74474            0    6252.7035    18.032231     22.47043    19.418055  -0.06058722   -7.0209511 -0.024008658    7868.0403    10736.593    3312.1115    4709.4059    10.685744    1037.5212   -308.12122 
   81500     251.2491   -163.09028   -130.38645   -163.09028            0    5479.5327     18.10533    22.523301    19.521348  0.023706726    -6.824247 -0.038974503    7960.6455    4151.0712    4616.6226    7670.9043   -1073.9968   -152.35421   -665.17727 
   82000    261.74729   -164.39739   -130.32707   -164.39739            0    4981.3222    18.100872    22.490746    19.351855  0.065678019   -6.6076612 -0.0048121044     7878.181    3221.8126    5273.9238    6448.2302    2070.1476    1588.8761   -172.74595 
   82500    273.11087   -163.11266    -127.5632   -163.11266            0    6726.5031    18.144294    22.535346    19.337575  0.029415054   -6.5290143  0.071714957     7906.901    4776.8741    6598.5506    8804.0845   -1118.0938   -1952.8014    5711.0143 
   83000    256.32581   -162.11836   -128.75372   -162.11836            0    7282.8792    18.128372    22.583184    19.461299  -0.10234314   -6.6256544  0.097397321    7967.3854    9058.2586    5311.5064    7478.8726    747.53883     1528.027    1146.8811 
   83500    261.93217   -162.82148   -128.72709   -162.82148            0     9071.752    17.944186    22.520714    19.497786  -0.27719532   -6.8441422 -0.019193012    7879.3652    7505.4997    12923.296    6786.4598   -1652.4023    145.86024   -70.901123 
   84000    266.53403    -162.1499    -127.4565    -162.1499            0    3279.6623    18.047025    22.722963     19.41674  -0.31900503   -7.1930926 -0.044563797    7962.4535     1596.427    4688.3276    3554.2325   -196.08994    2423.8096    -2976.983 
   84500    273.58301    -164.4029   -128.79197    -164.4029            0    6000.2778    18.217132    22.792587    19.168716   -0.1019307   -7.4521809  0.030330829    7959.1493    6591.3934    3006.7957    8402.6442   -348.29721   -272.37329   -1223.7151 
   85000     256.9917   -163.60193   -130.15062   -163.60193            0    6241.2021    18.198731    22.621136    19.094799   0.14151533   -7.4325339  0.064960787    7860.8698    2592.4545    7367.8971    8763.2546   -706.84285    376.42526    886.23916 
   85500    261.94716   -162.56844    -128.4721   -162.56844            0    4577.3262    18.155888    22.618098    19.431945   0.17272177   -7.1912952 0.0010978589    7979.7602    3977.1893    4805.1224    4949.6669   -137.99402    1931.1103    2568.1653 
   86000    258.10992   -162.18287   -128.58601   -162.18287            0    9151.8453    18.000637    22.439759    19.521219  0.026154011   -6.8304635  -0.14706986    7885.2053    6766.6767    10492.366    10196.493   -1562.3943   -1614.3232    2019.1922 
   86500    251.55529   -163.18251   -130.43883   -163.18251            0    4768.0564    18.082127    22.562018    19.483786  -0.18429772   -6.6107384  -0.11750212    7948.7859    1149.4939    7456.2639    5698.4115    2770.8659    248.09576    779.85514 
   87000    247.40661   -163.23693   -131.03326   -163.23693            0    8629.3167    18.043732    22.663157    19.224343  -0.21198021   -6.4472932 0.0095659668    7861.3706    11315.205    6120.9031     8451.842    2065.8553   -210.34474   -3685.9722 
   87500    266.00852    -164.6198   -129.99481    -164.6198            0    3317.0644    18.107462    22.907653    19.195471  -0.15008753   -6.4363914   0.11432384    7962.2708    3825.4989    2358.7077    3766.9866   -874.92697   -1743.7514    231.86478 
   88000    263.45702   -162.86811   -128.57524   -162.86811            0    4509.9244    18.009358    22.815213    19.202438 -0.097269594    -6.545517    0.1368379    7890.0388    3704.2872    4995.6089    4829.8773    583.80105   -1016.8833   -1546.1858 
   88500    249.10052   -162.48361   -130.05945   -162.48361            0    8839.7135    17.915356    22.711548    19.427006 -0.041115477   -6.7658973  0.049845603    7904.5666    11768.972    8159.3648    6590.8033    1465.5479   -2085.4449   -3475.4462 
   89000    249.22899    -164.8223   -132.38142    -164.8223            0    5772.9002    17.987378    22.663788     19.50649   0.10456359   -7.1096126 -0.092505138    7952.0569    6089.8642    9025.6102    2203.2263     295.0799    3435.4766    1629.2046 
   89500    257.36034   -165.89756   -132.39826   -165.89756            0    6554.7526    18.102872    22.472344    19.286214   0.11855527   -7.3552524  -0.17487084    7845.9012     8205.318    4459.7653    6999.1746    414.07078    2504.9662   -2423.2453 
   90000    251.92156   -164.74523   -131.95387   -164.74523            0    9174.1324    18.295336    22.551164    19.270598   0.08508525   -7.4156938 -0.076426894    7950.6849    9187.1345    9156.3595    9178.9033   -2457.3625   -81.920623     1198.766 
   90500    270.43686   -164.91786   -129.71645   -164.91786            0    5845.1364     18.15471    22.496195    19.312174  -0.14074653    -7.191692   0.13087759    7887.3218    6393.1432    4494.1168    6648.1492   -2171.4227   -315.07871     549.0474 
   91000    253.67829   -163.01866   -129.99864   -163.01866            0    4942.5368    17.951152    22.710936    19.480172  -0.43905004   -6.7852682   0.21493157     7941.822    3750.3693    5194.1276    5883.1136    3223.9109    -1542.932   -1339.0009 
   91500    247.09286   -165.12522   -132.96239   -165.12522            0    5254.6452    17.841057    22.792704    19.472397  -0.42640318   -6.4882732   0.16124176    7918.3712    6551.0284    2967.5454    6245.3619    1752.4279    -202.9722   -101.18981 
   92000    258.46121   -163.99708   -130.35448   -163.99708            0    8803.4921    17.962169    22.733265    19.271605  -0.22724354   -6.4939636   0.10493875    7869.3429    4354.3458    11701.311     10354.82    1552.3433    93.630479   -3037.8722 
   92500    245.83772   -162.40657   -130.40711   -162.40657            0    4077.0378    18.120967    22.802542     19.27105  -0.03344393   -6.5334531  0.047940966     7962.877    6124.0611    2302.0548    3804.9975    1294.2615   -2907.1874    4377.2063 
   93000     255.8595   -163.09379   -129.78984   -163.09379            0    8047.8142    18.046813    22.572926    19.301374  0.026963638   -6.6371241 0.0043263825    7862.7887    9850.0423    9255.4307    5037.9697   -3198.9149    610.04519   -2681.7884 
   93500    255.59493   -164.10557   -130.83606   -164.10557            0     4165.627    18.097347    22.501403    19.547124 0.0048151306    -6.818629 0.0071057465    7959.8954    7391.2671    4435.9794    669.63452   -1171.0131   -339.88671   -2029.9078 
   94000    258.66534   -164.89968   -131.23051   -164.89968            0    3373.4861    18.084751    22.409777    19.471195  -0.05148986    -7.010499 0.0076856234    7891.1933   -688.77583    6300.0037    4509.2304   -1215.7046    1593.5201    1328.9643 
   94500    260.33806   -164.44443   -130.55753   -164.44443            0     5207.984    18.202366    22.515983    19.281695  -0.08566998   -7.2152237   0.02965586    7902.4901    6011.4838    3299.9489    6312.5193   -2681.4164    665.25062   -1289.2055 
   95000    244.80712   -164.44878   -132.58347   -164.44878            0    3458.4745    18.132675    22.783837    19.176992 -0.013246949   -7.2609165   0.12873085    7922.6276   -957.45129    4019.4177     7313.457    2007.4603     484.1817    2071.6579 
   95500    247.29476   -161.86194   -129.67282   -161.86194            0    5082.4196     17.91863    22.920786    19.231182  0.091040621   -7.0919595   0.24236792    7898.4214    6573.9367    2895.5298    5777.7925   -1051.1392    1232.1339   -2488.4007 
   96000    260.55945   -162.53558   -128.61987   -162.53558            0    4150.2716    17.891334    22.883815     19.36052  0.021711118   -6.8205844   0.22839707    7926.6221    4369.9031    5071.8714    3009.0403   -1285.7399   -872.75406    -2339.812 
   96500    263.95913   -163.25557   -128.89734   -163.25557            0     3208.483     18.02813    22.661649    19.331067  -0.24212567   -6.4876273  0.064384162    7897.6527     3774.522    3762.4994    2088.4275   -329.74332    -1851.332    920.60196 
   97000    261.42778   -163.80652   -129.77778   -163.80652            0    2616.1331    18.248994    22.544253    19.322807  -0.36308686   -6.3156615 -0.051629967     7949.595   -668.93889    5907.7822    2609.5561   -1393.1451    1070.8792    253.44395 
   97500    265.18671   -163.58821   -129.07019   -163.58821            0    8902.2449    18.246991    22.433701    19.338724  -0.19836575   -6.2432488  0.062016725    7916.2589    6412.5131    9067.6117     11226.61   -14.348478   -1407.4318   -2293.0007 
   98000    248.71137   -163.64047   -131.26697   -163.64047            0    6971.4049    18.047658    22.439146    19.462712   0.13916402   -6.3881608   0.19697925     7881.893    6251.7691    7691.0368    6971.4087    1329.7226   -1898.6229   -479.65233 
   98500    244.55661   -162.33979   -130.50709   -162.33979            0    6072.0242    17.979525     22.62798    19.564486   0.36129508   -6.7906824   0.20463726     7959.622     5879.451    6597.9032    5738.7182    596.09375   -976.67512   -2456.0166 
   99000    256.03443   -163.26175   -129.93504   -163.26175            0    5240.7107    17.934052    22.689734     19.34206   0.30158151   -7.0816514 -0.0019344059     7870.649    9482.9422    4028.9678    2210.2219   -1956.0214    1671.3705   -1525.6481 
   99500    268.23924   -162.90253   -127.98718   -162.90253            0    4333.7158    18.052321    22.797511    19.221268  0.051884056   -7.2044121  -0.18787822    7910.4742    3789.4775    2329.3207    6882.3491   -1994.7516   -621.10553    947.79729 
  100000     255.9496   -163.25798   -129.94231   -163.25798            0     7028.075    18.107881    22.779774    19.259944  -0.15122963   -7.1548235  -0.15676076    7944.6003    8474.9947    4313.7107    8295.5195   -921.98913    892.24304    5197.5967 
  100500     261.9761   -163.35678   -129.25667   -163.35678            0    4910.5987    18.086976    22.619452    19.354728   -0.2554723   -7.0186827  0.046317496    7918.3578    6512.8512    5350.6319    2868.3131    3527.7296   -712.05567    1058.0996 
  101000    257.44632   -163.93992   -130.42943   -163.93992            0    5895.0484    18.080557    22.520709    19.479922   -0.2065498   -6.8809921   0.20090097    7931.9703    7114.5702    7760.5915    2809.9836    1165.0058    963.42014     529.8508 
  101500    251.43824   -162.81773   -130.08928   -162.81773            0    4648.5398    18.130951    22.548905    19.416989 -0.083489136   -6.7099448   0.26805237    7938.3075    2360.4643    5127.0512    6458.1038    2238.0657   -1737.3512    -2387.555 
  102000    258.79396   -163.57553   -129.88962   -163.57553            0    8933.3265    18.120107    22.600491    19.231493 -0.050167229   -6.5264393   0.04751176    7875.7451    6097.3514    9194.9018    11507.726    322.70465    -2650.763    4163.8048 
  102500    252.29639   -163.10426   -130.26411   -163.10426            0    4263.1716    18.110501    22.811488    19.247079 -0.031238169   -6.4960078  -0.32576656    7951.4972    5025.5038    559.89888     7204.112    2828.7103   -1083.7668    4575.7595 
  103000    259.26389   -162.53537   -128.78829   -162.53537            0    8004.4715    18.000297    22.732607    19.298955  0.045903296   -6.4965211  -0.45252177    7897.0104    11034.543    7631.1017    5347.7696    1558.5225   -1661.2445    3371.9166 
  103500    251.89832   -163.56583   -130.77749   -163.56583            0    4637.3334    17.986564    22.613843    19.508901   0.11210613   -6.6289135  -0.16382097    7935.1547    3988.3143    4322.9647    5600.7211   -175.00546    608.65409    300.30848 
  104000    260.05317    -163.3337   -129.48389    -163.3337            0    7978.3105    18.044742    22.534478    19.486374  0.080497962   -6.9492736   0.28182444    7923.7219    8109.3641    7915.4686    7910.0988    561.37294    -126.9669   -1767.8419 
  104500    263.60382   -164.95097   -130.63899   -164.95097            0    7927.9038    18.190762    22.515993    19.358733 -0.089001644   -7.1684009   0.40336702    7929.0093    8366.3362    8027.0237    7390.3515   -2169.8243    1988.8667   -399.77425 
  105000    265.76961   -163.12581   -128.53192   -163.12581            0    8221.7864    18.227036    22.524996    19.204884  -0.24490519   -7.2646658   0.18099056    7884.8327    6239.8547    8619.6485     9805.856    199.55381   -326.86162    -369.0648 
  105500     257.4841   -162.03714   -128.52173   -162.03714            0    6235.7947    18.197687    22.671426    19.346561  -0.25665763   -7.1784238 -0.077175474    7981.7623    3244.5469    7062.0013    8400.8359    1184.1676    3248.8541     3777.178 
  106000    254.50398   -162.95674   -129.82924   -162.95674            0    7635.0157    18.054338    22.602699    19.378765   0.04785401   -6.9466995 -0.030038007    7908.0238    6285.5468    7626.7186    8992.7816    1482.5095    1770.3889    -2676.249 
  106500    269.76323   -164.81305   -129.69932   -164.81305            0    5421.1806    18.095926    22.638461    19.400877   0.28726616   -6.8176524  0.068553174     7947.839    3809.4112    7264.0651    5190.0655   -2283.8789   -123.74178   -1770.5319 
  107000    256.75286   -163.68869   -130.26846   -163.68869            0    5080.5186    18.082024    22.633152     19.33182    0.2314636   -6.7757782  0.063305433    7911.6091    4192.5914    6260.9654    4787.9991   -557.90403   -1956.1487    690.83483 
  107500    263.91116   -163.81963   -129.46765   -163.81963            0    5969.0434    18.080001    22.626811    19.374529 0.0046673648   -6.7602823 -0.011845964    7925.9798    5103.8284    7601.6775    5201.6242   -2620.2746   -55.890422    -1203.395 
  108000      262.751   -163.32532   -129.12434   -163.32532            0    5452.2974    18.077514    22.696209    19.389137  -0.28055122   -6.7228611 -0.052675389    7955.1889    2992.8396    8393.8761    4970.1767    774.14667     1821.052    2.3797275 
  108500    258.24437   -161.90747    -128.2931   -161.90747            0    6764.3187    18.047506    22.807203    19.309098  -0.44014497   -6.7017724  0.088722885    7947.8782    10452.481    3602.3058    6238.1695    -774.5228   -3260.1561   -2969.9891 
  109000    264.37856   -163.98048   -129.56766   -163.98048            0    4049.8539    18.019268    22.783551    19.196127   -0.2961659   -6.7831344   0.43731043    7880.8339    7086.7788    3042.8073    2019.9756   -1296.4424    361.31632   -5014.0044 
  109500    262.77073   -163.72431   -129.52076   -163.72431            0    2384.2284    18.082646    22.770381    19.286362 -0.052782361    -6.979178    0.5669133    7941.1352   -79.150574    4882.9434    2348.8925   -453.67061    147.56363   -3129.9686 
  110000    247.76546   -161.88654   -129.63615   -161.88654            0    2630.5156    18.099807    22.627395    19.386537  0.064213663    -7.179018   0.19443042    7939.7847    2246.1459    3715.9219     1929.479   -5340.5287    42.584742   -1542.5806 
  110500    254.93962   -164.20317   -131.01896   -164.20317            0    5621.6354      18.1505    22.389568     19.39128  0.053339774   -7.1965648   -0.2453606    7880.2643    5181.3771    7180.5952    4502.9339   -4926.0938    2453.4144    1175.7569 
  111000    252.48598   -162.86161   -129.99678   -162.86161            0    7602.1446    18.157049    22.466471    19.428438   0.14366448   -7.1165076  -0.28452667     7925.342    8958.0868    8436.3494    5411.9976    657.83289   -1800.8457    2155.9249 
  111500    271.17477   -165.41149   -130.11403   -165.41149            0    6411.6718    18.092188     22.62892    19.377281   0.22381696   -6.9061974  0.042368868    7933.1883    5155.7961    9160.7044    4918.5149    411.95954    1936.5602   -1298.6993 
  112000    259.92113   -163.26225   -129.42963   -163.26225            0    9973.2881    18.010382     22.73411    19.227237   0.10963675    -6.767456   0.27167778    7872.5922    9545.2905    10003.556    10371.018   -3219.5569   -630.79492   -1957.8514 
  112500    251.74913   -163.61502    -130.8461   -163.61502            0    3634.1969    18.025782    22.839207    19.321544 -0.001268585   -6.6895629    0.2038704    7954.5748    6358.3534    2172.7891    2371.4482   -1765.9622    1442.5179   -406.71164 
  113000    259.44479   -164.17552    -130.4049   -164.17552            0    4765.2889     17.96037    22.687159    19.319587  -0.16318139   -6.6328277 -0.018276297    7872.1479    2064.5312    3984.9396    8246.3958   -1431.6368    33.749814    -1263.353 
  113500    260.00748   -163.99448   -130.15062   -163.99448            0    4611.9404    18.127946    22.592455    19.438152  -0.23705154    -6.784788  -0.22041362    7960.9887    8385.8199    2297.2553    3152.7462   -1821.4693   -47.181512    2343.4352 
  114000    259.09154   -163.52737   -129.80273   -163.52737            0    3716.8633    18.218433    22.325243    19.395481 -0.091642344   -6.9701591   -0.1052346    7888.7427    480.38638    3823.7011    6846.5024    2869.2807    266.56388     127.5409 
  114500    267.74781   -163.34049    -128.4891   -163.34049            0    6686.8989    18.232287    22.247927    19.522244   0.16772028   -7.1207067   0.11873716    7918.8191     6521.403    10142.707    3396.5865   -3115.6658    2995.7619   -441.06916 
  115000    261.61657   -162.53783   -128.48451   -162.53783            0    4358.8727    18.199183    22.427492    19.554926   0.26658922   -7.1150277   0.19118267    7981.5784    2286.9081    7413.9725    3375.7377    164.32931    482.98022   -1233.4929 
  115500    266.43958   -163.19577   -128.51467   -163.19577            0    9165.5232    18.031181    22.550625    19.329701   0.13770642   -6.9728501  0.031223956     7859.735     8214.296    8786.9855    10495.288    1373.9992    791.66687   -237.14085 
  116000     255.3608   -163.95129   -130.71226   -163.95129            0    9445.1201    18.101817    22.823391    19.345504 -0.086061297   -6.9156579 -0.078989888    7992.4954    8805.2202    9050.7069    10479.433   -1290.6775    649.83129    212.72923 
  116500    265.93413   -162.93504   -128.31973   -162.93504            0    5203.8901    17.998387    22.730276    19.260784  -0.16426764   -6.7896406 -0.052728961    7879.7466    4203.2058    5403.7732    6004.6915   -246.55466    2031.1489    2550.0012 
  117000    242.42723   -162.92355   -131.36802   -162.92355            0    4430.2822    18.042839    22.676955    19.384284  -0.10495722   -6.6879545  0.092298855    7931.2087    2968.9894    4171.6069    6150.2503    593.35244   -1337.0324    328.94714 
  117500    248.91928    -163.4762   -131.07563    -163.4762            0    4922.6022    18.136393    22.529832    19.428118  0.010292621   -6.6067279   0.21092845    7938.5209    4939.9992    7692.7493    2135.0581   -3613.2078    962.41066    2007.5841 
  118000    257.42155   -164.74367    -131.2364   -164.74367            0    8213.6873    18.151866    22.341633    19.334537 0.0093222247   -6.6144641   0.10151976    7840.9729    7026.6363    6445.2643    11169.161    790.26049   -1077.0986   -2421.6989 
  118500    253.03472   -162.73034   -129.79408   -162.73034            0    5413.6584    18.212886    22.602587    19.489905 -0.015618471   -6.7413989  -0.21052392    8023.1818    4827.9142    8894.4886    2518.5725   -181.92156    1351.4766    298.50436 
  119000    253.53211   -162.89652   -129.89552   -162.89652            0    9563.0983    17.937023    22.567542    19.335518  0.019423601   -6.8161612   -0.3892771    7826.9116    6650.1585    9135.3156    12903.821   -291.49997    486.59953    4327.5927 
  119500    261.53087    -163.4374   -129.39525    -163.4374            0    5059.3965    18.050701    22.765045    19.388508   0.10860958   -7.0552968  -0.21265566    7967.2231    3020.3898    5449.4467     6708.353   -67.231656   -861.09343    -1695.569 
  120000    261.77227    -163.7275   -129.65392    -163.7275            0    6661.7157    18.103895    22.827448    19.274267   0.16781638   -7.1745309   0.10549523    7965.3935    5706.6574    5995.3244    8283.1653    905.72056   -219.24342    66.521105 
  120500    254.39628   -162.53945   -129.42597   -162.53945            0    9350.4586    18.098994    22.571916     19.21242 -0.0056077053   -7.1292624   0.23246297      7848.83    8541.1243    11247.485    8262.7662   -2710.6562    307.77228    2106.5435 
  121000    259.04069    -164.3888   -130.67078    -164.3888            0    3573.7742     18.22767    22.597445    19.464185  -0.19815338   -7.0224556   0.13273382    8017.2739    2358.4416    2697.5543    5665.3266    3222.7025   -2281.1527   -3825.6642 
  121500    263.32069   -163.54239   -129.26727   -163.54239            0    7444.4912    18.033504    22.415088    19.480265  -0.22229465   -6.8766522  0.032966308    7874.3629    8820.9516    7453.2402    6059.2818   -1939.3441    184.61742   -2683.4257 
  122000    264.53458   -162.80676   -128.37362   -162.80676            0    6387.8935    18.097913    22.597332    19.434467  -0.12070076   -6.8386086  0.035292466    7948.0078    9207.2588    2134.4313    7821.9902   -165.72128   -2275.6692   -4105.0697 
  122500    273.62097   -162.42924   -126.81338   -162.42924            0    7534.9472    18.130307    22.648031    19.261604  0.048760119   -6.8122696  0.095176103     7909.118    6972.7529    6376.4893    9255.5994   -1135.0403   -382.31971    2506.7972 
  123000    266.42714   -164.11817   -129.43869   -164.11817            0    7202.2619    18.108267    22.712466    19.276445    0.2156195   -6.8573607   0.11223293    7928.0818    10969.395    5648.4398    4988.9509    383.55747    1167.2975   -1297.2178 
  123500    260.61465   -163.54571   -129.62281   -163.54571            0    3592.2456    18.059245    22.780521    19.348904   0.20460969   -6.8824708  0.001367376    7960.1202    3379.9228    5393.5975    2003.2165   -1937.0069    1027.5532    475.88943 
  124000    258.82797   -163.14008   -129.44975   -163.14008            0    7053.1964    17.983995    22.518498    19.406024 -0.029840649   -6.8925669  -0.14988884    7858.9072    9826.5412    5910.6554    5422.3927   -2794.8856    2400.4778    -555.7414 
  124500    261.80015   -162.75255   -128.67534   -162.75255            0    4146.1204    18.202308    22.491438     19.46817  -0.25687738   -6.9901223  -0.12007203    7970.1922     3947.345    6594.9322    1896.0839    1071.7508    -1916.748    1392.8396 
  125000    260.48046   -161.43325   -127.52781   -161.43325            0    5870.4046    18.368056    22.390049    19.296409  -0.38052459   -7.0695909   0.15031598    7935.8737    5489.8073    5878.9772    6242.4291    1451.5244    1485.7679   -792.29242 
  125500    265.95737    -162.8647   -128.24637    -162.8647            0    8716.1891    18.308125    22.402314    19.284567  -0.32153827    -7.011002   0.42732197    7909.4563    7465.1304    9871.2268      8812.21   -878.46763   -995.62166   -84.511305 
  126000    257.80408    -162.7944   -129.23734    -162.7944            0    2286.4006    18.077616     22.56022    19.531427  -0.10648165   -6.8936251   0.36934058    7965.5992    3100.4824    1731.0696    2027.6499     1536.396    1525.9333    30.333627 
  126500    257.60019     -165.157   -131.62648     -165.157            0     3524.965    17.911434    22.630362    19.529288  0.094875408   -6.8239538  -0.02028742    7916.0449    3444.3621    4468.8961    2661.6367    697.29065     51.53282     1299.392 
  127000    254.29986   -162.50414   -129.40321   -162.50414            0    5172.9847    17.961252    22.816968    19.292551   0.20305689   -6.7707674  -0.31400219    7906.4985     4198.291    4014.2918    7306.3714   -278.71218    1189.8078    1218.0041 
  127500    261.84816   -163.59655   -129.51309   -163.59655            0    4950.1549    18.159259    22.831497    19.245053   0.20426818   -6.8298441  -0.35740429    7979.0582    2793.1463    4496.8619    7560.4565      958.817   -139.44017   -395.94963 
  128000    260.15399   -163.61954   -129.75661   -163.61954            0    4546.6208    18.108842    22.677564    19.223206  0.071331908   -6.7904607  -0.17517251    7894.2871    3019.6492    4480.6169    6139.5963    1103.5965   -491.87767    826.38674 
  128500     266.9767   -164.44025   -129.68923   -164.44025            0    7363.6113    18.073731    22.652288     19.43886  -0.15758987   -6.7845222   0.15869094    7958.4903    7101.3185    9178.5445     5810.971   -776.52387   -1133.3766   -1356.1912 
  129000    271.99206   -163.57872   -128.17488   -163.57872            0    5467.5712     18.07293    22.526938    19.422784  -0.29045433   -6.8513659   0.33327312    7907.5548    6035.7037     4997.112     5369.898    1147.2963    1799.9193   -2456.7419 
  129500    261.38586   -162.74389   -128.72061   -162.74389            0    6365.7617    18.210242    22.491045    19.323839  -0.39544365   -6.9913169   0.25203282    7914.4141    4632.8552    7866.3353    6598.0946    343.76066    1091.1958   -12.445866 
  130000    252.67966   -163.95553   -131.06549   -163.95553            0    6103.3901    18.230661    22.631644    19.300374  -0.29648303   -7.0671516 0.00048068916    7963.1378    7487.5799     4927.659    5894.9315   -121.60458    1106.5866   -1121.2846 
  130500    265.58439   -163.64188   -129.07209   -163.64188            0    7764.4185    18.054448    22.591172    19.342457 -0.041169788   -6.9747384  -0.26647619    7889.2301     4994.809    8670.7469    9627.6997    4014.4152     2477.266     2345.288 
  131000    260.60216   -165.24937    -131.3281   -165.24937            0    5268.0071    17.908166    22.699427     19.43497   0.31538274   -6.8675989  -0.30530829    7900.4143    4606.5742    6490.8853    4706.5619   -3714.8899    884.82099    1479.8272 
  131500    247.24787   -163.68535   -131.50234   -163.68535            0    5545.0131    17.998848     22.80123    19.411739     0.489002   -6.7756489  -0.15415619    7966.4975    7954.0202    2415.0237    6265.9955   -2556.6529   -1674.5249   -1783.4236 
  132000    260.73159   -163.41739   -129.47927   -163.41739            0    8502.4506    18.099433    22.532837    19.221757   0.25367793   -6.7135043  0.093608898    7839.2397    3508.0686    7593.4572    14405.826    1305.6497   -1479.4935    1773.9265 
  132500    262.91932   -162.47423   -128.25134   -162.47423            0     6923.059    18.244668    22.513481    19.319466  -0.13881835   -6.7365185   0.28146406    7935.4898    5530.8578    7719.0998    7519.2193   -1839.0512   -14.019418   -2939.4736 
  133000    272.09918   -163.05203   -127.63425   -163.05203            0    3925.0872    18.155026    22.509288    19.436137  -0.44706337   -6.7627443   0.22957481    7942.7078    4654.9099    3811.4633    3308.8886   -206.39022    1154.0016   -1055.7141 
  133500    263.53263   -162.25181   -127.94909   -162.25181            0    5141.4853     18.03211    22.500215    19.424905  -0.46943743   -6.8414079  0.074061086    7881.1959    965.23219    6848.3282    7610.8955    683.55447    237.21925   -2061.4096 
  134000    250.95936   -164.73076   -132.06465   -164.73076            0    8455.6952    18.055418    22.681006    19.362584  -0.14499904   -6.9903699 -0.029573809     7929.269    11782.805     9067.172    4517.1083    592.65435   -727.06845    1554.9921 
  134500    247.85265    -162.5428   -130.28107    -162.5428            0    6681.0233    18.092233    22.716125     19.16107   0.24618032   -7.0992084  -0.03004521    7874.9205    4211.8774    8499.1524    7332.0402   -2283.8576    1583.7816    519.51422 
  135000    248.99489   -164.50104   -132.09063   -164.50104            0    3904.4593    18.167777    22.806997    19.245471   0.37175227    -7.086308 -0.057913401    7974.4074    2664.5249    5511.8917    3536.9614   -3644.0582   -1792.8017   -5704.3973 
  135500    265.78034   -164.21226   -129.61697   -164.21226            0    11777.674     18.03351    22.636415    19.290272   0.23321153   -6.9353272  -0.11350512    7874.5593    9680.3488    10655.794     14996.88     1195.484    1514.5906   -219.96553 
  136000    258.94282   -162.86738   -129.16209   -162.86738            0    4057.8309    17.973856    22.639406    19.508397 -0.065292911   -6.7283158  -0.10340648    7938.3068    4263.8896    4136.0217    3773.5812    -882.5909   -1267.1783   -1609.0919 
  136500    263.26962   -163.28745   -129.01897   -163.28745            0    3562.0687    17.948752    22.627427     19.50669  -0.28292473   -6.5440887  0.029548545    7922.3316    4515.8045    3480.6804    2689.7211    426.06713   -1915.2918    4127.9717 
  137000    256.49621    -162.5934   -129.20658    -162.5934            0    7283.9705    18.145202    22.586656    19.362631  -0.29668076   -6.4935548   0.25524536      7935.57    7142.8907    7002.5021    7706.5187    927.41003    392.62909   -297.30047 
  137500    264.99117   -162.31814   -127.82558   -162.31814            0    3993.1449    18.250778    22.607162    19.196267   -0.1642215   -6.5802038   0.31307174    7920.3472    6145.9651    887.15603    4946.3135   -440.44414   -3515.6618    1203.1382 
  138000    265.90598   -164.17675   -129.56511   -164.17675            0    6265.8868    18.151928    22.658775    19.369013 -0.010200716   -6.7186428  0.082562013     7966.484    3597.2113    6027.2205    9173.2286   -1240.8168    244.45416    465.35809 
  138500    262.69353   -163.90193   -129.70844   -163.90193            0    6088.3518    17.890478    22.656636    19.445661   0.17116681   -6.8363657  -0.17643274    7882.0663    10742.187    6894.7035    628.16497   -357.67489    699.83508    5244.3061 
  139000    253.73223   -164.92217   -131.89512   -164.92217            0    8147.0855    17.968744    22.709591    19.405258   0.25679542   -7.0469062  -0.20140081    7918.5647    8061.3795    7671.3398    8708.5373   -1260.2798   -967.53854   -2594.4658 
  139500     254.8566    -164.0842   -130.91079    -164.0842            0    7621.5429    18.101662    22.740494    19.281423   0.12298808   -7.1530388  -0.12189922    7937.0192    10960.882    3443.6525    8460.0944     1965.053   -2124.1645    1000.1533 
  140000    266.88205   -163.90448   -129.16579   -163.90448            0    6842.8901    18.190789    22.540208    19.223876  -0.10048369   -7.1467832  0.045191161    7882.2541    6049.2481    8745.5128    5733.9092    1859.4688    2097.3864    2130.4064 
  140500    258.46353   -161.38917   -127.74628   -161.38917            0    7412.9607    18.233079    22.485678    19.429964  -0.28528576   -7.0727591   0.19875415    7965.9576    3103.4944    7587.5503    11547.837    2335.0824   -6.2138822   -333.25978 
  141000    260.73665   -163.72692   -129.78814   -163.72692            0    7112.3899    18.080973    22.477284    19.485764  -0.29484063   -6.8352598   0.23996747    7919.2319    7844.4826    6946.5333    6546.1539    2323.7356    1517.1346   -316.99364 
  141500    258.19195   -163.88144    -130.2739   -163.88144            0    8570.2124    17.956968    22.540558    19.435029 -0.091643576   -6.6269783   0.10795582     7866.524    9921.7475    9215.4999    6573.3898    1426.4594   -1302.9982   -1840.9835 
  142000    244.36108   -162.50594   -130.69869   -162.50594            0     4551.789    18.102496    22.870954    19.355037   0.23821241   -6.5004776  -0.17665001    8013.3989     2147.265     5791.518     5716.584    643.66354    890.36529    1239.8803 
  142500     256.0544    -161.3978   -128.06849    -161.3978            0    6087.7602     18.02571     22.77604    19.144463   0.39407709   -6.4180388  -0.34565638    7859.8415    7813.3621    4697.3152    5752.6033   -611.21089   -122.74835    2085.7781 
  143000    256.71337   -162.05526   -128.64017   -162.05526            0    5726.0668     18.03043    22.835047     19.35105   0.37447118   -6.4919195  -0.28776665    7967.3253    8217.0829    4726.1207    4234.9967   -1253.7152    511.74997    313.82736 
  143500    265.34257   -163.72374   -129.18544   -163.72374            0    6198.0995    17.991806    22.703496    19.513136   0.14653559   -6.6419647 -0.038705338     7970.665    5617.2528    6261.8563    6715.1893     1478.122   -952.01723   -1148.9309 
  144000    257.32474    -162.7036   -129.20893    -162.7036            0    6993.5941    18.017812    22.476188    19.376558  -0.11714363   -6.8739886   0.15855099     7846.958    5420.9072    9275.8087    6284.0665    -1001.121   -2058.0361   -848.17826 
  144500      259.489   -163.22863   -129.45226   -163.22863            0    1859.7408    18.212008    22.631444    19.380791  -0.26536803   -7.0695515   0.17731678    7988.0655    1171.6415     414.9791    3992.6017    1553.9095   -612.10167   -2947.8868 
  145000     278.2445   -164.10485   -127.88717   -164.10485            0    6873.0314    18.228477    22.513783    19.242375  -0.27222819   -7.0863485  0.093833832    7896.9164    6118.6543    7875.5535    6624.8863   -776.01774    53.146944   -1019.2687 
  145500    264.61973   -162.98195   -128.53774   -162.98195            0    6812.8659    18.147845    22.590948    19.316445  -0.14271173   -7.0101738  0.025597411    7919.2986    6394.7263    5220.5173    8823.3542    1001.4938    665.50378    -2641.876 
  146000    256.20108   -163.82051    -130.4721   -163.82051            0     3656.756    18.076639    22.623442    19.492463  0.055977398   -6.9295499 -0.013571274    7971.5554    3102.3061    6525.9822    1341.9796   -846.27806    1634.7228   -641.70412 
  146500    246.79988   -162.50013   -130.37543   -162.50013            0    8724.9162    17.953644    22.573966    19.266706   0.20677365    -6.826537  0.016958949     7808.506    9633.4559    6480.3396    10060.953   -194.25751   -89.321888   -648.24726 
[...]
  365000    257.32972   -163.15665   -129.66133   -163.15665            0    7094.0065    18.014584    22.783691    19.412553  0.071037106   -7.0460814   0.15853981    7967.6629    9705.7654     6776.312     4799.942    1118.1583     1405.525    258.69375 
  365500    264.31478   -164.39865   -129.99412   -164.39865            0    8802.8514    18.106364    22.478587    19.367396    0.1356212   -7.3325985   0.14284104    7882.6365    6796.6495    8612.4162    10999.488   -636.70313    3262.4466    -304.2344 
  366000    264.26188   -163.00775   -128.61012   -163.00775            0    6354.3256    18.272107    22.413773    19.433659  0.019350113   -7.4635074 -0.018905039    7958.9943    5971.4183    7475.1178    5616.4408    379.90054    461.09946    952.60849 
  366500    263.42009   -163.83684   -129.54878   -163.83684            0    7282.4654    18.237801    22.467789    19.400459 -0.086866964    -7.317002  -0.18097544     7949.591    6375.3891    7033.6804    8438.3268    99.042959     1301.991    1047.3966 
  367000    261.94645   -164.03033   -129.93408   -164.03033            0    6416.4389    18.126339    22.549437    19.296875   -0.1026187   -6.9669973   -0.1698447    7887.3803    5279.8468    3443.3908    10526.079    2265.5475    -1592.164    1742.6477 
  367500    267.78766   -164.26323   -129.40666   -164.26323            0    3100.3068    18.041514    22.762771    19.393055  0.044711298   -6.5824831  0.062601566    7964.2401    3359.2673    4257.6157    1684.0374   -556.13467    -46.01455   -1359.3001 
  368000    257.06583    -161.8491   -128.38813    -161.8491            0    6869.6849    17.886343    22.837631    19.378676   0.18910054   -6.2739738    0.2563894    7915.8345    8979.0106     4929.447     6700.597   -898.59837    -1820.838   -720.60409 
  368500    261.01532   -163.48557   -129.51052   -163.48557            0     6362.863    17.945207    22.777522    19.305501  0.072772389   -6.3078878   0.18008716    7891.0725    4209.9506    8175.5922    6703.0461    1235.7334    169.84586    -4086.902 
  369000    257.74134   -162.86346   -129.31457   -162.86346            0    5843.0436    18.084831    22.785071    19.300133  -0.11107444   -6.5613585 -0.054671117    7952.8933    5043.8276    7451.0798    5034.2232    1270.3733    2023.7231    570.23579 
  369500    267.83307   -163.92624   -129.06376   -163.92624            0    6965.4846    18.073385    22.751875    19.311104  -0.18263464   -6.8353372  -0.18177296     7940.792    7958.3697    5120.3736    7817.7105     2167.867   -1295.7177     1202.179 
  370000    269.70479     -162.618   -127.51188     -162.618            0    5989.2701    18.045875    22.742556    19.376374 -0.041688731   -7.1428721 -0.085920382    7952.2443    4657.6086    7070.5138    6239.6878    1118.7704    320.29837    332.09829 
  370500    259.87905   -163.40924    -129.5821   -163.40924            0    7468.5465    18.017568    22.657819    19.340289   0.15336637   -7.3617164   0.11186738    7895.4564    5802.4422    9465.7758    7137.4215    -1858.433    1919.9344   -1991.9911 
  371000     261.7625    -164.4404    -130.3681    -164.4404            0    3818.3143    18.202613    22.618676    19.342616   0.19147569   -7.3693524   0.18622741    7963.7229    2205.5333    4264.6817    4984.7278   -371.99061    832.52519   -2673.9898 
  371500    257.73662   -164.28217   -130.73389   -164.28217            0    7496.9999    18.171374     22.56405    19.239801 -0.063685563   -7.1469091  0.047039631    7888.6993    8237.4777    9389.8868    4863.6352   -617.54518     2459.782    2469.5114 
  372000    262.59844   -164.60964   -130.42852   -164.60964            0    4188.4387    18.164154    22.661931    19.339129  -0.33788216    -6.807976  -0.12947759    7960.6583    4702.7374    4449.9892    3412.5897    2730.7039   -491.92264    2849.8627 
  372500    263.84001   -164.78575   -130.44302   -164.78575            0    6360.0716    17.978763     22.69614    19.409169  -0.28777094   -6.4809972 -0.020434822     7919.883    4915.3963    5934.1706    8230.6478   -2033.9923   -1905.3612    1832.8849 
  373000     245.6842   -164.91695   -132.93748   -164.91695            0    5262.9359     17.94592     22.76347    19.395744 -0.0099799916   -6.4096504    0.1720982    7923.3828    6204.2139    3401.2013    6183.3926   -764.33247    194.48755   -3028.6499 
  373500     253.8745   -164.25331   -131.20774   -164.25331            0    5322.8346     17.99033    22.706184    19.329078   0.20892388   -6.5911192   0.17357812    7895.7687    7169.6474    3636.4429    5162.4134   -598.98263    631.25929    1222.2681 
  374000    266.56687   -163.27443   -128.57676   -163.27443            0    5442.8464    18.142192    22.685435     19.35245   0.23670398   -6.9279493 -0.0065373844    7964.7622    6849.3007    6523.3423    2955.8962   -1400.8198   -30.909367   -1650.3604 
  374500    273.98343   -163.17276   -127.50972   -163.17276            0    6891.7993    18.198031    22.579267      19.2833  0.076466744   -7.2602857  -0.16549946    7923.4731    4102.6079    5415.7698     11157.02    1776.8899    222.77903    441.10569 
  375000    263.48833    -161.4883   -127.19135    -161.4883            0    6587.5897    18.196979    22.629708    19.402736   -0.1190368   -7.3702174  -0.16576448    7989.8978    8199.6328    7965.8168    3597.3196    -1897.412   -1484.6162     85.05225 
  375500    257.61044   -162.92575   -129.39389   -162.92575            0    6229.7864    18.073772    22.610518    19.346751  -0.23363154   -7.2191599  0.039007557     7906.192    5953.6065    8696.1178    4039.6349    1014.1612    1961.6693   -768.87878 
  376000    252.69375   -162.38271   -129.49083   -162.38271            0    6911.7128    18.027288    22.777466    19.259778  -0.25510657   -6.9015118   0.35105906    7908.3718    3621.0556     7017.659    10096.424    1916.2109   -530.76871   -1707.7015 
  376500    267.50177   -162.56618   -127.74682   -162.56618            0    4358.6157    18.064374    22.922067    19.309608  -0.20860047   -6.6783497   0.47584943    7995.5834    1616.8374    6706.4283    4752.5815    299.96045   -2408.6439   -1768.5269 
  377000    251.64488    -163.9815   -131.22615    -163.9815            0    5826.0391    17.989327    22.755056     19.24391  -0.15752879   -6.4949217   0.26601486    7877.4589    8023.1081     4089.167    5365.8423   -618.83219   -694.90782   -1414.1974 
  377500    254.49423   -163.87541   -130.74918   -163.87541            0    5489.8775    18.068029    22.631976    19.395689 -0.068785129   -6.5447049  -0.13329709    7931.1919    4338.3167    7118.3164    5012.9995    1128.9542    239.65893    681.49005 
  378000    262.29375   -163.52938   -129.38793   -163.52938            0    4692.2037    18.098309    22.547713    19.469256  0.023765149   -6.7280549  -0.29871645    7944.9256    3530.4305      4334.19    6211.9907    231.01116    252.50776    1344.7877 
  378500    253.56743    -164.4374    -131.4318    -164.4374            0    5976.2931    18.141527    22.427221    19.434083   0.15997698   -6.9349092  -0.15344564     7907.029    6846.1213    5789.5933    5293.1646    241.30506    446.89516    3281.2266 
  379000    252.32164   -162.50854    -129.6651   -162.50854            0    5557.0199    18.154878    22.548417     19.39091   0.17669852   -7.0638905  0.091877618    7937.9357    4903.9423     3082.408    8684.7092    -2540.188    974.21188   -3604.9373 
  379500    254.92916   -162.89677   -129.71393   -162.89677            0    8499.4456     18.13658    22.705358    19.322804   0.13006223   -7.1162658   0.23622829    7957.0831    8850.0528    8163.8467    8484.4373    288.05654   -1912.5855    -1668.419 
  380000    265.27122   -164.92071   -130.39169   -164.92071            0    10009.357    18.002786    22.785388    19.244992  -0.13803972    -7.024733   0.12820752    7894.3048    9123.9155      9292.99    11611.165    2068.2669    1864.3089   -3085.8142 
  380500    253.13724    -164.2427    -131.2931    -164.2427            0    6124.4683    17.944517    22.898678    19.234198  -0.37028986   -6.8506156 -0.097146286    7903.4415    4630.1749    7218.1921     6525.038    2034.7461    3216.4259     1821.582 
  381000    255.35263   -163.28698   -130.04901   -163.28698            0    7389.0537    18.067323    22.878943    19.336031  -0.30290299    -6.635957  -0.11406167    7992.7661    7400.4633    5637.1148    9129.5831    -665.8666   -518.29631    1106.8912 
  381500    270.19034   -161.19569   -126.02637   -161.19569            0    4309.0879    18.070861    22.663025    19.286492  0.057467596   -6.3925954 0.0062595082    7898.5968    3434.6152    6028.4779    3464.1708    658.17138    988.85572   -1159.0058 
  382000    259.57583   -162.90718    -129.1195   -162.90718            0    7153.3351    18.151449    22.601636    19.544225   0.37932294   -6.3199352   0.15459684    8018.0662    7816.3174     5712.547    7931.1408   -645.99993   -1823.8165   -3504.1976 
  382500    268.79675   -161.13982    -126.1519   -161.13982            0    9035.7975    18.061565    22.392419    19.555101   0.41642843    -6.395363   0.11567285    7908.9068    9701.1053    10309.625    7096.6623    346.72683   -1013.9015    889.54409 
  383000    255.62751   -161.41251   -128.13876   -161.41251            0    3934.2841    18.072178    22.472452    19.521606  0.098417117   -6.6714987  -0.07888756    7928.2347    6727.6481     3579.336    1495.8683   -329.72151    176.69503    1848.3145 
  383500    268.83765   -161.55161   -126.55837   -161.55161            0    7281.8136    18.166524    22.630966    19.419633   -0.2856167   -7.0494987  -0.12439193    7983.9159     8947.304    6623.4628    6274.6741    505.80158    1423.9956   -170.89125 
  384000    259.43022    -163.2408   -129.47207    -163.2408            0    9357.1226    18.157384     22.66195    19.267289   -0.2550248   -7.2197222  0.023513846    7928.1373    10958.371    8772.3073      8340.69    948.54697    -1331.061    666.49164 
  384500     255.5975   -163.45344    -130.1836   -163.45344            0    6231.9482    18.132618    22.641871    19.269736  -0.08625154   -7.1800309   0.22284412    7911.3136    4967.6149    6930.7735    6797.4563    987.11563   -1019.2736    1798.9809 
  385000    249.90013   -163.65527   -131.12703   -163.65527            0    9419.5276     18.09881    22.573164    19.314778  0.082439085   -7.0364688   0.28826269    7891.0028    10332.725    8966.1341    8959.7233    1104.0086    1885.4237   -2331.8586 
  385500    253.77678    -164.5341   -131.50126    -164.5341            0     6364.191    18.041778    22.602254    19.468802   0.13217446   -6.8355245   0.11401769    7939.0824    7725.7285    3618.8853    7747.9593    1218.1315   -1294.4946   -770.82586 
  386000    258.75587   -163.16438   -129.48344   -163.16438            0    7963.5777    17.947746    22.606732    19.496445  -0.01788994   -6.6809442  -0.11989638     7910.485    9421.3598    6786.0817    7683.2915   -859.12229   -1930.7153   -431.16855 
  386500    266.90432   -163.06527   -128.32368   -163.06527            0    9006.2257    18.088852    22.733846    19.391193  -0.14133825   -6.6578268  -0.21419893    7974.2241    10504.308     9370.733    7143.6365    791.96799    1665.5427     300.8113 
  387000    260.62625   -163.53903   -129.61462   -163.53903            0    7398.3082    18.164183    22.804865    19.194957  -0.12411677   -6.6463243 -0.048629643    7951.1604    8322.1147    5152.9926    8719.8172   -1653.0672    1613.9575   -941.09247 
  387500    259.34371   -163.31354   -129.55608   -163.31354            0    8337.9257    18.041009    22.711014    19.181216  0.019740623   -6.7141438   0.23799636    7859.1121    7387.8038    9758.5225    7867.4507    1806.0572    886.05112   -146.33445 
  388000    254.08053   -165.50673   -132.43435   -165.50673            0    4266.3269    18.043118    22.760771    19.497952  0.035148616   -6.8762221   0.34270868    8007.3266    818.81548    6876.5376    5103.6276    913.11417    1863.3802    1281.1826 
  388500    264.26984   -165.77848    -131.3798   -165.77848            0    4953.4925     17.91593    22.510017    19.515754  -0.16338713   -7.0065176   0.10575352    7870.4674       6874.5    2428.0856     5557.892    3513.6395   -1252.5825   -337.72635 
  389000    256.46287   -164.90468    -131.5222   -164.90468            0    4792.6045    18.095738    22.447418    19.430451   -0.2075064   -7.1502345  -0.14202982    7892.6998    1790.7072    7357.7512    5229.3551    1010.9574    2719.2263    1567.1363 
  389500    261.38699   -165.55384   -131.53041   -165.55384            0    3752.4922    18.344509    22.539925    19.275399 -0.023908342   -7.2334737  -0.18241849    7970.0663     610.5497    4264.6523    6382.2744    940.44755    2482.6359    1484.6475 
  390000    255.74056   -164.77376    -131.4853   -164.77376            0    2939.5423    18.186379    22.525378    19.161629   0.24110826   -7.0633843 0.0032066139    7849.6584     4999.828    1288.0916    2530.7073   -689.49118   -2578.9788   -1759.5282 
  390500    260.58309   -163.57505   -129.65626   -163.57505            0    3439.1155    18.060739    22.664901    19.384763   0.26697234   -6.8581848   0.11412275    7935.0531    5750.5843     1284.529    3282.2332   -1247.6041    290.33668    1629.4229 
  391000    265.86284   -162.64681   -128.04078   -162.64681            0    7652.1644    17.912131    22.710409    19.532174 -0.0096410909   -6.6684334  0.045916256    7945.5287    13157.561    5382.0982    4416.8342   -2149.9573   -2727.5152   -1919.0341 
  391500    274.93926   -162.04929   -126.26183   -162.04929            0    6370.0702    18.026186    22.535569    19.394052  -0.29131786   -6.6559531 -0.075901706    7878.4527    5930.8357     5396.719    7782.6558   -1701.7234    2337.5522   -1432.7735 
  392000    249.85594    -165.0906   -132.56812    -165.0906            0    7609.2146    18.294445    22.539463     19.34579   -0.3341771   -6.7169144 -0.082654838    7977.1777    4500.9294    9455.8583    8870.8559   -3007.3166   -1646.1408    1935.7267 
  392500    250.62268   -163.81842   -131.19613   -163.81842            0    5470.7158    18.306152     22.36841    19.200767  -0.16252873   -6.7717402  0.022247265    7862.3207    3862.4392    6292.8133     6256.895   -2175.0611     2505.693   -1425.7245 
  393000    254.85783   -162.26152   -129.08796   -162.26152            0    4572.5147    18.099102    22.559648    19.403386  0.080548517    -6.832927   0.11727163    7922.5841    7262.4817    3145.6816    3309.3808   -862.28792    -1861.605    552.03991 
  393500    271.06787   -161.69855   -126.41501   -161.69855            0    3892.8767    17.943848    22.717597    19.571619   0.22278432    -6.934228  0.092091032    7978.1964    3442.7187    6455.0716    1780.8399    1681.9642    1525.0106    86.555791 
  394000     262.3284   -164.58177   -130.43581   -164.58177            0    9205.8363     17.83647    22.758009    19.398382   0.21078242   -6.9431618  -0.03135839    7874.2405     8756.215    7826.1182    11035.176       67.792   -171.52041    2657.4132 
  394500    244.96315   -162.98117   -131.09555   -162.98117            0    5991.4786    18.054635    22.907753    19.245419  0.011756973   -7.0110487  -0.14454437    7959.7344    8496.4572    5061.4052    4416.5733   -565.32103    893.59776   -565.94239 
  395000     256.1522   -162.68166   -129.33962   -162.68166            0    4185.6501    18.163765    22.757653    19.169625 -0.068477082   -6.9860797  -0.10594255    7924.0455    1320.3081    2852.7473    8383.8947    675.58455    929.59227    2260.0446 
  395500    257.46502   -164.73241   -131.21948   -164.73241            0    5402.0077    18.105197    22.530043    19.295601 -0.023273819   -6.8404935  0.085795611    7870.8853     2802.254    5163.6494    8240.1199    255.04097   -3377.1188   -3517.1272 
  396000    245.72965   -163.80709    -131.8217   -163.80709            0    7716.7372    18.112954    22.375005    19.636445 0.0047725569   -6.7498492   0.18465526     7958.208    8270.9626    9299.0306    5580.2183    268.41563    2130.0442   -220.76947 
  396500    254.69357   -164.83046   -131.67828   -164.83046            0    7698.6627     18.14834    22.139229    19.640517  0.074023365   -6.6591537   0.14322273    7891.3682    5904.6854    7971.0187     9220.284    528.28206   -680.54822     -1025.41 
  397000    254.94685   -163.27375    -130.0886   -163.27375            0    7443.5924    18.261055    22.262035    19.410051  0.059494741   -6.6201194 -0.088436672     7890.734    3400.1779    10300.851    8629.7482   -415.78895    897.23348   -31.564189 
  397500    261.85334   -163.67801   -129.59388   -163.67801            0    5530.1476    18.259367    22.731771    19.189296 -0.023775346   -6.6067643  -0.37521047     7964.858    2011.2328    6041.1046    8538.1054    3075.6656   -3267.0778    379.43747 
  398000    255.99032   -163.49526   -130.17429   -163.49526            0    7642.5432     17.94352    22.973839    19.088962 -0.030185964   -6.6024213  -0.31342425    7869.0718    7036.2539    6606.8901    9284.4858   -201.49985   -1096.1137    912.29895 
  398500    269.31864   -163.88268   -128.82683   -163.88268            0     4387.314    17.835755    23.069083    19.232337  0.068145838   -6.7513154   0.01566111    7913.2318    5158.7373     3982.133    4021.0717   -205.67114    1951.1613    2654.1567 
  399000    246.69045   -165.38177   -133.27132   -165.38177            0     4578.791    17.898328    22.945752      19.2608  0.085356246   -6.9041028   0.21800074    7910.2293     3843.596    7996.9972    1895.7797   -817.52502    65.533193   -1545.9553 
  399500    253.45241   -163.67091   -130.68028   -163.67091            0    5284.4383    18.103277    22.634055    19.249024 -0.060263704   -7.0716143   0.19766912    7887.2985    4570.8785    4231.2776    7051.1589   -897.87895   -1625.6943   -238.40718 
  400000    252.06766   -164.89883   -132.08845   -164.89883            0    7247.3427    18.246926    22.487766    19.318909  -0.10396549   -7.1377127  0.077643313    7927.1782    4129.1502    7992.5637     9620.314   -209.76663    448.94861    -357.7909 
Loop time of 2565.79 on 1 procs for 400000 steps with 1008 atoms

Performance: 6.735 ns/day, 3.564 hours/ns, 155.897 timesteps/s
71.4% CPU use with 1 MPI tasks x 1 OpenMP threads

MPI task timing breakdown:
Section |  min time  |  avg time  |  max time  |%varavg| %total
---------------------------------------------------------------
Pair    | 2204.5     | 2204.5     | 2204.5     |   0.0 | 85.92
Bond    | 0.063948   | 0.063948   | 0.063948   |   0.0 |  0.00
Neigh   | 328.54     | 328.54     | 328.54     |   0.0 | 12.80
Comm    | 11.557     | 11.557     | 11.557     |   0.0 |  0.45
Output  | 2.0162     | 2.0162     | 2.0162     |   0.0 |  0.08
Modify  | 17.45      | 17.45      | 17.45      |   0.0 |  0.68
Other   |            | 1.633      |            |       |  0.06

Nlocal:        1008.00 ave        1008 max        1008 min
Histogram: 1 0 0 0 0 0 0 0 0 0
Nghost:        5098.00 ave        5098 max        5098 min
Histogram: 1 0 0 0 0 0 0 0 0 0
Neighs:         0.00000 ave           0 max           0 min
Histogram: 1 0 0 0 0 0 0 0 0 0
FullNghs:      271548.0 ave      271548 max      271548 min
Histogram: 1 0 0 0 0 0 0 0 0 0

Total # of neighbors = 271548
Ave neighs/atom = 269.39286
Ave special neighs/atom = 0.0000000
Neighbor list builds = 40000
Dangerous builds not checked

unfix		3
unfix		2

write_data	data.final.${pid}
write_data	data.final.0
System init for write_data ...

write_restart   restart.lmp.${pid}
write_restart   restart.lmp.0
System init for write_restart ...
Total wall time: 0:42:51
