LAMMPS data file via write_data, version 29 Sep 2021, timestep = 2000000

864 atoms
2 atom types

0.2244186446896883 17.98315435530803 xlo xhi
0.26433550820892293 21.181779491790024 ylo yhi
0.27379021578427754 21.93940578421352 zlo zhi

Masses

1 1.008
2 15.999

Atoms # full

104 0 2 0.5897 1.5154189673341987 0.9234251696923954 2.42619350926027 0 0 0
103 0 1 -1.1794 0.8114812995497983 1.0152841770418304 3.074384763112319 0 0 0
38 0 2 0.5897 2.0933578926632923 2.1081394045331097 4.049218638936472 0 0 -1
399 0 2 0.5897 4.0786527799662 3.8532146072900613 2.989868889346621 0 1 0
573 0 2 0.5897 1.4127300911544964 3.558505238793294 0.35501963923482976 -1 1 0
508 0 1 -1.1794 2.938036591119532 0.914389202372235 1.3130936565832096 0 1 1
509 0 2 0.5897 2.783679471509447 1.806377920490273 0.9046293488095279 0 1 1
836 0 2 0.5897 4.621574705675497 1.4769903897759655 0.8485385452457428 0 1 1
37 0 1 -1.1794 2.8361075411490972 2.6892416593187702 4.363460884973806 0 0 -1
510 0 2 0.5897 2.5534244462564026 0.351711207168212 0.617773290980927 0 0 1
835 0 1 -1.1794 5.375679478030655 2.098174220648966 0.7311840112031824 0 1 1
624 0 2 0.5897 6.87849285637694 3.184640417487205 1.502613463684366 -1 0 0
609 0 2 0.5897 9.066274698986588 3.482411783858291 2.495269986378947 0 1 1
119 0 2 0.5897 6.256363275880889 1.4094634555639003 3.2077210606813584 0 0 -1
120 0 2 0.5897 7.112927586196925 1.8695510010837406 4.475419651651167 0 0 -1
118 0 1 -1.1794 6.563296555954244 1.1524891216039528 4.059828429385701 0 0 -1
622 0 1 -1.1794 7.11571310616304 3.7792255286841474 2.1995554889772286 -1 0 0
623 0 2 0.5897 6.253782935069557 4.246045881184995 2.3568640397461404 -1 0 0
710 0 2 0.5897 9.59709547247268 1.3107826575322448 1.7662094988131307 -1 1 1
607 0 1 -1.1794 9.721257152061701 2.919618414309582 2.8914729530020855 0 1 1
608 0 2 0.5897 10.552391229628638 3.192239078710895 2.4827903355884375 0 1 1
751 0 1 -1.1794 12.091111261803327 3.867732239326904 2.1346586482109067 0 1 1
752 0 2 0.5897 12.52396436899112 3.0210477307387515 2.0621596064312167 -1 1 1
599 0 2 0.5897 12.884456557044777 0.8459932712240021 2.5348723449078445 -1 0 0
598 0 1 -1.1794 13.092570660614518 1.0293876364902013 1.5815129099669059 -1 0 0
753 0 2 0.5897 12.344708548213067 4.251091110451411 1.24147544334783 0 1 1
709 0 1 -1.1794 9.401002531572646 1.063473622541321 0.797015196210918 -1 1 1
85 0 1 -1.1794 12.584782842474397 0.8887314038398507 4.310971424951005 0 1 0
711 0 2 0.5897 10.274032665662695 0.9675034930312744 0.41647461786392026 -1 1 1
600 0 2 0.5897 14.069710482818476 1.0583251455396603 1.5284885370564558 -1 0 0
612 0 2 0.5897 16.96880840666036 2.166888389651846 3.9293173819005918 0 1 0
610 0 1 -1.1794 16.567376307233324 2.930002602430179 3.503862746789198 0 1 0
699 0 2 0.5897 16.40107203338078 1.5779215641261273 2.0846263395730364 -1 1 1
697 0 1 -1.1794 15.920629269917786 1.1740130502122579 1.372569862146188 -1 1 1
611 0 2 0.5897 15.87751047443099 3.3846332856072765 4.004585946040619 0 1 0
657 0 2 0.5897 17.34586060131893 3.998500766277739 2.165068186434645 0 0 1
398 0 2 0.5897 4.1532833064679835 5.0200181279889895 1.9646881856280034 0 1 0
226 0 1 -1.1794 1.5395169025423652 6.417913532426221 2.724261462832731 1 1 1
668 0 2 0.5897 3.4255926385918545 6.865401944634026 3.807602861851498 0 1 1
227 0 2 0.5897 1.730939993368537 6.970559083794096 1.9138802030537887 1 1 1
228 0 2 0.5897 1.1690979193412292 5.565462819977178 2.3313109576818927 1 1 1
234 0 2 0.5897 0.7797306346668972 7.5658022287264455 3.729285294180955 0 0 1
667 0 1 -1.1794 4.111592269716947 7.272124731582327 4.332566442249747 0 1 1
397 0 1 -1.1794 4.467366482719971 4.7342069217967 2.8192031566245768 0 1 0
232 0 1 -1.1794 0.5108821651755111 8.34325662656936 4.305981367339743 0 0 1
190 0 1 -1.1794 2.3657472849613552 7.644782582650813 0.33411524126406283 1 1 0
669 0 2 0.5897 4.896246236798381 6.762970828040231 4.096058935537604 0 1 1
527 0 2 0.5897 8.322884884328369 7.174360405851344 2.688416191676519 0 0 0
601 0 1 -1.1794 8.133237683139292 6.434879248137365 1.1473703980074945 0 0 1
603 0 2 0.5897 8.017676831843467 5.4674192994547095 1.168131696235967 0 0 1
526 0 1 -1.1794 8.419640563988168 7.526741792880987 3.5860562610205924 0 0 0
528 0 2 0.5897 8.783939072095357 8.442715257825778 3.6087148160677165 0 0 0
678 0 2 0.5897 12.065694094812974 4.92984080736451 3.6188001416923026 0 2 0
63 0 2 0.5897 12.341656931814875 7.190722463292643 3.634830297033971 0 1 1
61 0 1 -1.1794 12.430557511719735 8.135219080574597 3.6045234258765992 0 1 1
676 0 1 -1.1794 12.244739727847787 5.314248724009256 4.526944394402896 0 2 0
62 0 2 0.5897 12.323264350424804 8.41183131105012 4.556164036121709 0 1 1
666 0 2 0.5897 14.237446598803647 5.31373642546554 0.7221485954671392 0 1 0
655 0 1 -1.1794 17.830769149193944 4.475228108272835 1.45300208824197 0 0 1
210 0 2 0.5897 15.710260490673704 7.062395478888095 1.8878914598305938 1 0 0
656 0 2 0.5897 17.086811565326347 5.079424294788118 1.21659771332992 0 0 1
208 0 1 -1.1794 15.531734824314292 6.077757700339772 1.8061449042429798 1 0 0
209 0 2 0.5897 15.497179132276603 5.831874010944758 2.765881691199309 1 0 0
524 0 2 0.5897 16.494415103273184 8.09836131583075 4.590832316476528 0 1 1
525 0 2 0.5897 15.067131525285957 8.334541565237423 3.932132712219616 0 1 1
158 0 2 0.5897 1.3951903819186704 10.86967636623995 2.8637013088948278 0 0 0
159 0 2 0.5897 1.7693124624979564 11.015720639211038 4.279781948501543 0 -1 0
687 0 2 0.5897 3.632541360068466 10.348479951839176 1.1269440096293177 1 0 0
157 0 1 -1.1794 0.996786072714029 10.996273879693648 3.7236676939111035 0 0 0
686 0 2 0.5897 2.544368538315639 9.567274949561655 0.6418906116518732 1 0 0
685 0 1 -1.1794 2.68147945871307 10.45611053052458 0.8775173653311595 1 0 0
125 0 2 0.5897 4.225775805056607 12.018941516076486 4.290428333665708 0 0 -1
233 0 2 0.5897 0.6084835303632883 9.17478707045548 3.831781411664318 0 0 1
124 0 1 -1.1794 4.400604965086299 12.700881683438103 3.6356614616787133 0 0 -1
96 0 2 0.5897 4.946749940846824 8.662794102960245 3.2155710257735834 0 0 1
606 0 2 0.5897 6.051646542697775 9.567079636600951 0.6280410752755383 0 0 0
94 0 1 -1.1794 5.154220940100958 9.368075644221813 2.5684161921744626 0 0 1
95 0 2 0.5897 5.882494643479003 9.94212121212588 2.8891893547485172 0 0 1
830 0 2 0.5897 7.605714319346323 12.570882313286829 2.673643519624301 -1 0 0
341 0 2 0.5897 8.453424840247276 10.234868953455631 0.5619094065966428 1 0 1
831 0 2 0.5897 6.725422315760978 12.73888801142587 1.4637478232763192 -1 0 0
160 0 1 -1.1794 7.469202810180972 10.832324885039196 4.351284148012619 -1 0 0
126 0 2 0.5897 5.3319871976714195 12.623971473511512 3.4019286933883293 0 0 -1
372 0 2 0.5897 10.863743773336182 9.112308627284456 3.048793278852752 -1 0 0
342 0 2 0.5897 9.491359348125266 9.989883732407833 1.756764963854167 1 0 0
340 0 1 -1.1794 9.34309750941893 10.4425384765329 0.9019656213449746 1 0 0
370 0 1 -1.1794 10.12154277758286 9.660470048245507 3.1756653737216767 -1 0 0
371 0 2 0.5897 10.429059446749633 10.550316947289868 3.4843210256925863 -1 0 0
429 0 2 0.5897 11.229988045934377 10.66952983205907 0.7159185076565466 0 -1 0
428 0 2 0.5897 12.211738259340446 11.823683441828084 0.9579019630874187 0 -1 0
427 0 1 -1.1794 12.176791147396443 10.879190783171007 0.904623998184689 0 -1 0
432 0 2 0.5897 9.865997903218089 12.33728966554749 0.8734310850655305 0 1 0
671 0 2 0.5897 11.79874270458873 12.054037706355777 4.4823904582823575 0 0 1
670 0 1 -1.1794 10.905182340157268 12.015208473458747 4.125040346435284 0 0 1
281 0 2 0.5897 17.387403104601457 12.541032109869434 4.568715147739572 0 0 0
554 0 2 0.5897 13.746459523825374 9.282436215399136 2.124928356295646 0 0 1
553 0 1 -1.1794 14.618639493666711 9.701228308179203 2.297619093426115 0 0 0
300 0 2 0.5897 14.214086676795572 10.99130497150998 3.4283346061857567 -1 1 1
555 0 2 0.5897 15.098264637334319 9.55207003423425 1.4452132883470716 0 0 0
298 0 1 -1.1794 14.034003511776445 11.653166521562602 4.106396957187366 -1 0 1
276 0 2 0.5897 15.41640881750022 12.593617189994514 2.813846880245023 0 0 1
338 0 2 0.5897 2.7849538926413575 12.956464700730054 2.4933507784208526 0 0 1
511 0 1 -1.1794 1.7365251734746705 16.225026796381343 3.0915172738103753 0 0 0
513 0 2 0.5897 0.8355437650937787 16.40456924998289 3.1097439493779486 0 0 0
512 0 2 0.5897 2.1363618863760934 16.524220301091148 3.9512810360355752 0 0 0
339 0 2 0.5897 2.1275833656939653 14.38641336607994 2.3623506996373362 0 0 1
337 0 1 -1.1794 2.455651789742381 13.636179201439727 1.863393296111159 0 0 1
237 0 2 0.5897 0.7894843507557714 13.577914285077933 0.6942911989516496 1 0 0
507 0 2 0.5897 3.8637671658873245 14.049795691064393 0.45938791446858307 0 0 1
829 0 1 -1.1794 6.763614568149472 12.947553216570997 2.4059226531118894 -1 0 0
549 0 2 0.5897 6.762909477700413 15.21744792616306 2.003734095553188 1 0 0
547 0 1 -1.1794 6.056675619050694 15.821756325517187 2.227539071252772 1 0 0
548 0 2 0.5897 6.255928435010233 16.111797874608477 3.124710375469443 1 0 0
783 0 2 0.5897 7.883100720235237 13.819679789017018 4.550409206527599 1 0 0
782 0 2 0.5897 8.44359722963348 14.494273582208013 3.3842937658309666 1 0 0
640 0 1 -1.1794 8.990228206909526 15.562799948993984 1.7272428980096795 0 0 1
781 0 1 -1.1794 8.694382269760368 14.21260733561911 4.2769201341868275 1 0 0
672 0 2 0.5897 10.613111328339109 12.87266407061461 3.8075794230888884 0 0 1
430 0 1 -1.1794 10.22564729880293 13.1734103101855 1.0952137224784524 -1 1 0
641 0 2 0.5897 9.208625870950035 16.1977565215927 1.0282516202436962 0 0 1
642 0 2 0.5897 9.522652660678851 14.771458787688765 1.4934681967396721 0 0 1
818 0 2 0.5897 12.315003605162897 16.747496957899074 2.5717761291888688 -1 1 0
630 0 2 0.5897 10.017396136591005 16.847123300348816 3.119619020682884 -1 -1 1
817 0 1 -1.1794 13.03816206876212 16.237933591188117 2.8956437786782403 -1 1 0
168 0 2 0.5897 13.458497173314981 14.742679971858031 1.478013947034815 0 0 1
588 0 2 0.5897 13.139313568016721 15.061370262981333 4.081030960310346 0 0 0
166 0 1 -1.1794 13.794632012153219 13.974223395810288 0.9062109377689658 0 0 1
275 0 2 0.5897 16.63086808106949 12.824086603914683 1.7877304141773889 0 0 1
274 0 1 -1.1794 16.235193014930854 13.095341852020507 2.6459658357951454 0 0 1
167 0 2 0.5897 14.768208104413757 14.1491864932789 0.8747216016344653 0 0 1
463 0 1 -1.1794 17.003174017599154 15.679689371892815 2.9388690892908476 0 0 1
465 0 2 0.5897 16.76258694220659 14.764680743006306 2.963630170202506 0 0 1
464 0 2 0.5897 16.337256179456638 16.134282906701124 3.512257960169651 0 0 1
279 0 2 0.5897 16.50839776365167 15.84068969742547 1.2086299057253043 0 -1 1
235 0 1 -1.1794 17.624846248934944 13.385790038982567 0.4001745924687744 0 0 0
819 0 2 0.5897 13.609091308693015 16.959110523306435 3.2208336710807037 -1 1 0
587 0 2 0.5897 13.55225271704375 13.614937472371164 4.46094169598817 0 0 0
277 0 1 -1.1794 16.254250355222148 15.675184114198444 0.3146440200731284 0 -1 1
105 0 2 0.5897 0.48967725355559477 21.01673955234635 3.2566741475146337 0 -1 0
380 0 2 0.5897 2.5375075935269837 17.15662930762559 1.7878363418779275 1 0 1
381 0 2 0.5897 3.8739160599672102 17.608343545593844 1.1673359464311828 1 0 1
539 0 2 0.5897 3.548611597807847 19.627031111225268 2.893776345467718 0 -1 1
538 0 1 -1.1794 3.020261762929217 19.67158487410647 3.704448146055928 0 -1 1
540 0 2 0.5897 2.4760028001543506 18.8762925804446 3.733820021384221 0 -1 1
379 0 1 -1.1794 2.916904721280246 17.570209954172924 0.9906990150792443 1 0 1
845 0 2 0.5897 5.678343206583073 17.283447688696214 1.1842463056048005 0 -1 0
844 0 1 -1.1794 5.435327275441703 18.144319389219664 0.9074286898871277 0 -1 0
846 0 2 0.5897 5.8036438351005435 18.69679795652573 1.6155391770556737 0 -1 0
636 0 2 0.5897 6.944464912153725 20.3827065364332 3.4522497987944445 0 -1 0
634 0 1 -1.1794 6.6832859391533965 19.506829561259735 3.026340726232647 0 -1 0
635 0 2 0.5897 6.638848817291011 18.79332709060376 3.793477712209211 0 -1 0
479 0 2 0.5897 7.833774862693589 19.34909733204322 1.9219196861815802 0 -1 0
478 0 1 -1.1794 8.49696412186538 19.289507892383902 1.2712731450045176 0 -1 0
480 0 2 0.5897 8.694318139221824 20.170494531209016 0.9397625515682074 0 -1 0
628 0 1 -1.1794 10.392141038807381 17.72741570720286 3.1461709138000624 -1 -1 1
629 0 2 0.5897 10.239142783170117 18.21209745901525 2.342446447909339 -1 -1 1
419 0 2 0.5897 11.932747493263395 18.74547146314268 4.074833604666777 -1 0 0
86 0 2 0.5897 12.52323530179309 20.874813239643366 4.573925318249903 0 0 0
179 0 2 0.5897 17.720064058418334 18.950811057672734 4.1650334663067525 0 1 1
698 0 2 0.5897 16.202579750625134 21.167634407846087 1.4037784309495227 -1 0 1
746 0 2 0.5897 16.768092151320566 19.18821374755004 1.7179715387592451 0 0 0
178 0 1 -1.1794 17.20910260767348 19.43213409969966 3.5351464381139155 0 1 1
180 0 2 0.5897 16.449039531902827 19.80064311443336 3.984054707809736 0 1 1
745 0 1 -1.1794 16.45035756936315 19.198303773151558 0.82448667552423 0 0 0
58 0 1 -1.1794 15.114771893034138 17.188912935474274 4.316589384832514 0 0 0
60 0 2 0.5897 15.364908226308545 18.002839749799044 3.8769737110890174 0 0 0
39 0 2 0.5897 3.432189684677131 2.1502726550930378 4.829759572141831 0 0 -1
374 0 2 0.5897 1.7863671417634328 2.7743440196952305 7.798248750393455 1 1 0
373 0 1 -1.1794 2.4192711605541253 2.1289146882914967 8.175607901159808 1 1 0
9 0 2 0.5897 2.357238025549557 0.7668696279980447 6.91965210233001 0 0 1
375 0 2 0.5897 3.319180719204716 2.3174110071924194 7.816237162934441 1 1 0
267 0 2 0.5897 0.43422679944622566 4.373274500731616 6.672705127614794 -1 0 0
660 0 2 0.5897 0.5359578279162094 0.9558605262772801 5.557888218176266 0 0 0
812 0 2 0.5897 2.4426784279433735 4.309867415135419 5.350479731768861 1 0 1
102 0 2 0.5897 8.713782712894915 3.188428042973494 4.7092858871967636 0 0 -1
646 0 1 -1.1794 4.6924189757009644 2.3371822147414174 6.564873885797455 0 0 -1
100 0 1 -1.1794 8.172042901498086 2.699363206229926 5.311390979891508 0 0 -1
648 0 2 0.5897 5.054014183235288 3.255979872460251 6.505538016152136 0 0 -1
647 0 2 0.5897 5.505591433341381 1.8943577788519717 6.8120298254050615 0 0 -1
55 0 1 -1.1794 7.098731717154889 0.7413203271758603 7.453156656509176 0 0 0
101 0 2 0.5897 8.787799869236034 2.0874130060981875 5.764687509688951 0 0 -1
57 0 2 0.5897 7.471741512536342 0.8950270849889729 8.295612381950008 0 0 0
803 0 2 0.5897 7.004702419849473 3.738496537254028 6.093713760450362 0 0 0
802 0 1 -1.1794 6.382096729036494 4.417823900241078 6.46660104250991 0 0 0
620 0 2 0.5897 7.118102581416265 4.177230188108232 8.230301924110442 0 0 0
87 0 2 0.5897 13.230862663068036 1.2963118095673547 4.9038483100238714 0 1 0
680 0 2 0.5897 11.027727177092318 1.5260463442358738 5.321639520363298 0 1 1
679 0 1 -1.1794 10.382160161008693 1.5728269681667824 6.058402496160235 0 0 1
681 0 2 0.5897 10.803407720874059 1.9947022182634426 6.801780266386634 0 0 1
205 0 1 -1.1794 11.557410936776812 2.4742116369635876 8.167886669673258 0 0 0
206 0 2 0.5897 12.064136025878083 3.2893905671666253 8.296219430970142 0 0 0
207 0 2 0.5897 11.849199661200522 1.6464889042757895 8.58963018719421 0 0 0
663 0 2 0.5897 14.86253667963428 3.848776429362359 8.844536324121634 0 0 0
436 0 1 -1.1794 14.369120666320212 2.1185535067039587 6.233019424455275 -1 0 0
438 0 2 0.5897 14.014614651639627 2.0249904384077886 7.116832402551817 -1 0 0
265 0 1 -1.1794 17.564318132177068 3.730565965356356 7.03749121539014 -2 0 0
659 0 2 0.5897 17.5806283950192 1.9519336393793283 6.346476517483249 -1 0 0
658 0 1 -1.1794 17.445154613669 1.1377321123768303 5.918247270090382 -1 0 0
437 0 2 0.5897 14.219959090308086 2.989466038971096 5.858135317645428 -1 0 0
266 0 2 0.5897 16.819856581407464 4.312180369860647 7.4105240365208624 -2 0 0
251 0 2 0.5897 17.152159448630837 0.3435614245494056 7.263485474017429 -1 1 1
811 0 1 -1.1794 2.3784310820930155 5.086696048658254 5.931815859552455 1 0 1
813 0 2 0.5897 3.082787555185871 5.627502524155215 5.601436249427918 1 0 1
857 0 2 0.5897 2.769891643689358 4.8338587275106875 7.948882418891796 0 0 0
314 0 2 0.5897 3.885543912220759 8.077825199602508 5.924953151951673 1 0 0
315 0 2 0.5897 4.016085442769945 8.25060059117306 7.481853199341219 1 0 0
856 0 1 -1.1794 2.5432854502415867 5.1081480467688145 8.85168904503813 0 0 0
715 0 1 -1.1794 0.9705878415928921 8.461172893995146 6.8586561886610635 0 0 0
716 0 2 0.5897 0.7526497466499804 8.47895630519297 5.9321350880339265 0 0 0
717 0 2 0.5897 1.9355246915231623 8.405938240325769 6.746038940900022 0 0 0
765 0 2 0.5897 7.232146464771798 6.861014541044386 5.057367279216888 1 0 0
804 0 2 0.5897 6.692312125100932 5.331795875614856 6.259021691925036 0 0 0
764 0 2 0.5897 6.901281541089947 7.455821985277254 6.488818505961682 1 0 0
763 0 1 -1.1794 6.556934069273989 6.860606728872112 5.769716550140032 1 0 0
132 0 2 0.5897 7.429986074020057 7.5368182729634094 8.59302520647914 0 0 0
740 0 2 0.5897 9.60307987620099 6.87563084782442 5.033888870722703 1 0 0
741 0 2 0.5897 9.539279185122112 6.515158489831234 6.432413173942467 1 0 0
409 0 1 -1.1794 12.314507918126012 4.962828040847981 7.896628340993134 0 0 0
410 0 2 0.5897 12.03322044555546 5.325806621395161 7.098700132547375 0 0 0
739 0 1 -1.1794 10.221240827433078 6.652403676787546 5.760723981376315 1 0 0
677 0 2 0.5897 11.376842949453438 5.345722744985528 4.989886310806021 0 2 0
411 0 2 0.5897 11.734380452141675 5.378731927697227 8.557963774983415 0 0 0
738 0 2 0.5897 11.2488084441005 8.302978513310412 6.4689843016975725 0 1 0
533 0 2 0.5897 13.138113478537418 8.327948492835034 7.464021213660256 0 0 0
106 0 1 -1.1794 10.035438339834421 6.50502019665506 8.825664286582219 -1 0 -1
496 0 1 -1.1794 14.830943040312802 4.8101768962478015 4.847796471032303 -1 0 0
498 0 2 0.5897 13.983230393068608 5.242141242722109 5.010639442105267 -1 0 0
408 0 2 0.5897 17.663161235148785 7.306008117763207 7.870641436771157 0 0 -1
497 0 2 0.5897 15.270840691698337 4.910043883109717 5.7016422959732305 -1 0 0
725 0 2 0.5897 14.437777871821563 5.362777975932451 7.735202176186596 1 1 1
726 0 2 0.5897 15.880087373709827 6.024496040775163 7.8399950816019155 1 1 1
724 0 1 -1.1794 15.370909964622859 5.195780460058922 7.591192370712022 1 1 1
523 0 1 -1.1794 15.557142070919598 8.338234811730107 4.796343244795135 0 1 1
406 0 1 -1.1794 16.878831136026616 7.1441109743513485 8.477805106142723 0 0 -1
532 0 1 -1.1794 13.705501698867662 7.67645135108598 7.8278052729521885 0 0 0
534 0 2 0.5897 14.565804565439356 8.081498242435373 7.848164876502769 0 0 0
550 0 1 -1.1794 3.0624657899456706 11.149024908052665 5.460871128545555 0 0 0
552 0 2 0.5897 3.2819549193824162 10.386396080198459 5.997253939574902 0 0 0
313 0 1 -1.1794 3.638941146438295 8.655912420147482 6.6945702591253875 1 0 0
551 0 2 0.5897 2.588096012680409 11.79450337588914 6.068724534084444 0 0 0
224 0 2 0.5897 1.7866717338493558 9.442687603666988 8.653002013634326 1 0 -1
162 0 2 0.5897 8.129840909190564 10.536224926766668 4.936108214547048 -1 0 0
161 0 2 0.5897 6.821193416829629 11.207408673876659 4.978945075765309 -1 0 0
365 0 2 0.5897 8.873365396584536 8.895118086196375 7.489124664205184 1 0 0
364 0 1 -1.1794 7.93902985545897 8.804763786010197 7.272504524507789 1 0 0
366 0 2 0.5897 7.620113993157829 9.738119420636206 7.384641843155239 1 0 0
184 0 1 -1.1794 6.679251824279971 11.275110658307804 7.9977770356517865 0 0 0
185 0 2 0.5897 5.825339376255664 11.204961142214 8.489541253571687 0 0 0
807 0 2 0.5897 6.259560644780338 12.628081772343151 6.82904296965265 0 0 0
186 0 2 0.5897 7.451970233635621 11.446456168276619 8.54800291096683 0 0 0
736 0 1 -1.1794 11.730587587168364 9.073716190193513 6.2025107839912215 0 1 0
141 0 2 0.5897 10.103837563208774 11.633934366488603 7.348595196539117 1 0 0
139 0 1 -1.1794 9.764478736587696 11.011234565686578 6.666052161338028 1 0 0
737 0 2 0.5897 11.116534054555295 9.785979941081944 6.27814874113524 0 1 0
140 0 2 0.5897 9.790094337298685 11.571406021944302 5.896101387352833 1 0 0
222 0 2 0.5897 17.831198098495882 10.126404381361223 7.0726094877403085 -1 0 0
221 0 2 0.5897 17.312812577503436 11.480484141660895 6.624526602895491 -1 0 0
499 0 1 -1.1794 13.628983305415355 12.203690581531095 8.273826461091286 0 0 0
220 0 1 -1.1794 17.146009170541777 10.774549549944558 7.302555855899865 -1 0 0
299 0 2 0.5897 14.278915387163984 11.223545559202162 5.032930837837468 -1 0 1
500 0 2 0.5897 13.719542460098664 11.607183937747545 7.5459384537589775 0 0 0
645 0 2 0.5897 14.412935489755226 9.386275719704074 5.900247551699967 0 0 1
644 0 2 0.5897 15.339324580072185 10.278565772285502 6.702006933611664 0 0 1
643 0 1 -1.1794 14.434948627998176 10.211639948025226 6.368407762072349 0 0 1
501 0 2 0.5897 14.467880216761717 12.384139077535337 8.66337440095965 0 0 0
825 0 2 0.5897 3.451034676670183 16.143977983425415 5.41373596622612 1 0 0
32 0 2 0.5897 4.067553101684124 14.05070095369565 4.662476304596282 0 0 1
617 0 2 0.5897 0.9192279512112492 13.294970794618967 6.628334894808403 0 0 1
616 0 1 -1.1794 1.833838313440709 13.228081879126124 6.872987567394571 0 0 1
618 0 2 0.5897 2.0266418035574176 13.755042584324848 7.674439392842904 0 0 1
791 0 2 0.5897 3.658268046310786 15.275252222764736 8.700647947477794 1 1 1
33 0 2 0.5897 3.260073302661572 14.030739603842596 5.989150848808281 0 0 0
31 0 1 -1.1794 3.9375745633376433 14.52134751059176 5.494529020978813 0 0 1
790 0 1 -1.1794 2.897496522725622 14.75515096313704 8.876026081330135 1 1 1
805 0 1 -1.1794 6.45474968363436 13.313008559971236 6.219439897269772 0 0 0
806 0 2 0.5897 5.605907325206639 13.6739101398045 5.921081892455921 0 0 0
334 0 1 -1.1794 7.512785919672081 15.378148100237711 8.247937806959907 0 0 0
336 0 2 0.5897 7.274647917460694 14.658884637257719 7.6339672339700915 0 0 0
335 0 2 0.5897 8.244429879520634 15.17661763094478 8.808747058565782 0 0 0
774 0 2 0.5897 5.883668936291703 16.371515207811754 7.9369352187008815 0 0 0
772 0 1 -1.1794 5.012241903208179 16.47962681671332 8.292650552023842 0 0 0
287 0 2 0.5897 11.982429792071077 13.050650045417933 8.166586409184564 0 0 0
286 0 1 -1.1794 11.015962779448008 13.189393090010595 8.228755656900628 0 0 0
288 0 2 0.5897 10.720540452095042 13.856006279157757 7.53147717229523 0 0 0
326 0 2 0.5897 10.038147231740867 14.895672896849392 5.350161659496805 0 0 1
327 0 2 0.5897 11.665494331744725 14.748055862004795 5.5366264356904 0 0 1
325 0 1 -1.1794 10.778046088715357 14.973874372774317 5.9638705757763875 0 0 1
357 0 2 0.5897 11.162353958732789 16.777606543954516 6.8137300385451 0 0 0
586 0 1 -1.1794 13.258785803729161 14.446253181356566 4.841227573951664 0 0 0
280 0 1 -1.1794 17.372189717401305 12.822925469783758 5.5133684469229856 0 0 -1
723 0 2 0.5897 14.744251270944707 14.559697579575062 6.231285783279237 0 0 0
721 0 1 -1.1794 15.48596275241598 14.638044660839943 6.866831990892729 0 0 0
722 0 2 0.5897 15.099386640971618 14.32964592169804 7.689255096291167 0 0 0
282 0 2 0.5897 16.565298504019562 13.313689484167982 5.684252949312164 0 0 -1
296 0 2 0.5897 16.19941511328599 16.60272237618991 6.922972648360521 -1 -1 0
823 0 1 -1.1794 3.335857166155975 17.064984885678836 5.0800665368514775 1 0 0
824 0 2 0.5897 2.843781171817896 17.59087532260408 5.717329242203645 1 0 0
7 0 1 -1.1794 2.192073900591727 21.070806139342896 6.171281767021787 1 -1 1
388 0 1 -1.1794 1.1147178641480417 18.428912888271856 5.573048112617792 0 0 0
389 0 2 0.5897 1.0375019753361314 19.302704126617247 5.925416603135197 0 0 0
8 0 2 0.5897 3.0529279152889632 20.881009144624482 5.862507548669513 1 -1 1
195 0 2 0.5897 3.1387742403496475 19.11121329621951 8.144465306441688 -1 0 0
390 0 2 0.5897 0.5580775406648204 17.887277326746993 6.169430434177197 0 0 0
193 0 1 -1.1794 4.104966971331576 19.22931577768498 8.238394702275945 -1 0 0
194 0 2 0.5897 4.323043351298052 19.67866891395369 7.411141713795877 -1 0 0
460 0 1 -1.1794 1.3842994466633691 18.813809230515634 8.572191817905697 0 -1 0
404 0 2 0.5897 4.6756992749945026 19.686719609592295 4.8804345509155045 1 0 1
405 0 2 0.5897 5.641803154452731 20.832989089318993 5.373749070520152 1 0 1
56 0 2 0.5897 6.889685643215575 20.727896773611498 7.471928685525513 0 -1 0
403 0 1 -1.1794 5.027841841757483 20.14418622208025 5.684564394709572 1 0 1
815 0 2 0.5897 7.8121672138882285 17.292892605537293 7.781255386888931 0 0 0
293 0 2 0.5897 5.191682054682055 17.06230960471285 4.817463593412495 0 -1 0
294 0 2 0.5897 6.391415247568546 17.746442887209366 5.573677943747066 0 -1 0
292 0 1 -1.1794 6.171322747587255 17.31577160357071 4.784024276651403 0 -1 0
816 0 2 0.5897 7.1034750756676015 18.456842230313228 8.394892376471228 0 0 0
814 0 1 -1.1794 7.3524487917511046 18.054259324280103 7.508387203885909 0 0 0
773 0 2 0.5897 4.77340775167791 17.44334794862821 8.129865761524725 0 0 0
828 0 2 0.5897 8.850176876853572 19.22130107612675 7.187553353593809 -1 -1 1
418 0 1 -1.1794 12.602989038331751 19.05127339779135 4.704288571998921 -1 0 0
355 0 1 -1.1794 11.46630176304215 17.715058180148187 6.840063581089546 0 0 0
356 0 2 0.5897 10.62759236172898 18.281325499746472 6.941963205686824 0 0 0
827 0 2 0.5897 9.704613119859863 20.410289908279434 6.525147862248372 -1 -1 1
420 0 2 0.5897 12.271681269982066 18.59830457066782 5.485467816030471 -1 0 0
826 0 1 -1.1794 9.703061132777206 19.76750847393229 7.251375932128612 -1 -1 1
23 0 2 0.5897 12.572521512565235 17.935648652765966 8.108458835408026 -1 0 0
22 0 1 -1.1794 12.996734384344744 18.198045340038885 8.908445699849045 -1 0 0
689 0 2 0.5897 14.288063625861719 19.717465856163972 4.990894937791817 0 0 0
688 0 1 -1.1794 15.204687561869244 20.028067628916745 4.961985798451904 0 0 0
690 0 2 0.5897 15.252899415940998 20.82981840475531 5.546116489701109 0 0 0
295 0 1 -1.1794 16.41981646083381 17.531068834410092 6.749387915220575 -1 -1 0
297 0 2 0.5897 15.966993656870693 17.998880483311556 7.479367322142539 -1 -1 0
252 0 2 0.5897 17.809430341404067 20.185657736120717 8.161512337563916 -1 0 1
59 0 2 0.5897 15.535336089659904 17.20152852655533 5.184781423974732 0 0 0
24 0 2 0.5897 13.940001668592762 18.30082052390206 8.907401297857454 -1 0 0
250 0 1 -1.1794 17.078809769388027 20.851825009924088 8.163465266993517 -1 0 1
483 0 2 0.5897 1.967849952651518 0.8046620558469866 9.575420840934436 0 0 0
583 0 1 -1.1794 1.8249776842216594 1.946816079502439 12.14027154705612 0 1 0
584 0 2 0.5897 2.7847345784835875 2.1429266753357537 12.052340703938695 0 1 0
74 0 2 0.5897 1.0284082577232492 3.2206588891259824 11.01407412408797 0 1 0
544 0 1 -1.1794 4.4745425027651375 2.1645456217837697 11.68462339497781 0 1 -1
73 0 1 -1.1794 0.49839962502782414 3.8680469899680894 10.503960974564102 0 1 0
482 0 2 0.5897 1.5657158981569657 0.5627181795521794 11.043689101961538 0 0 0
546 0 2 0.5897 4.654641365439409 1.4480598368754978 11.062098068150474 0 1 -1
75 0 2 0.5897 1.1749675643675233 4.157442838573767 9.823694554773411 0 1 0
585 0 2 0.5897 1.7385003425183747 1.7471025708521861 13.068171883383776 0 1 0
621 0 2 0.5897 7.827773105128663 3.226519538960694 9.235238342717308 0 0 0
619 0 1 -1.1794 7.448542083562712 4.109090209810668 9.123225822273 0 0 0
324 0 2 0.5897 4.867844862100404 3.7063306120017856 11.111724911674106 0 2 0
545 0 2 0.5897 5.096975233902532 1.8956909519570604 12.361314177367696 0 1 0
358 0 1 -1.1794 6.972317629783973 1.409783386507086 12.373661861024441 0 1 0
331 0 1 -1.1794 8.66628837797891 1.5102280112832662 9.735082318236598 0 -1 1
333 0 2 0.5897 8.156171439429983 1.5407190051671686 10.582312322516133 0 -1 1
360 0 2 0.5897 7.3955736973302555 0.6326354879584366 12.77226372455186 0 1 0
323 0 2 0.5897 6.007977378981838 4.325115572009508 10.293193002276126 0 2 0
359 0 2 0.5897 7.053079599530328 2.119246080668936 13.017919109872047 0 1 0
332 0 2 0.5897 9.395619841482647 0.834477353648197 9.901152457312213 0 -1 1
848 0 2 0.5897 10.154968965609271 3.4370540974522856 10.076511073084754 0 0 0
820 0 1 -1.1794 12.843463176639373 3.9251799700962238 11.522952513637227 0 1 1
849 0 2 0.5897 11.294422249325 4.100982617922448 10.946777534612243 0 1 0
847 0 1 -1.1794 10.361143433385898 4.12874111849371 10.736829933810256 0 1 0
123 0 2 0.5897 13.20640872749732 0.518062496907856 10.114430626624356 -1 1 0
821 0 2 0.5897 12.983425319165335 2.991706581751601 11.310402134432048 0 1 1
494 0 2 0.5897 9.75828508696323 4.4314970567866165 12.421044472007779 1 0 0
822 0 2 0.5897 13.353322401292536 4.370241238344516 10.834506299143403 0 1 1
661 0 1 -1.1794 14.320038752699476 3.2014675980106273 9.297414296232057 0 0 0
662 0 2 0.5897 14.835498700825953 2.5947983259472402 9.783323771959113 0 0 0
301 0 1 -1.1794 14.09834814157762 1.3014781405911244 11.849300467462912 0 1 0
302 0 2 0.5897 13.561727351402922 0.9890691275748248 12.572618862869255 0 1 0
303 0 2 0.5897 14.912531050741505 1.6214946991864119 12.333730048548599 0 1 1
415 0 1 -1.1794 16.687127398647487 1.5959551804687515 10.302628106706049 -1 1 0
416 0 2 0.5897 17.33975760929296 2.3219246741403667 10.248128680190105 -1 1 0
417 0 2 0.5897 17.004237204966085 1.0055480990674375 9.564527426912209 -1 1 0
758 0 2 0.5897 16.777826061315608 2.3709862518666682 12.58012005220522 0 0 0
283 0 1 -1.1794 4.33209232842792 7.735553490177267 9.256510673032038 0 0 0
858 0 2 0.5897 3.2378430231415773 4.796006244497088 9.40680381531739 0 0 0
285 0 2 0.5897 3.4847327690538337 7.276380602054421 9.372021215642546 0 0 0
503 0 2 0.5897 3.2295916188516194 7.685540870036316 11.619366918102813 1 0 0
502 0 1 -1.1794 2.413039264036516 8.258131996520046 11.608034023719854 1 0 0
504 0 2 0.5897 2.207272838141673 8.500594238038246 12.512440544733465 1 0 0
434 0 2 0.5897 0.9536237347737859 7.074869241644502 11.13591103493494 0 1 0
435 0 2 0.5897 0.45297577990627447 5.659623818881256 11.008577935251493 0 1 0
131 0 2 0.5897 7.430908181490016 6.2219273948111375 9.349626668037013 0 0 1
130 0 1 -1.1794 6.9648029043654605 7.083202041213082 9.316254601268017 0 0 1
284 0 2 0.5897 5.024699133189291 7.050647086469705 9.377150734180754 0 0 0
556 0 1 -1.1794 4.7887539968384845 6.992655785045758 12.140985322018947 0 0 0
558 0 2 0.5897 4.9278702322416335 6.188501106151558 11.630276560205093 0 0 0