LAMMPS (29 Sep 2021 - Update 2)
  using 1 OpenMP thread(s) per MPI task
plugin load libdeepmd_lmp.so
Loading plugin: deepmd pair style v2.0 by Han Wang
Loading plugin: compute deeptensor/atom v2.0 by Han Wang
Loading plugin: fix dplr v2.0 by Han Wang
echo both

include		in.partitions
variable        pid world 0
include		in.temp
variable        temperature equal 255
variable        tempDamp equal 0.100
include		in.pressure
variable        pressure equal 986.923
variable        pressureDamp equal 1.0 # This is 1 ps
include		in.seed
variable        seed world 745823

units           metal
atom_style	full
include		in.box
read_data       water.data
Reading data file ...
  orthogonal box = (0.0000000 0.0000000 0.0000000) to (18.207573 21.446115 22.213196)
  1 by 1 by 1 MPI processor grid
  reading atoms ...
  864 atoms
  reading velocities ...
  864 velocities
Finding 1-2 1-3 1-4 neighbors ...
  special bond factors lj:    0        0        0       
  special bond factors coul:  0        0        0       
     0 = max # of 1-2 neighbors
     0 = max # of 1-3 neighbors
     0 = max # of 1-4 neighbors
     1 = max # of special neighbors
  special bonds CPU = 0.000 seconds
  read_data CPU = 0.017 seconds
include 	in.setup
variable	out_freq equal 500
variable	out_freq2 equal 500

timestep        0.0005

neigh_modify    delay 7 every 1

include         in.deepmd
# This is deepMD model

# create groups ###
#group ox type 2
#group hy type 1

mass 2 15.999
mass 1 1.008

pair_style      deepmd ../graph.pb
pair_coeff      * *

bond_style      none
angle_style     none
dihedral_style  none
improper_style  none
neigh_modify exclude none


neighbor        2.0 bin
neigh_modify    every 10 delay 0 check no

thermo          ${out_freq}
thermo          500
thermo_style 	custom step temp pe etotal epair emol press lx ly lz xy xz yz vol pxx pyy pzz pxy pxz pyz cella cellb cellc cellalpha cellbeta cellgamma


restart 	${out_freq} restart.lmp.${pid} restart2.lmp.${pid}
restart 	500 restart.lmp.${pid} restart2.lmp.${pid}
restart 	500 restart.lmp.0 restart2.lmp.${pid}
restart 	500 restart.lmp.0 restart2.lmp.0


include         in.dump
dump            myDump all atom ${out_freq2} dump.water.${pid}
dump            myDump all atom 500 dump.water.${pid}
dump            myDump all atom 500 dump.water.0
dump            myDump2 all dcd ${out_freq2} dump.dcd
dump            myDump2 all dcd 500 dump.dcd
dump_modify     myDump append yes
dump_modify     myDump2 append yes


timer           timeout 23:50:00 every 1000
New timer settings: style=normal  mode=nosync  timeout=23:50:00

fix             2 all nph iso ${pressure} ${pressure} ${pressureDamp}
fix             2 all nph iso 986.923 ${pressure} ${pressureDamp}
fix             2 all nph iso 986.923 986.923 ${pressureDamp}
fix             2 all nph iso 986.923 986.923 1
fix             3 all temp/csvr ${temperature} ${temperature} ${tempDamp} ${seed}
fix             3 all temp/csvr 255 ${temperature} ${tempDamp} ${seed}
fix             3 all temp/csvr 255 255 ${tempDamp} ${seed}
fix             3 all temp/csvr 255 255 0.1 ${seed}
fix             3 all temp/csvr 255 255 0.1 745823
velocity 	all create ${temperature} ${seed} dist gaussian
velocity 	all create 255 ${seed} dist gaussian
velocity 	all create 255 745823 dist gaussian

run             2000000

CITE-CITE-CITE-CITE-CITE-CITE-CITE-CITE-CITE-CITE-CITE-CITE-CITE

Your simulation uses code contributions which should be cited:

- USER-DEEPMD package:

@article{Wang_ComputPhysCommun_2018_v228_p178,
  author = {Wang, Han and Zhang, Linfeng and Han, Jiequn and E, Weinan},
  doi = {10.1016/j.cpc.2018.03.016},
  url = {https://doi.org/10.1016/j.cpc.2018.03.016},
  year = 2018,
  month = {jul},
  publisher = {Elsevier {BV}},
  volume = 228,
  journal = {Comput. Phys. Commun.},
  title = {{DeePMD-kit: A deep learning package for many-body potential energy representation and molecular dynamics}},
  pages = {178--184}
}

CITE-CITE-CITE-CITE-CITE-CITE-CITE-CITE-CITE-CITE-CITE-CITE-CITE

Neighbor list info ...
  update every 10 steps, delay 0 steps, check no
  max neighbors/atom: 2000, page size: 100000
  master list distance cutoff = 8
  ghost atom cutoff = 8
  binsize = 4, bins = 5 6 6
  1 neighbor lists, perpetual/occasional/extra = 1 0 0
  (1) pair deepmd, perpetual
      attributes: full, newton on
      pair build: full/bin
      stencil: full/bin/3d
      bin: standard
Per MPI rank memory allocation (min/avg/max) = 7.215 | 7.215 | 7.215 Mbytes
Step Temp PotEng TotEng E_pair E_mol Press Lx Ly Lz Xy Xz Yz Volume Pxx Pyy Pzz Pxy Pxz Pyz Cella Cellb Cellc CellAlpha CellBeta CellGamma 
       0          255    -134.9383   -106.49267    -134.9383            0    24493.946    18.207573    21.446115    22.213196            0            0            0    8673.8466    24372.166    25254.812    23854.861     1106.783   -266.79902   -868.86831    18.207573    21.446115    22.213196           90           90           90 
     500    251.58369   -129.13459   -101.07006   -129.13459            0   -1763.2354    18.270289    21.519986    22.289709            0            0            0    8763.7869    873.35674     -3979.95   -2183.1129    1360.0619   -1254.0092   -747.91711    18.270289    21.519986    22.289709           90           90           90 
    1000    256.83091   -127.28203   -98.632154   -127.28203            0    2940.2801    18.268585    21.517979    22.287631            0            0            0    8761.3351    2091.8153    3442.2672    3286.7579   -1279.1569    1329.2855   -1247.8674    18.268585    21.517979    22.287631           90           90           90 
    1500    244.67876   -127.84079   -100.54651   -127.84079            0    2011.8322    18.217877    21.458251    22.225766            0            0            0    8688.5806    1499.5341    -460.7368    4996.6992    1057.9602   -397.70156   -1650.2232    18.217877    21.458251    22.225766           90           90           90 
    2000      252.169   -126.26875   -98.138916   -126.26875            0   -476.59444    18.188343    21.423465    22.189736            0            0            0    8646.3934    765.74355   -556.79153   -1638.7353   -471.69059    374.18078    284.45465    18.188343    21.423465    22.189736           90           90           90 
    2500    269.27224   -127.14528   -97.107553   -127.14528            0    1969.0922    18.189847    21.425236     22.19157            0            0            0     8648.538   -580.94391    1815.7471    4672.4734    1368.9735    969.98958    2077.4658    18.189847    21.425236     22.19157           90           90           90 
    3000    262.50919   -126.86118   -97.577883   -126.86118            0   -1174.3542    18.173131    21.405547    22.171177            0            0            0    8624.7172   -4333.5944    1523.2624   -712.73053   -873.38567    552.36234    1278.1431    18.173131    21.405547    22.171177           90           90           90 
    3500    254.13806   -127.07699    -98.72751   -127.07699            0    1443.9187     18.08325    21.299679    22.061523            0            0            0    8497.3802    334.23485    15.027166    3982.4942   -263.39495    970.73595   -143.99839     18.08325    21.299679    22.061523           90           90           90 
    4000    253.82754   -127.40943   -99.094591   -127.40943            0   -251.23182    18.168318    21.399878    22.165305            0            0            0    8617.8655   -424.57128    345.41145   -674.53562   -18.360526    907.59816   -1242.5553    18.168318    21.399878    22.165305           90           90           90 
    4500     252.0565   -126.66404   -98.546759   -126.66404            0   -629.91926     18.18682     21.42167    22.187877            0            0            0    8644.2205   -1158.9757    1677.6386   -2408.4207    -642.2089   -730.71325   -962.41867     18.18682     21.42167    22.187877           90           90           90 
    5000    256.66077   -127.03828   -98.407383   -127.03828            0    -1151.586    17.930252    21.119467    21.874865            0            0            0    8283.5161    -1659.953   -1724.9834     -69.8215     519.2054    -2100.417     31.16661    17.930252    21.119467    21.874865           90           90           90 
    5500    253.35876   -127.67498   -99.412429   -127.67498            0    1155.4341    17.961775    21.156598    21.913323            0            0            0    8327.2831   -874.06703    2014.2215     2326.148     1482.671   -1695.7385    217.46211    17.961775    21.156598    21.913323           90           90           90 
    6000    254.17594   -126.68593   -98.332216   -126.68593            0   -1460.2592    18.092554    21.310637    22.072873            0            0            0    8510.5016   -2210.6377   -2151.4876   -18.652173   -451.95196   -1632.5523    2261.4711    18.092554    21.310637    22.072873           90           90           90 
    6500    257.83347     -127.511   -98.749293     -127.511            0    33.504851    18.066339     21.27976    22.040891            0            0            0    8473.5625   -2543.9713    2721.5459   -77.060088   -823.57767    57.354564   -1350.1438    18.066339     21.27976    22.040891           90           90           90 
    7000    260.37104   -126.56327   -97.518486   -126.56327            0   -281.15925    18.066614    21.280084    22.041227            0            0            0    8473.9498    552.00002   -1145.6391   -249.83872    453.19916   -903.13634    1323.4256    18.066614    21.280084    22.041227           90           90           90 
    7500    254.91543   -125.66409   -97.227886   -125.66409            0   -728.41454    18.089047    21.306507    22.068594            0            0            0    8505.5539    428.94523    1010.8115   -3625.0003    33.684196    649.00998   -1394.3845    18.089047    21.306507    22.068594           90           90           90 
    8000    249.76541   -124.94187   -97.080159   -124.94187            0    2834.6927    18.017927    21.222737    21.981828            0            0            0    8405.6253    6576.4927   -1013.3169    2940.9024    453.11642   -294.03019    734.33928    18.017927    21.222737    21.981828           90           90           90 
    8500    257.69338   -126.87412   -98.128031   -126.87412            0   -1382.4349    18.001969     21.20394    21.962359            0            0            0    8383.3108   -2759.2163   -120.13054   -1267.9578   -1090.7143    645.64079   -319.36025    18.001969     21.20394    21.962359           90           90           90 
    9000    273.20317   -127.37484   -96.898611   -127.37484            0   -1249.3906    18.051929    21.262786     22.02331            0            0            0    8453.3019   -3462.2175   -1453.0878    1167.1335   -654.68534    2594.7515    320.15915    18.051929    21.262786     22.02331           90           90           90 
    9500    266.09012   -126.40966   -96.726911   -126.40966            0    154.80625    18.050756    21.261405    22.021879            0            0            0    8451.6541   -437.74363   -296.15358     1198.316   -525.37725    1932.5117   -304.24638    18.050756    21.261405    22.021879           90           90           90 
   10000    257.50759   -124.91437   -96.189012   -124.91437            0   -12.637985    17.923729    21.111784    21.866907            0            0            0    8274.4789   -1040.4381   -1940.4598     2942.984    242.84122   -364.53009   -1433.4266    17.923729    21.111784    21.866907           90           90           90 
   10500    271.07834   -125.25404   -95.014838   -125.25404            0    235.14113    18.060328     21.27268    22.033558            0            0            0    8465.1076   -1341.4171    1638.4412    408.39925    -150.5827   -41.610398    37.873973    18.060328     21.27268    22.033558           90           90           90 
   11000    251.07048   -123.66509   -95.657799   -123.66509            0   -1491.7652    18.002657    21.204751    21.963199            0            0            0    8384.2724   -26.682727   -1848.8014   -2599.8116    239.74508    611.78357   -393.00803    18.002657    21.204751    21.963199           90           90           90 
   11500    274.25976   -127.61101   -97.016925   -127.61101            0    3553.7859    17.849755    21.024653    21.776659            0            0            0    8172.4512     2203.392    4566.5071    3891.4585    1565.1377    -210.4334    190.42975    17.849755    21.024653    21.776659           90           90           90 
   12000     259.1362   -124.50573   -95.598692   -124.50573            0     425.1949    17.873454    21.052566    21.805571            0            0            0    8205.0454    1681.9454   -2910.0688    2503.7081   -3079.6102    1671.4603     225.6785    17.873454    21.052566    21.805571           90           90           90 
   12500    266.41138    -125.7788   -96.060205    -125.7788            0    2086.8719    17.922417    21.110239    21.865307            0            0            0    8272.6628    3222.4813    939.16644    2098.9679    496.87605   -493.57346    704.97399    17.922417    21.110239    21.865307           90           90           90 
   13000     268.4395   -125.04603   -95.101197   -125.04603            0    437.25642    17.872641    21.051609    21.804579            0            0            0     8203.926   -2035.3067    3674.6842   -327.60823    661.15537   -704.81292   -81.082381    17.872641    21.051609    21.804579           90           90           90 
   13500    254.53916   -126.24994   -97.855712   -126.24994            0    3282.4019    17.775613    20.937323    21.686205            0            0            0    8071.0363    2483.2841    2371.9394    4991.9822   -1176.5528   -1958.8928   -1120.2788    17.775613    20.937323    21.686205           90           90           90 
   14000     243.1709    -124.7035   -97.577421    -124.7035            0     68.17449    17.822885    20.993003    21.743877            0            0            0    8135.5992    348.38587   -258.22455    114.36215    1689.7924    -2155.744    1625.2424    17.822885    20.993003    21.743877           90           90           90 
   14500    248.40187   -125.89992   -98.190321   -125.89992            0    1690.7464    17.878051    21.057981    21.811179            0            0            0     8211.378    3421.8333    729.80306    920.60293    561.28807   -711.72725    816.55204    17.878051    21.057981    21.811179           90           90           90 
   15000    254.94235   -126.01728   -97.578077   -126.01728            0    2941.0957    17.844708    21.018708    21.770501            0            0            0    8165.5206    4018.2703    4097.8804    707.13647   -1436.5231   -62.290414   -1401.1957    17.844708    21.018708    21.770501           90           90           90 
   15500    260.98113   -126.77618   -97.663345   -126.77618            0    2070.1347    17.877562    21.057406    21.810584            0            0            0    8210.7052    2798.5574    652.23997    2759.6067    1080.6849    1761.0424   -40.730799    17.877562    21.057406    21.810584           90           90           90 
   16000    252.83219   -126.18279   -97.978975   -126.18279            0    1712.5529    17.861076    21.037988    21.790471            0            0            0    8188.0113    440.82341    3291.9172    1404.9181   -3571.6479    1697.3815   -2286.1057    17.861076    21.037988    21.790471           90           90           90 
   16500    257.73939    -126.5896   -97.838382    -126.5896            0   -1105.3627    17.809867     20.97767    21.727996            0            0            0    8117.7858    1316.1179   -2532.6935   -2099.5125    2077.6983   -1126.4343   -117.64034    17.809867     20.97767    21.727996           90           90           90 
   17000    255.88835   -126.27927   -97.734536   -126.27927            0    440.27211    17.853837     21.02946    21.781638            0            0            0    8178.0586    77.654309    1554.6745   -311.51249    539.39884     854.8712    424.08636    17.853837     21.02946    21.781638           90           90           90 
   17500    261.65504   -126.25003    -97.06202   -126.25003            0   -40.177838    17.887371    21.068959     21.82255            0            0            0    8224.2274    1611.2975   -2374.7617    642.93076     -591.858    2496.9288    1247.8594    17.887371    21.068959     21.82255           90           90           90 
   18000    253.71988   -126.49591   -98.193079   -126.49591            0    886.95418    17.823536     20.99377    21.744671            0            0            0    8136.4908   -146.01001    2539.7197    267.15289   -647.63991    1123.8303   -178.40639    17.823536     20.99377    21.744671           90           90           90 
   18500    255.34372   -126.55868   -98.074707   -126.55868            0    3096.6003    17.698765    20.846807    21.592452            0            0            0    7966.8101    5254.2623    3409.8956    625.64315    2726.3155   -7.8498721    961.36778    17.698765    20.846807    21.592452           90           90           90 
   19000    250.25279    -126.0413    -98.12522    -126.0413            0   -3517.1565    17.801192    20.967451    21.717412            0            0            0    8105.9288   -4251.7591   -1400.5629   -4899.1475    1005.2417    223.82541    1163.9852    17.801192    20.967451    21.717412           90           90           90 
   19500    257.02145   -125.38355   -96.712422   -125.38355            0      2972.91    17.813205    20.981601    21.732068            0            0            0    8122.3509    1111.7942    2165.4959    5641.4399   -1522.4323    1709.5222    65.524922    17.813205    20.981601    21.732068           90           90           90 
   20000    245.39937   -126.14922   -98.774549   -126.14922            0   -1010.6711    17.843305    21.017056    21.768791            0            0            0    8163.5958    -606.5551   -4262.1867    1836.7284   -1149.3275    1193.9029    886.74787    17.843305    21.017056    21.768791           90           90           90 
   20500    250.03158   -126.37092   -98.479522   -126.37092            0    2772.4535     17.79437    20.959416    21.709089            0            0            0    8096.6131    1794.3417    365.84448    6157.1743    476.33563    -1713.536    432.40394     17.79437    20.959416    21.709089           90           90           90 
   21000    241.83323   -126.62526   -99.648396   -126.62526            0   -658.14287    17.837263    21.009938    21.761418            0            0            0    8155.3043     166.9724   -3405.5706    1264.1696    962.37267    540.61865    221.01615    17.837263    21.009938    21.761418           90           90           90 
   21500     241.0256   -126.97547    -100.0887   -126.97547            0    3053.9721    17.849694    21.024581    21.776585            0            0            0    8172.3677    4287.0847    1169.0953    3705.7362   -4613.4347   -44.934179    2343.1138    17.849694    21.024581    21.776585           90           90           90 
   22000    250.69167   -126.66599   -98.700959   -126.66599            0    2648.9822    17.875856    21.055397    21.808503            0            0            0    8208.3551    5052.0842   -2802.3045    5697.1669    2032.3783    2732.1841     1187.596    17.875856    21.055397    21.808503           90           90           90 
   22500    246.30965   -126.18438   -98.708169   -126.18438            0     1796.531    17.891468    21.073785    21.827548            0            0            0    8229.8793    2838.9139    675.28943    1875.3896   -3152.0137    1448.2508   -231.84815    17.891468    21.073785    21.827548           90           90           90 
   23000    259.90454   -128.21058   -99.217836   -128.21058            0   -251.95793    17.884519      21.0656    21.819071            0            0            0    8220.2938   -577.52207   -625.73818    447.38646    697.61832    836.36952    1458.5654    17.884519      21.0656    21.819071           90           90           90 
   23500    263.49577   -127.60417    -98.21082   -127.60417            0    236.03678    17.817459    20.986612    21.737258            0            0            0    8128.1715    1031.4978    445.70957   -769.09698   -2020.1729    60.236422    416.50119    17.817459    20.986612    21.737258           90           90           90 
   24000    268.82145   -126.96206   -96.974627   -126.96206            0    484.50718    17.872746    21.051733    21.804708            0            0            0    8204.0712    325.45937    356.18215    771.88004    -580.1295   -645.75933    955.82294    17.872746    21.051733    21.804708           90           90           90 
   24500     262.5106   -128.36006   -99.076603   -128.36006            0    206.06366    17.954509    21.148039    21.904458            0            0            0    8317.1805   -379.25075     2492.536   -1495.0942    -235.7026    1821.4796    326.09124    17.954509    21.148039    21.904458           90           90           90 
   25000    263.36231   -126.32632   -96.947855   -126.32632            0    813.92467    17.899787    21.083584    21.837698            0            0            0    8241.3653   -1124.9379    2852.4007    714.31122    1032.5996    -1360.351    2963.4209    17.899787    21.083584    21.837698           90           90           90 
   25500    250.48775   -124.74309   -96.800803   -124.74309            0    1322.3582    17.883948    21.064927    21.818374            0            0            0    8219.5061    1389.1896    3750.0311   -1172.1461    2891.4523    2260.0344     1064.027    17.883948    21.064927    21.818374           90           90           90 
   26000    258.30931   -125.16273   -96.347939   -125.16273            0    1935.8942    17.861047    21.037953    21.790435            0            0            0    8187.9705    2397.6004    211.71857    3198.3636     -1025.28     1152.594    19.388191    17.861047    21.037953    21.790435           90           90           90 
   26500    259.52636   -126.89777   -97.947211   -126.89777            0    1727.9268    17.877268    21.057059    21.810224            0            0            0    8210.2992    3985.7024    1805.6952   -607.61723   -2363.2964    -43.73776   -1338.4076    17.877268    21.057059    21.810224           90           90           90 
   27000    263.79848   -125.97092   -96.543799   -125.97092            0     2390.542    17.966217    21.161829    21.918742            0            0            0    8333.4624     4605.805    1966.5289    599.29193    1828.5106    1343.1011    171.95209    17.966217    21.161829    21.918742           90           90           90 
   27500    259.22029   -126.65263   -97.736217   -126.65263            0    2803.1235    17.858066    21.034442    21.786798            0            0            0    8183.8717    1216.4265    4863.8473    2329.0967    3222.3593     287.1222   -1094.7543    17.858066    21.034442    21.786798           90           90           90 
   28000    252.68598   -126.86859   -98.681093   -126.86859            0     1066.496    17.801975    20.968374    21.718367            0            0            0    8106.9987    3459.8498    1028.4097   -1288.7713   -3105.3309   -3075.1247   -383.40505    17.801975    20.968374    21.718367           90           90           90 
   28500    251.71174   -126.03413   -97.955305   -126.03413            0    2129.3375     17.82102    20.990807    21.741603            0            0            0    8133.0466    1070.1115     2031.833    3286.0679    1550.9261     699.2877    1129.8364     17.82102    20.990807    21.741603           90           90           90 
   29000    252.57054   -126.24692   -98.072295   -126.24692            0    1349.2326    17.822123    20.992105    21.742947            0            0            0    8134.5558    3543.2117     162.9468    341.53948    1507.9131    239.38057   -449.16521    17.822123    20.992105    21.742947           90           90           90 
   29500     258.6634   -125.27936   -96.425066   -125.27936            0    2198.9678    17.843587    21.017387    21.769134            0            0            0     8163.982    2087.7316    3945.3464    563.82537    1908.2066   -107.95249    -116.0772    17.843587    21.017387    21.769134           90           90           90 
   30000    272.13788    -125.4929   -95.135506    -125.4929            0    484.87676    17.935319    21.125436    21.881047            0            0            0    8290.5417    3343.3839   -2998.9802    1110.2266   -231.34168    148.69204    1445.4518    17.935319    21.125436    21.881047           90           90           90 
   30500    263.71316   -125.42872    -96.01112   -125.42872            0   -1154.9409    17.905819    21.090689    21.845057            0            0            0    8249.6993   -15.510805   -2810.8773   -638.43456   -414.14913    767.62378    990.10438    17.905819    21.090689    21.845057           90           90           90 
   31000    270.35267   -127.05176   -96.893517   -127.05176            0     1303.791    17.844323    21.018255    21.770032            0            0            0    8164.9929    628.60105    718.23862    2564.5334     1810.605    991.64583   -986.16594    17.844323    21.018255    21.770032           90           90           90 
   31500    257.07694   -127.08842   -98.411097   -127.08842            0    2398.8305     17.90127    21.085331    21.839507            0            0            0     8243.414     2323.625    1327.7485    3545.1179   -1343.3399   -378.75372   -462.51997     17.90127    21.085331    21.839507           90           90           90 
   32000    260.58784   -128.52585   -99.456889   -128.52585            0    2299.1668    17.948539    21.141007    21.897175            0            0            0    8308.8867    1030.6444     2645.673    3221.1831   -1024.5982    992.91089     894.5398    17.948539    21.141007    21.897175           90           90           90 
   32500     261.2822   -128.44589   -99.299465   -128.44589            0   -1336.0663    18.049276    21.259663    22.020075            0            0            0    8449.5767    -1080.653   -175.14017   -2752.4056    2060.8946   -316.04475    3855.9053    18.049276    21.259663    22.020075           90           90           90 
   33000    258.05338    -127.7083   -98.922055    -127.7083            0   -112.93854    17.969459    21.165648    21.922697            0            0            0    8337.9743    1810.9982   -964.18823   -1185.6256   -287.38698   -2204.4094   -4204.0204    17.969459    21.165648    21.922697           90           90           90 
   33500    253.83972   -127.08104   -98.764836   -127.08104            0    970.90427    17.943366    21.134914    21.890864            0            0            0    8301.7053    3298.2324     394.6812   -780.20078    451.64631    654.93651    822.41521    17.943366    21.134914    21.890864           90           90           90 
   34000    245.44356   -128.12648   -100.74688   -128.12648            0     1682.119    17.973077    21.169909    21.927111            0            0            0    8343.0116    1967.5313    4525.9856   -1447.1597    313.47984    972.68611   -338.76552    17.973077    21.169909    21.927111           90           90           90 
   34500    245.80581   -128.10667   -100.68666   -128.10667            0    1095.0819    17.848371    21.023023    21.774971            0            0            0    8170.5508    1635.9002   -1250.5556    2899.9012   -453.25102    1668.3113    636.16825    17.848371    21.023023    21.774971           90           90           90 
   35000      235.781   -127.39357   -101.09184   -127.39357            0     1039.439    17.886741    21.068217    21.821782            0            0            0    8223.3582    1025.6188    1133.7455    958.95264    588.36007    20.828691   -545.60516    17.886741    21.068217    21.821782           90           90           90 
   35500     243.9427   -127.14045   -99.928277   -127.14045            0    577.15642    17.828173    20.999233     21.75033            0            0            0     8142.844    1346.8722    1218.5514   -833.95431    1098.9729   -2534.8979    410.60914    17.828173    20.999233     21.75033           90           90           90 
   36000    246.00417   -126.28834   -98.846207   -126.28834            0    751.52346    17.791751    20.956331    21.705894            0            0            0    8093.0385     1790.966    19.531559    444.07281   -920.20238   -479.98135   -340.02313    17.791751    20.956331    21.705894           90           90           90 
   36500     256.1184    -126.6968   -98.126409    -126.6968            0    2644.3404    17.861747    21.038778     21.79129            0            0            0    8188.9343    3971.9322    1103.5606    2857.5284    2642.1457   -1917.3139    974.29222    17.861747    21.038778     21.79129           90           90           90 
   37000    254.67421   -126.25081    -97.84152   -126.25081            0    2030.3836    17.900084    21.083934     21.83806            0            0            0    8241.7756     32.18779     2686.852     3372.111    -592.8864   -898.67108    1645.6587    17.900084    21.083934     21.83806           90           90           90 
   37500     253.7176   -127.11394   -98.811363   -127.11394            0   -38.010973    17.884779    21.065906    21.819388            0            0            0    8220.6523    860.31169    -260.6961   -713.64851    1713.3173   -3488.1791    723.52099    17.884779    21.065906    21.819388           90           90           90 
   38000    261.72559    -126.7946   -97.598718    -126.7946            0    1456.6083    17.851469    21.026672     21.77875            0            0            0    8174.8061    1841.1028    1784.9287    743.79349    1234.9439   -49.601506    -447.3228    17.851469    21.026672     21.77875           90           90           90 
   38500    264.46209   -127.74888   -98.247734   -127.74888            0   -1988.3419    17.844609    21.018591     21.77038            0            0            0    8165.3845   -2122.1466   -594.11163   -3248.7675   -566.34363   -2395.8783   -1128.6314    17.844609    21.018591     21.77038           90           90           90 
   39000    251.37052   -127.16024   -99.119476   -127.16024            0    1053.4168    17.895435    21.078458    21.832388            0            0            0     8235.355    2159.7218    1588.7179   -588.18936   -918.20551    1323.5933    847.90591    17.895435    21.078458    21.832388           90           90           90 
   39500    260.04505   -127.86422   -98.855805   -127.86422            0    2895.5754    17.848499    21.023173    21.775126            0            0            0    8170.7255    3819.0762    3985.8159    881.83407   -1944.4378   -2383.9152     684.3222    17.848499    21.023173    21.775126           90           90           90 
   40000    252.80863   -127.87959   -99.678404   -127.87959            0    2701.9679    17.831077    21.002652    21.753871            0            0            0    8146.8227    1349.1443    2614.4213    4142.3382   -1130.5106    1078.5677   -2686.3459    17.831077    21.002652    21.753871           90           90           90 
   40500    246.45328   -128.20401   -100.71177   -128.20401            0    1363.4783    17.890805    21.073004     21.82674            0            0            0     8228.965    4271.8221    -1088.076    906.68887    1476.1494   -664.12047     346.6881    17.890805    21.073004     21.82674           90           90           90 
   41000    248.28859   -127.05553    -99.35856   -127.05553            0    306.57561    17.921065    21.108646    21.863657            0            0            0      8270.79     4539.928     430.9097   -4051.1109   -1497.5291   -55.652623   -1822.6326    17.921065    21.108646    21.863657           90           90           90 
   41500    256.33235   -127.63209   -99.037831   -127.63209            0    1088.2065    17.809416    20.977138    21.727445            0            0            0    8117.1686    794.87633    608.51734    1861.2257    844.12659   -3480.2641    436.05482    17.809416    20.977138    21.727445           90           90           90 
   42000     257.1713    -127.4578   -98.769959    -127.4578            0    2632.4327    17.795884      20.9612    21.710937            0            0            0    8098.6806    3737.1994    2759.6904    1400.4084   -2313.3126    1274.9265    1564.0044    17.795884      20.9612    21.710937           90           90           90 
   42500    255.61361   -126.95408       -98.44   -126.95408            0   -764.60674    17.787423    20.951233    21.700613            0            0            0    8087.1337    1166.2808   -1643.2132   -1816.8878    665.50622   -401.18808   -191.09223    17.787423    20.951233    21.700613           90           90           90 
   43000    252.19139   -125.63798   -97.505648   -125.63798            0    3217.0836    17.745411     20.90175     21.64936            0            0            0    8029.9672    2040.5505    4513.5924     3097.108    1602.2425    31.483522   -793.20561    17.745411     20.90175     21.64936           90           90           90 
   43500    260.65568   -127.94117   -98.864632   -127.94117            0    240.41248    17.826895    20.997727     21.74877            0            0            0    8141.0924   -1044.3826    109.14888    1656.4711   -2426.4144   -86.375288     1932.595    17.826895    20.997727     21.74877           90           90           90 
   44000    257.70031   -127.17236   -98.425503   -127.17236            0    1345.5406    17.898776    21.082393    21.836465            0            0            0    8239.9692    2131.6077   -859.65088    2764.6649   -233.41057   -780.43827   -666.48331    17.898776    21.082393    21.836465           90           90           90 
   44500    270.36183   -128.00686   -97.847594   -128.00686            0   -20.584009    17.830583     21.00207    21.753269            0            0            0    8146.1456    1444.9501    976.22384    -2482.926    624.27951    1341.6197     -2714.86    17.830583     21.00207    21.753269           90           90           90 
   45000    244.16763   -127.61694   -100.37967   -127.61694            0    612.31233    17.784449     20.94773    21.696985            0            0            0    8083.0781   -159.76769    1948.9258    47.778858   -1150.6658    -1262.982   -1266.2722    17.784449     20.94773    21.696985           90           90           90 
   45500     251.9145   -128.43619   -100.33475   -128.43619            0    1641.0186    17.846823    21.021199    21.773082            0            0            0    8168.4245    1613.9237    2501.9252    807.20692   -433.35258    118.41178    750.58978    17.846823    21.021199    21.773082           90           90           90 
   46000    258.28908    -128.3613   -99.548767    -128.3613            0    2944.7982    17.781968    20.944809     21.69396            0            0            0    8079.6969    4035.6782    3622.8601    1175.8563   -809.88131    1740.8066   -142.25204    17.781968    20.944809     21.69396           90           90           90 
   46500     255.0021   -127.66013   -99.214264   -127.66013            0     3273.444    17.820777     20.99052    21.741305            0            0            0    8132.7129    3956.5406    2753.6734    3110.1182   -661.28593    1956.6033    439.14277    17.820777     20.99052    21.741305           90           90           90 
   47000     259.2481   -127.67212   -98.752606   -127.67212            0   -1829.2793     17.86007    21.036802    21.789243            0            0            0    8186.6269   -23.151236     -2382.24   -3082.4466   -2641.1381   -996.18899   -2849.6244     17.86007    21.036802    21.789243           90           90           90 
   47500    256.22263   -127.17974   -98.597716   -127.17974            0    2507.4528    17.809762    20.977546    21.727867            0            0            0    8117.6422    254.42404    2641.1747    4626.7596   -855.05845    2583.9522   -2393.4992    17.809762    20.977546    21.727867           90           90           90 
   48000    257.72619   -126.89776   -98.148018   -126.89776            0    1958.8352    17.884737    21.065857    21.819337            0            0            0    8220.5949   -156.91886    1152.9393    4880.4851    303.09693   -24.043807   -1906.5226    17.884737    21.065857    21.819337           90           90           90 
   48500    256.81901   -127.26703   -98.618485   -127.26703            0   -618.79985    17.785428    20.948883    21.698179            0            0            0    8084.4129   -1526.2304    2455.4235   -2785.5927    -2217.086    349.05004    327.82131    17.785428    20.948883    21.698179           90           90           90 
   49000    262.40179   -126.35472   -97.083402   -126.35472            0    478.78409    17.814063    20.982612    21.733115            0            0            0    8123.5246    1374.7056    865.46443    -803.8178   -1581.6453   -330.55004     1731.524    17.814063    20.982612    21.733115           90           90           90 
   49500    275.67281   -124.99194    -94.24022   -124.99194            0   -119.56343    17.977344    21.174936    21.932317            0            0            0    8348.9556    190.46256     6.546006   -555.69887   -1206.5113   -185.84538   -1245.4815    17.977344    21.174936    21.932317           90           90           90 
   50000    261.25775   -124.83649   -95.692796   -124.83649            0    245.74836    17.830566    21.002051    21.753248            0            0            0    8146.1228    1073.1959   -63.682706    -272.2681   -2171.5826    1951.7348    1485.1388    17.830566    21.002051    21.753248           90           90           90 
   50500    253.43562   -125.62616   -97.355036   -125.62616            0    3784.8172    17.692351    20.839252    21.584627            0            0            0    7958.1518    2364.1814    5084.8288    3905.4412    116.65943      488.062    456.79741    17.692351    20.839252    21.584627           90           90           90 
   51000    255.43976   -125.15775   -96.663059   -125.15775            0    1422.8915    17.800417    20.966539    21.716466            0            0            0    8104.8705    1299.1178    392.03353    2577.5233    2202.2087    1025.4115   -2912.0789    17.800417    20.966539    21.716466           90           90           90 
   51500    251.44101   -126.35878   -98.310153   -126.35878            0   -2596.7631    17.953675    21.147057    21.903441            0            0            0    8316.0221    -1421.218   -2651.0327   -3718.0387   -1870.9988    1648.2747    6.2146179    17.953675    21.147057    21.903441           90           90           90 
   52000    241.84606   -126.15971   -99.181414   -126.15971            0    1605.0787    17.896137    21.079284    21.833244            0            0            0    8236.3239    3086.0656    1394.2391    334.93143    679.03986    408.09627   -89.683753    17.896137    21.079284    21.833244           90           90           90 
   52500    265.32328   -126.46199   -96.864776   -126.46199            0     1482.745     17.82893    21.000123    21.751252            0            0            0    8143.8801   -2006.7801    3489.0736    2965.9414    1240.8848    1052.6992    953.25907     17.82893    21.000123    21.751252           90           90           90 
   53000    255.37314   -126.41466   -97.927404   -126.41466            0    576.15191    17.903355    21.087786     21.84205            0            0            0    8246.2939   -678.67702    2057.0848    350.04798   -2469.3011    780.38481   -981.45145    17.903355    21.087786     21.84205           90           90           90 
   53500    251.29562   -126.29579   -98.263382   -126.29579            0   -775.68976    17.815466    20.984264    21.734826            0            0            0    8125.4439   -2828.2284   -738.32763    1239.4868   -1115.0537   -555.90307    311.26831    17.815466    20.984264    21.734826           90           90           90 
   54000    249.61657   -125.59878    -97.75368   -125.59878            0    2315.5807    17.873392    21.052494    21.805496            0            0            0     8204.961    2064.4058    1365.8814    3516.4549    2045.4041   -338.89101   -428.89488    17.873392    21.052494    21.805496           90           90           90 
   54500    245.93576   -128.24596   -100.81145   -128.24596            0   -1311.4942    17.951255    21.144206    21.900488            0            0            0    8312.6594   -2229.2617   -469.23171   -1235.9891   -306.54011   -1733.3975   -933.33647    17.951255    21.144206    21.900488           90           90           90 
   55000    257.03843   -127.78851   -99.115487   -127.78851            0    4002.4805    17.823789    20.994068     21.74498            0            0            0    8136.8375    1524.6441    4023.6639    6459.1337    1033.2161    235.85865     -126.023    17.823789    20.994068     21.74498           90           90           90 
   55500    254.96339   -128.62424   -100.18269   -128.62424            0    2064.8118    17.931592    21.121046      21.8765            0            0            0    8285.3738    269.66698    6229.0659   -304.29744     255.3939    838.28668    -1836.085    17.931592    21.121046      21.8765           90           90           90 
   56000     262.1247    -126.9462   -97.705796    -126.9462            0    4040.4967    17.861472    21.038454    21.790954            0            0            0    8188.5556    3856.1415    1544.5479    6720.8006   -617.84206   -82.536838    -290.5407    17.861472    21.038454    21.790954           90           90           90 
   56500    263.96829   -127.21694   -97.770881   -127.21694            0    1871.5349    17.886314    21.067714     21.82126            0            0            0     8222.769    97.673942    1965.4846    3551.4462    1619.8885    193.45792   -2356.9271    17.886314    21.067714     21.82126           90           90           90 
   57000    262.80139   -128.10966   -98.793772   -128.10966            0   -772.42397    17.982556    21.181075    21.938676            0            0            0    8356.2197    73.039153   -1127.4261    -1262.885     527.7083   -1781.0773    1576.2876    17.982556    21.181075    21.938676           90           90           90 
   57500    258.47611   -127.71253    -98.87913   -127.71253            0    2529.3112    17.928052    21.116877    21.872182            0            0            0    8280.4684   -1783.4619    4561.5353    4809.8602   -141.28958    187.28907   -2064.3553    17.928052    21.116877    21.872182           90           90           90 
   58000    253.36511    -127.2217   -98.958443    -127.2217            0    351.44629    17.873344    21.052438    21.805438            0            0            0    8204.8948    -898.8244    2720.9292   -767.76589   -1514.7041    2570.7102    1032.9683    17.873344    21.052438    21.805438           90           90           90 
   58500     249.1749   -127.46255   -99.666713   -127.46255            0    -369.2308    17.831029    21.002596    21.753813            0            0            0    8146.7572   -3304.0344    147.95514    2048.3869   -2261.0842    1181.8518   -146.72048    17.831029    21.002596    21.753813           90           90           90 
   59000    258.07853   -127.36157   -98.572517   -127.36157            0    2072.8992    17.889103    21.070999    21.824663            0            0            0    8226.6159    1214.7792    2096.2478    2907.6704   -17.496324    971.54132    736.97846    17.889103    21.070999    21.824663           90           90           90 
   59500    263.33454   -128.56922   -99.193851   -128.56922            0    -1234.963    17.918095    21.105148    21.860033            0            0            0    8266.6784   -796.23218   -1946.0886   -962.56811   -655.62524    5069.9622    2191.4645    17.918095    21.105148    21.860033           90           90           90 
   60000    252.17784   -128.36757   -100.23675   -128.36757            0    2705.0778    17.935164    21.125253    21.880857            0            0            0    8290.3256    3336.5464    3169.8767    1608.8102   -1882.1279    -354.0288   -1748.4679    17.935164    21.125253    21.880857           90           90           90 
   60500    250.17892   -128.02628   -100.11844   -128.02628            0   -1121.1725    17.852662    21.028076    21.780205            0            0            0    8176.4445    234.29095   -3869.3527    271.54429    3146.4791    808.76093    696.65728    17.852662    21.028076    21.780205           90           90           90 
   61000    259.50156   -128.47225   -99.524457   -128.47225            0    1473.1217    17.718055    20.869527    21.615985            0            0            0    7992.8869   -670.46244    764.29377    4325.5338    765.62202    2321.5098    755.19639    17.718055    20.869527    21.615985           90           90           90 
   61500    254.16877   -127.78494   -99.432028   -127.78494            0    3922.5752    17.799279    20.965199    21.715078            0            0            0    8103.3163     4930.832    596.13388    6240.7598   -1093.0978   -902.72576    755.58392    17.799279    20.965199    21.715078           90           90           90 
   62000    260.25626   -127.12433   -98.092353   -127.12433            0   -1619.3287    17.884149    21.065165     21.81862            0            0            0    8219.7844   -1554.8024   -2606.1159   -697.06777    475.18489    123.75665   -313.84662    17.884149    21.065165     21.81862           90           90           90 
   62500    260.44703   -127.76821   -98.714951   -127.76821            0    2656.7623    17.879961    21.060231     21.81351            0            0            0      8214.01   -399.09849    3772.7834    4596.6021   -933.11983    1155.3961   -304.23889    17.879961    21.060231     21.81351           90           90           90 
   63000    259.24371   -125.15184    -96.23281   -125.15184            0    1825.0871    17.895938     21.07905    21.833002            0            0            0    8236.0494    1262.6705    337.11165    3875.4791    1299.8699   -2809.2272      1719.93    17.895938     21.07905    21.833002           90           90           90 
   63500    250.26645   -126.77121   -98.853607   -126.77121            0    884.99343    17.834449    21.006624    21.757986            0            0            0    8151.4461    1166.3905    1190.7202     297.8696   -172.62565    1481.5744   -762.03702    17.834449    21.006624    21.757986           90           90           90 
   64000    258.38258   -126.90184   -98.078871   -126.90184            0    2182.0705    17.805012    20.971952    21.722073            0            0            0    8111.1495    4028.7698    1238.7274    1278.7144   -310.43106     1424.934    909.88324    17.805012    20.971952    21.722073           90           90           90 
   64500    255.82256   -126.82097   -98.283576   -126.82097            0   -605.48394    17.880952    21.061399    21.814719            0            0            0    8215.3766   -768.94178    -1024.228   -23.282061    1789.1122    -1020.948   -742.86271    17.880952    21.061399    21.814719           90           90           90 
   65000     248.3753   -128.20436   -100.49772   -128.20436            0    810.56344    17.821872     20.99181    21.742642            0            0            0     8134.213    1608.7146    1133.2114   -310.23566    -311.3859   -267.15825    943.98211    17.821872     20.99181    21.742642           90           90           90 
   65500    251.59361   -127.67064   -99.604996   -127.67064            0    1962.3647    17.761167    20.920308    21.668582            0            0            0    8051.3748     -497.305    3908.8179    2475.5811   -774.24454    700.15208   -1377.5875    17.761167    20.920308    21.668582           90           90           90 
   66000    264.34572    -126.7686   -97.280434    -126.7686            0    2340.1844    17.901798    21.085952    21.840151            0            0            0    8244.1425    3660.3885   -68.044681    3428.2095   -770.50804    1714.2456   -3325.2799    17.901798    21.085952    21.840151           90           90           90 
   66500    259.61868   -126.05089    -97.09004   -126.05089            0   -1734.2459      17.8951    21.078063     21.83198            0            0            0    8234.8932    1703.8011   -4136.8659    -2769.673   -1422.8716   -1299.4968      1494.92      17.8951    21.078063     21.83198           90           90           90 
   67000    252.16314   -126.86557    -98.73639   -126.86557            0    2989.5543    17.806707    20.973948     21.72414            0            0            0    8113.4655    3000.3911    1560.9634    4407.3083   -675.51809    2470.6758    1106.3021    17.806707    20.973948     21.72414           90           90           90 
   67500    249.39176   -126.60048   -98.780451   -126.60048            0   -110.17483    17.866752    21.044673    21.797395            0            0            0    8195.8191   -1775.8357   -341.90647    1787.2177    2294.5016   -685.00583    1853.1832    17.866752    21.044673    21.797395           90           90           90 
   68000     246.0963   -126.00965    -98.55724   -126.00965            0    1050.5312    17.921214    21.108822    21.863839            0            0            0    8270.9966    46.478871    3670.5897   -565.47512    2050.1926   -703.17474    2038.9231    17.921214    21.108822    21.863839           90           90           90 
   68500    252.58788   -126.37328   -98.196719   -126.37328            0     3435.552    17.788347    20.952322    21.701742            0            0            0    8088.3951    3088.0555    230.20138     6988.399   -1761.9592   -464.54812   -494.26526    17.788347    20.952322    21.701742           90           90           90 
   69000    248.97312   -127.20694   -99.433611   -127.20694            0    1182.2632    17.854922    21.030739    21.782963            0            0            0    8179.5506   -846.73421    2505.7109    1887.8128    2760.7185    2769.5027   -882.67792    17.854922    21.030739    21.782963           90           90           90 
   69500    253.14407   -127.92006   -99.681458   -127.92006            0    585.39932     17.87435    21.053623    21.806665            0            0            0    8206.2803    98.655938    -735.2988    2392.8408   -2532.5898   -1237.9393   -395.13923     17.87435    21.053623    21.806665           90           90           90 
   70000    253.85446    -127.5894   -99.271557    -127.5894            0    1471.9251    17.766662     20.92678    21.675285            0            0            0    8058.8499   -85.437758    2285.3425    2215.8706    1082.1226    963.07389   -68.325257    17.766662     20.92678    21.675285           90           90           90 
   70500    248.24542   -126.97328   -99.281132   -126.97328            0    3579.6258     17.75587    20.914069     21.66212            0            0            0    8044.1736    3737.5168   -104.69762    7106.0581   -2234.3835    1065.3267    2328.0908     17.75587    20.914069     21.66212           90           90           90 
   71000    251.83553   -127.72557   -99.632936   -127.72557            0    1859.9713     17.87826    21.058228    21.811435            0            0            0    8211.6668    2166.6517    2927.5694    485.69276   -1339.3173     623.9851   -2148.7495     17.87826    21.058228    21.811435           90           90           90 
   71500     243.9055   -126.03256   -98.824533   -126.03256            0    1541.2436    17.946905    21.139083    21.895182            0            0            0    8306.6182    -609.6133    5062.5912     170.7528    617.76162    2559.1027     984.1823    17.946905    21.139083    21.895182           90           90           90 
   72000    271.49275   -125.41724   -95.131815   -125.41724            0   -1169.5674    17.928029    21.116849    21.872153            0            0            0    8280.4354   -3242.2554   -143.18197   -123.26501   -750.37924    2298.7318   -386.14985    17.928029    21.116849    21.872153           90           90           90 
   72500    262.76332   -126.60096   -97.289319   -126.60096            0    166.67823    17.892868    21.075434    21.829257            0            0            0    8231.8118   -99.151873   -501.35222    1100.5388     586.2814    723.31254    1690.1104    17.892868    21.075434    21.829257           90           90           90 
   73000     257.2769   -127.51441   -98.814786   -127.51441            0    3609.2299    17.947475    21.139754    21.895878            0            0            0    8307.4103    4658.0422    4689.2655    1480.3821    119.63248    2735.5031    990.15367    17.947475    21.139754    21.895878           90           90           90 
   73500    255.70062   -127.05321   -98.529417   -127.05321            0    389.49744    17.817492    20.986651    21.737298            0            0            0    8128.2166    1932.5923   -224.59492   -539.50507   -86.358056   -2851.2888    895.78284    17.817492    20.986651    21.737298           90           90           90 
   74000     252.1987   -127.29705   -99.163901   -127.29705            0    1897.0461    17.925174    21.113486     21.86867            0            0            0    8276.4808    1409.7427    3887.1941    394.20161   -707.85121    3491.0994   -819.99613    17.925174    21.113486     21.86867           90           90           90 
   74500    252.13858   -127.07017   -98.943729   -127.07017            0    887.82127    18.005342    21.207913    21.966475            0            0            0    8388.0242    172.36816    947.72376    1543.3719    1297.8542    265.52082    672.92141    18.005342    21.207913    21.966475           90           90           90 
   75000    264.53504   -128.66137   -99.152084   -128.66137            0    480.56859    17.883943    21.064922    21.818369            0            0            0    8219.5003    2433.4415   -1798.6142    806.87846     -16.7147    1379.8804    815.79706    17.883943    21.064922    21.818369           90           90           90 
   75500    256.64887   -128.67777    -100.0482   -128.67777            0    715.65211    17.912674    21.098763     21.85342            0            0            0    8259.1785    1394.0752    837.34535   -84.464257    1761.2465    3477.3843   -384.11738    17.912674    21.098763     21.85342           90           90           90 
   76000    259.37466   -128.51777   -99.584137   -128.51777            0   -470.24012    17.920365    21.107822    21.862803            0            0            0    8269.8211     -674.253   -1504.2237    767.75634   -506.60037   -975.22836   -1370.8492    17.920365    21.107822    21.862803           90           90           90 
   76500    245.05192   -130.50682   -103.17091   -130.50682            0   -558.56715    17.808939    20.976577    21.726863            0            0            0    8116.5167   -1637.9101    1564.3476    -1602.139    3289.3896    359.03801    373.92975    17.808939    20.976577    21.726863           90           90           90 
   77000    244.11794    -129.7059   -102.47418    -129.7059            0   -372.83349    17.846203    21.020469    21.772326            0            0            0    8167.5735     1018.546    2171.9929   -4309.0393   -3425.7431   -1703.6364   -383.72737    17.846203    21.020469    21.772326           90           90           90 
   77500    252.68296   -128.35065   -100.16348   -128.35065            0     2341.728    17.854255    21.029953    21.782149            0            0            0    8178.6337    1969.0275    895.85566    4160.3008   -595.35952    226.31386    346.54102    17.854255    21.029953    21.782149           90           90           90 
   78000      259.936   -126.51144   -97.515187   -126.51144            0    -181.5333    17.929256    21.118294     21.87365            0            0            0    8282.1359    2891.3013    1129.8172   -4565.7184    1588.3949    744.45827   -106.76487    17.929256    21.118294     21.87365           90           90           90 
   78500    244.04859   -128.17557   -100.95159   -128.17557            0   -1162.9712    17.961081     21.15578    21.912476            0            0            0    8326.3171   -1802.1273    2753.8987   -4440.6851    2263.8383   -669.85575    7.1023332    17.961081     21.15578    21.912476           90           90           90 
   79000    250.23667   -128.51487   -100.60059   -128.51487            0    4102.1661    17.898894    21.082532    21.836608            0            0            0    8240.1313    4563.4601     4887.451    2855.5873    926.42713    2457.2315    -506.4017    17.898894    21.082532    21.836608           90           90           90 
   79500    260.45932   -127.61298    -98.55835   -127.61298            0    150.80118    17.919053    21.106277    21.861202            0            0            0    8268.0049   -2023.2772    4494.6753   -2018.9946   -1773.6974   -123.12588   -45.263628    17.919053    21.106277    21.861202           90           90           90 
   80000    263.57223   -127.63496   -98.233085   -127.63496            0     1844.599    17.853491    21.029054    21.781217            0            0            0    8177.5844      701.668    2791.0701     2041.059   -603.88795   -440.29692    1189.4285    17.853491    21.029054    21.781217           90           90           90 
   80500    263.54441   -128.86654   -99.467762   -128.86654            0    1062.8274    17.806729    20.973973    21.724167            0            0            0    8113.4952    2491.5924    338.54808    358.34184    477.03637    810.88473   -2352.1743    17.806729    20.973973    21.724167           90           90           90 
   81000    258.23072    -128.3815   -99.575476    -128.3815            0    630.73199     17.87007    21.048582    21.801444            0            0            0    8200.3871   -169.81389    1457.1271    604.88278   -142.15906    378.36043     1463.774     17.87007    21.048582    21.801444           90           90           90 
   81500    246.04229   -126.89954   -99.453155   -126.89954            0   -402.51527      17.8641    21.041549     21.79416            0            0            0    8192.1705   -865.33862   -2943.4766    2601.2694    967.93194    -1046.488    2184.0389      17.8641    21.041549     21.79416           90           90           90 
   82000    251.11717   -128.24115   -100.22865   -128.24115            0    1903.8411    17.763299    20.922819    21.671183            0            0            0     8054.275    1363.7295    859.19057    3488.6034   -1312.8276    -807.8223    1602.9368    17.763299    20.922819    21.671183           90           90           90 
   82500    262.69393   -126.65958   -97.355682   -126.65958            0   -1913.1332    17.861397    21.038366    21.790862            0            0            0    8188.4526    1711.2352    -5314.586   -2136.0488   -914.03132    1466.3929   -2655.1049    17.861397    21.038366    21.790862           90           90           90 
   83000    251.11666   -125.87385   -97.861405   -125.87385            0    115.17958    17.882644    21.063392    21.816784            0            0            0    8217.7095   -2508.4631    3212.9344   -358.93259    932.44559   -769.81256    1070.8857    17.882644    21.063392    21.816784           90           90           90 
   83500    257.34359   -127.55023   -98.843166   -127.55023            0   -562.54944      17.8062     20.97335    21.723521            0            0            0     8112.772   -4234.6607   -238.76178    2785.7742    734.16391   -460.31775    187.02847      17.8062     20.97335    21.723521           90           90           90 
   84000    258.47721     -125.933   -97.099477     -125.933            0    3039.1173    17.722819    20.875139    21.621797            0            0            0    7999.3363    2676.7911     1896.776    4543.7849    2688.1786   -1540.5015    4029.2249    17.722819    20.875139    21.621797           90           90           90 
   84500    256.12694   -126.90213   -98.330787   -126.90213            0    465.97089    17.786044     20.94961    21.698932            0            0            0    8085.2542   -820.01726    5269.5989   -3051.6689    1176.1473    928.96792    2503.0647    17.786044     20.94961    21.698932           90           90           90 
   85000    256.63736   -127.42537   -98.797086   -127.42537            0    1682.1579    17.898221     21.08174    21.835788            0            0            0    8239.2025    1641.4229    1833.1097    1571.9411    685.11791    1218.5866    -233.2343    17.898221     21.08174    21.835788           90           90           90 
   85500    261.95562   -126.76087   -97.539327   -126.76087            0    2784.9242     17.82386    20.994152    21.745067            0            0            0    8136.9348    2078.7241    3534.9611    2741.0873    2949.2522    1647.2308    -346.8272     17.82386    20.994152    21.745067           90           90           90 
   86000    261.95578   -128.60281   -99.381248   -128.60281            0    1701.6578    17.802701    20.969229    21.719253            0            0            0     8107.991    4715.4149    1764.5093   -1374.9508    106.54491   -1679.5171      2371.63    17.802701    20.969229    21.719253           90           90           90 
   86500      249.032   -128.07016   -100.29026   -128.07016            0    3600.3563     17.77025    20.931007    21.679663            0            0            0    8063.7341    2292.2968    2351.6623    6157.1099   -1181.3576    105.53034    2267.7367     17.77025    20.931007    21.679663           90           90           90 
   87000    245.50998   -128.77609   -101.38908   -128.77609            0   -1401.4575    17.878397     21.05839    21.811603            0            0            0    8211.8559   -465.24852   -2268.5759    -1470.548    1759.0495   -1174.2139    2297.4272    17.878397     21.05839    21.811603           90           90           90 
   87500    255.84963   -127.66786   -99.127445   -127.66786            0     2193.997    17.886052    21.067406    21.820941            0            0            0    8222.4083    2713.2699   -593.06254    4461.7837    643.43194    2099.9611    1310.9637    17.886052    21.067406    21.820941           90           90           90 
   88000    246.76296   -126.22958   -98.702801   -126.22958            0    1822.0234     17.86665    21.044553    21.797271            0            0            0     8195.679    507.75894    3708.4792    1249.8321    2006.6871   -1063.0961   -544.26606     17.86665    21.044553    21.797271           90           90           90 
   88500    247.49863   -126.62103   -99.012188   -126.62103            0    591.01843    17.927776    21.116552    21.871845            0            0            0    8280.0858     2266.963   -1167.2138    673.30612    509.24834   -1171.3422    926.83344    17.927776    21.116552    21.871845           90           90           90 
   89000    253.50462   -129.48808   -101.20926   -129.48808            0    1413.0976    17.768919    20.929439    21.678039            0            0            0    8061.9221    85.365985    4313.3779   -159.45122    1012.2637    1225.9466   -1027.1959    17.768919    20.929439    21.678039           90           90           90 
   89500    238.01394   -128.28052    -101.7297   -128.28052            0   -1460.0741     17.89254    21.075048    21.828857            0            0            0    8231.3592   -705.38244   -2120.6742   -1554.1657    -465.1172    545.66715   -870.93269     17.89254    21.075048    21.828857           90           90           90 
   90000    246.40513   -129.59615   -102.10928   -129.59615            0    1951.2216    17.905622    21.090456    21.844816            0            0            0    8249.4268   -977.47256    1977.6481    4853.4892    3030.2294   -2165.3716   -258.20447    17.905622    21.090456    21.844816           90           90           90 
   90500    253.31176   -128.11054    -99.85323   -128.11054            0    1687.7932    17.912638    21.098721    21.853376            0            0            0    8259.1283     4160.311    128.86287    774.20572    439.42852     411.9711   -1208.5199    17.912638    21.098721    21.853376           90           90           90 
   91000    253.23908   -127.86816   -99.618961   -127.86816            0    5342.9035    17.866827    21.044761    21.797486            0            0            0    8195.9221    6554.9286    4364.9808    5108.8011   -1325.6945   -2067.1861    1293.5879    17.866827    21.044761    21.797486           90           90           90 
   91500    240.66044   -129.15874   -102.31271   -129.15874            0    3450.0389    17.899002    21.082659     21.83674            0            0            0    8240.2801    4162.2627    2719.4546    3468.3995   -521.30059    2505.5641     106.7864    17.899002    21.082659     21.83674           90           90           90 
   92000     246.4903   -127.46077   -99.964408   -127.46077            0    64.471929    17.872884    21.051895    21.804876            0            0            0    8204.2606    642.85259   -1208.6014    759.16457   -1005.8156   -1439.4407    358.51606    17.872884    21.051895    21.804876           90           90           90 
   92500    245.96393   -127.12333   -99.685688   -127.12333            0    2148.2092    17.962259    21.157168    21.913914            0            0            0    8327.9566    1863.0718   -472.26827    5053.8241   -240.02498   -860.95493    385.96392    17.962259    21.157168    21.913914           90           90           90 
   93000    256.48756   -127.90267   -99.291096   -127.90267            0    316.69578    17.879387    21.059555     21.81281            0            0            0    8213.2192    764.88787    1296.8092   -1111.6097   -1018.8199    825.36647    2912.7881    17.879387    21.059555     21.81281           90           90           90 
   93500     252.1776   -128.52842   -100.39763   -128.52842            0    970.82046    17.764114    20.923779    21.672177            0            0            0     8055.383   -676.02722     386.1418    3202.3468   -876.44739    707.27567    830.92147    17.764114    20.923779    21.672177           90           90           90 
   94000    259.81604   -129.39436   -100.41149   -129.39436            0   -27.566038    17.855884    21.031872    21.784136            0            0            0    8180.8727   -2190.8219    905.47693    1202.6468   -745.02896    224.01218    739.03295    17.855884    21.031872    21.784136           90           90           90 
   94500     252.9995    -128.6002   -100.37773    -128.6002            0    2370.8272    17.871467    21.050226    21.803147            0            0            0    8202.3096    2607.2693    1861.5476    2643.6646   -1195.0665      2264.32    1145.8726    17.871467    21.050226    21.803147           90           90           90 
   95000    237.40083   -128.43957   -101.95715   -128.43957            0    542.90488    17.819421    20.988924    21.739652            0            0            0    8130.8574   -1150.9259    433.72726    2345.9133   -1062.4459    2320.3611    167.75781    17.819421    20.988924    21.739652           90           90           90 
   95500    244.12419   -126.85078   -99.618355   -126.85078            0    1211.5353    17.904796    21.089483    21.843808            0            0            0    8248.2852    1038.3076    37.618287      2558.68    1593.0478    1373.0118    1804.2382    17.904796    21.089483    21.843808           90           90           90 
   96000     259.5418   -127.48789   -98.535608   -127.48789            0    1238.6846    17.938454    21.129128    21.884872            0            0            0    8294.8894    3719.9571    1325.7697   -1329.6729    436.94073   -1768.1326   -842.69311    17.938454    21.129128    21.884872           90           90           90 
   96500    254.31581   -127.15265   -98.783337   -127.15265            0    1862.0152    17.825045    20.995548    21.746513            0            0            0    8138.5581    3270.5607    1216.6534    1098.8315    1063.9977    221.69581    1909.9313    17.825045    20.995548    21.746513           90           90           90 
   97000    246.58628   -127.13617   -99.629102   -127.13617            0   -2083.0499    17.984937     21.18388    21.941581            0            0            0    8359.5395   -775.50122    -2486.711   -2986.9374   -3659.1272   -1101.9808   -574.17969    17.984937     21.18388    21.941581           90           90           90 
   97500    252.34192   -127.09791   -98.948787   -127.09791            0    2710.5704    17.878655    21.058693    21.811916            0            0            0    8212.2102    3197.1164    2094.1336    2840.4613    1261.0616   -652.67712    1168.6935    17.878655    21.058693    21.811916           90           90           90 
   98000    253.41334   -128.49688   -100.22824   -128.49688            0    3022.8224    17.851453    21.026653     21.77873            0            0            0    8174.7835    4960.9123    1325.8454    2781.7096    597.58133    1995.2071    1041.2553    17.851453    21.026653     21.77873           90           90           90 
   98500    256.01412   -128.11965   -99.560893   -128.11965            0   -318.10538      17.9499     21.14261    21.898836            0            0            0    8310.7777   -2333.1834    1092.0193    286.84798   -425.77764    473.17592   -482.99685      17.9499     21.14261    21.898836           90           90           90 
   99000    255.23366    -128.1833   -99.711603    -128.1833            0   -1329.7569    17.881615     21.06218    21.815528            0            0            0    8216.2906    761.88645   -2403.5849   -2347.5724   -182.84099    -265.1607   -1135.2311    17.881615     21.06218    21.815528           90           90           90 
   99500    265.68041   -127.72832   -98.091273   -127.72832            0    1564.2917    17.918929     21.10613    21.861051            0            0            0    8267.8327    1571.6077     1506.493    1614.7743   -2194.9856    1078.1397   -1160.0805    17.918929     21.10613    21.861051           90           90           90 
  100000    253.22236   -127.63576   -99.388428   -127.63576            0    754.75998    18.033405    21.240968    22.000711            0            0            0     8427.306    812.22094    1828.7885   -376.72945     1506.129   -620.88373     1403.382    18.033405    21.240968    22.000711           90           90           90 
  100500    253.59314   -127.70039   -99.411696   -127.70039            0    2611.7324    17.920954    21.108515    21.863521            0            0            0    8270.6359    1754.0877    1404.6392    4676.4702   -1196.3383   -1964.9685    1062.3885    17.920954    21.108515    21.863521           90           90           90 
  101000    255.75519   -128.44878   -99.918899   -128.44878            0   -280.22606    17.942057    21.133373    21.889268            0            0            0    8299.8891   -801.84852   -9.2613352   -29.568331   -650.03039   -386.62287   -719.76793    17.942057    21.133373    21.889268           90           90           90 
  101500    247.76647   -126.95779   -99.319064   -126.95779            0   -608.05867    17.903452    21.087901    21.842169            0            0            0    8246.4282   -2510.5903    1052.4003   -365.98595    1874.9581   -2789.2187    414.31974    17.903452    21.087901    21.842169           90           90           90 
  102000    255.26597   -127.86866   -99.393354   -127.86866            0    1563.5685     17.84481    21.018828    21.770626            0            0            0     8165.661    2425.7521    -253.9259    2518.8792   -229.11183    2394.5829   -769.48132     17.84481    21.018828    21.770626           90           90           90 
  102500    255.81553   -128.67389   -100.13729   -128.67389            0   -2025.8655    17.851777    21.027034    21.779125            0            0            0    8175.2285   -1998.9803   -678.77432    -3399.842    -996.9577    226.70449   -977.30749    17.851777    21.027034    21.779125           90           90           90 
  103000    255.29134   -127.19203   -98.713895   -127.19203            0    788.49872    17.956568    21.150464     21.90697            0            0            0    8320.0425    737.40736    1406.8346    221.25421   -97.655562     785.4301     1898.149    17.956568    21.150464     21.90697           90           90           90 
  103500    259.27346   -128.93506   -100.01271   -128.93506            0    898.64021    17.895316    21.078318    21.832243            0            0            0     8235.191   -682.67685    914.13212    2464.4654   -1744.5684   -158.81973    2254.5359    17.895316    21.078318    21.832243           90           90           90 
  104000    248.34117   -126.43876   -98.735927   -126.43876            0   -2714.1237    17.902705     21.08702    21.841257            0            0            0    8245.3955   -3031.3714   -2491.0103   -2619.9894    1670.6152    2736.0725    889.04653    17.902705     21.08702    21.841257           90           90           90 
  104500    243.36352    -126.4154   -99.267836    -126.4154            0    1124.8678    17.868539    21.046777    21.799575            0            0            0    8198.2786    3656.4001   -3045.7722    2763.9754    840.43938    -1730.537   -3152.6728    17.868539    21.046777    21.799575           90           90           90 
  105000    260.71739   -127.28903   -98.205615   -127.28903            0     1940.198    17.839027    21.012017    21.763571            0            0            0    8157.7254    3171.4771      3018.35   -369.23315   -1029.2377   -1296.0103    930.97443    17.839027    21.012017    21.763571           90           90           90 
  105500    258.46771   -126.85273   -98.020264   -126.85273            0    137.54182    17.873852    21.053036    21.806057            0            0            0    8205.5941   -2087.1816    852.92283    1646.8842   -333.82467   -1097.3989   -1255.6026    17.873852    21.053036    21.806057           90           90           90 
  106000    247.95583   -126.59246   -98.932617   -126.59246            0   -54.812325    17.917564    21.104522    21.859385            0            0            0    8265.9434   -438.85525     -2452.88    2727.2983   -1521.5507   -491.26057    1835.4963    17.917564    21.104522    21.859385           90           90           90 
  106500     258.4264   -127.86603   -99.038174   -127.86603            0    604.80126    17.912643    21.098726    21.853382            0            0            0    8259.1351   -1532.3047    487.19081    2859.5176    1258.7702    3242.4635    581.67356    17.912643    21.098726    21.853382           90           90           90 
  107000    249.87194   -126.06281   -98.189224   -126.06281            0    94.234019    17.831734    21.003426    21.754673            0            0            0    8147.7237    2940.7799   -291.83718   -2366.2407   -955.16124    464.00183   -373.43791    17.831734    21.003426    21.754673           90           90           90 
  107500    251.86011    -126.3578   -98.262422    -126.3578            0    -1828.992    17.839812    21.012941    21.764529            0            0            0     8158.802    -3097.089   -3293.5634    903.67639    2430.3344    -1207.622   -1736.8688    17.839812    21.012941    21.764529           90           90           90 
  108000    262.14016   -127.06127   -97.819137   -127.06127            0    2279.1816    17.919786     21.10714    21.862096            0            0            0    8269.0193   -1507.1922    5766.9459    2577.7912    2730.7263    1660.6909   -2354.6144    17.919786     21.10714    21.862096           90           90           90 
  108500    268.11336   -127.12705   -97.218597   -127.12705            0    1742.6057     17.91663    21.103422    21.858246            0            0            0    8264.6511    2203.5952    303.07598    2721.1458   -169.67373    1646.4095   -19.557829     17.91663    21.103422    21.858246           90           90           90 
  109000     247.8158   -126.50542   -98.861196   -126.50542            0    5229.4325    17.857298    21.033537    21.785861            0            0            0    8182.8156    5112.2725    4476.8074    6099.2175    -66.80749   -255.21281   -484.64793    17.857298    21.033537    21.785861           90           90           90 
  109500    263.28858   -127.23641   -97.866171   -127.23641            0    950.75338    17.973847    21.170817    21.928051            0            0            0    8344.0847   -962.88856     1103.586    2711.5627    2771.6944    1954.0831    1891.4006    17.973847    21.170817    21.928051           90           90           90 
  110000    247.24087   -125.93783   -98.357737   -125.93783            0      1339.87    17.812709    20.981017    21.731463            0            0            0    8121.6723   -919.68299    4104.8657    834.42735    1257.9979   -783.11071   -1766.0536    17.812709    20.981017    21.731463           90           90           90 
  110500    259.41738   -128.75396   -99.815563   -128.75396            0    3324.3836    17.702687    20.851426    21.597236            0            0            0    7972.1072    3770.7376    2764.9591     3437.454    562.44507    288.05708   -1155.0448    17.702687    20.851426    21.597236           90           90           90 
  111000    247.50029   -126.45356   -98.844535   -126.45356            0   -1804.9399    17.935299    21.125413    21.881023            0            0            0    8290.5138   -3862.7331    656.66269   -2208.7492    946.67397   -1202.8422   -2564.8395    17.935299    21.125413    21.881023           90           90           90 
  111500    253.32256    -126.6089   -98.350384    -126.6089            0    220.25636    17.894945    21.077881    21.831791            0            0            0    8234.6788   -1056.5424    1012.2471     705.0644    636.70372    694.98545   -1085.5466    17.894945    21.077881    21.831791           90           90           90 
[...]
 1973500     266.2214    -129.1129   -99.415505    -129.1129            0    613.28847    17.837268    21.009944    21.761424            0            0            0    8155.3113    2216.1799   -639.56422    263.24976   -2335.3699    453.42404    277.34939    17.837268    21.009944    21.761424           90           90           90 
 1974000    254.02219    -127.9217   -99.585142    -127.9217            0     4374.452    17.804694    20.971577    21.721685            0            0            0    8110.7148    2365.3453    8149.9536    2608.0571    1294.2625   -737.66142   -1442.4468    17.804694    20.971577    21.721685           90           90           90 
 1974500    246.75291   -127.14769   -99.622032   -127.14769            0   -256.86193    17.793731    20.958664     21.70831            0            0            0    8095.7416   -850.33191    495.33449   -415.58838    341.46769    973.92068    1656.1645    17.793731    20.958664     21.70831           90           90           90 
 1975000    245.95591   -127.77958   -100.34283   -127.77958            0    814.52052    17.700736    20.849128    21.594856            0            0            0    7969.4718    3120.5538   -662.43558    -14.55667   -727.02519   -1317.6102    200.29569    17.700736    20.849128    21.594856           90           90           90 
 1975500    247.96998   -127.76278   -100.10136   -127.76278            0    2109.8546    17.734179     20.88852    21.635657            0            0            0    8014.7288    3508.8071    843.81871    1976.9381   -591.20149    978.77709    -1179.768    17.734179     20.88852    21.635657           90           90           90 
 1976000     240.7176   -125.67084   -98.818425   -125.67084            0   -845.48769      17.8164    20.985365    21.735966            0            0            0    8126.7226   -4936.9324    1609.1814    791.28794   -432.97119   -401.94293   -1393.8041      17.8164    20.985365    21.735966           90           90           90 
 1976500    253.72149   -126.66948   -98.366469   -126.66948            0   -207.14804    17.752417    20.910002    21.657907            0            0            0    8039.4818    1258.7369     1190.045    -3070.226    1242.8493    2111.4132    3821.6725    17.752417    20.910002    21.657907           90           90           90 
 1977000    253.46078   -127.39164   -99.117711   -127.39164            0    262.55533    17.749346    20.906384     21.65416            0            0            0    8035.3099   -2120.6719    1170.0002    1738.3376   -1545.1541    719.83906   -759.74491    17.749346    20.906384     21.65416           90           90           90 
 1977500    258.76609   -127.11856   -98.252808   -127.11856            0    1004.6636    17.784665    20.947985    21.697249            0            0            0    8083.3728    3965.9232    657.99797   -1609.9304   -379.06021   -858.82809    2441.9987    17.784665    20.947985    21.697249           90           90           90 
 1978000      258.201   -126.74181   -97.939097   -126.74181            0    2574.5423     17.70241      20.8511    21.596898            0            0            0    7971.7327    2210.3388    3486.1388    2027.1492    3206.3546   -2297.0766    150.45669     17.70241      20.8511    21.596898           90           90           90 
 1978500    262.31523   -127.04904   -97.787386   -127.04904            0    2673.0344     17.72455    20.877178    21.623909            0            0            0     8001.681    616.54666    4024.4305    3378.1261   -831.65049    2669.3891     -778.239     17.72455    20.877178    21.623909           90           90           90 
 1979000    255.14517    -127.1041   -98.642274    -127.1041            0   -1081.4711    17.767411    20.927662    21.676199            0            0            0     8059.869   -3621.5631   -921.41045    1298.5604    550.51404    716.60879     2033.345    17.767411    20.927662    21.676199           90           90           90 
 1979500    264.74553   -126.48703   -96.954268   -126.48703            0    1902.5939    17.669236    20.812025    21.556426            0            0            0    7927.0005    476.82676    3105.0817    2125.8734   -702.74826    2470.7419     -838.794    17.669236    20.812025    21.556426           90           90           90 
 1980000    254.87316   -125.92977   -97.498281   -125.92977            0    271.58954    17.750844    20.908148    21.655988            0            0            0    8037.3443   -1169.3823    1983.5464   0.60450969   -349.83754    1147.4713   -532.53584    17.750844    20.908148    21.655988           90           90           90 
 1980500    259.56917   -127.35709   -98.401757   -127.35709            0      491.763    17.776466    20.938328    21.687246            0            0            0    8072.1984    1184.7783   -136.27692    426.78767      1705.19     1595.126    17.919478    17.776466    20.938328    21.687246           90           90           90 
 1981000    265.82008   -127.18775   -97.535116   -127.18775            0    133.47085    17.748663     20.90558    21.653327            0            0            0    8034.3823    1059.3894    563.49152   -1222.4683   -592.67385   -330.57552    53.464814    17.748663     20.90558    21.653327           90           90           90 
 1981500    251.82979   -126.37087   -98.278878   -126.37087            0    1049.2688     17.68029    20.825046    21.569912            0            0            0    7941.8875     2570.692   -2799.3305     3376.445    347.83144   -424.88776    1691.8158     17.68029    20.825046    21.569912           90           90           90 
 1982000    259.67349   -125.48919   -96.522217   -125.48919            0    3982.4814    17.790504    20.954863    21.704373            0            0            0    8091.3372    3652.7591    4417.8956    3876.7895   -1066.4136     1229.375    -3434.805    17.790504    20.954863    21.704373           90           90           90 
 1982500    246.50887   -126.69163   -99.193194   -126.69163            0   -1157.3169    17.835477    21.007836     21.75924            0            0            0    8152.8561   -2333.6077   -1518.5465    380.20345    2202.4967   -101.90013    962.40591    17.835477    21.007836     21.75924           90           90           90 
 1983000    270.43569   -128.70905   -98.541543   -128.70905            0    640.28603    17.756402    20.914696    21.662769            0            0            0    8044.8972   -2268.7996    1155.7916     3033.866    941.47061   -3418.9113   -1005.4299    17.756402    20.914696    21.662769           90           90           90 
 1983500    252.63716   -127.33069   -99.148635   -127.33069            0    1486.7662    17.625326    20.760305    21.502856            0            0            0    7868.0482    391.77296    1174.1697    2894.3559    1713.0059   -652.06439   -803.37914    17.625326    20.760305    21.502856           90           90           90 
 1984000    250.79338   -127.68614   -99.709763   -127.68614            0   -803.40413    17.709355     20.85928    21.605371            0            0            0    7981.1186   -3025.9468   -1303.0256      1918.76   -1801.9977    793.39042   -839.29303    17.709355     20.85928    21.605371           90           90           90 
 1984500    261.93696   -126.92337   -97.703907   -126.92337            0    1509.0722    17.808009    20.975482    21.725729            0            0            0    8115.2458    2881.0472    2922.7354    -1276.566    1032.6219    1795.9973   -1883.2399    17.808009    20.975482    21.725729           90           90           90 
 1985000    263.60974    -126.2832   -96.877136    -126.2832            0    2797.1469    17.726109    20.879015    21.625812            0            0            0    8003.7928    4359.1973    845.91942     3186.324    1323.9446    459.67757   -713.42412    17.726109    20.879015    21.625812           90           90           90 
 1985500    256.64541   -127.19088   -98.561696   -127.19088            0    2518.9427    17.705431    20.854658    21.600584            0            0            0    7975.8147    4775.9744    2950.7668   -169.91311    777.97397   -646.08227     1038.821    17.705431    20.854658    21.600584           90           90           90 
 1986000    259.72492    -127.9593   -98.986589    -127.9593            0    278.61982    17.647575    20.786512        21.53            0            0            0    7897.8831   -301.81399    1175.4737   -37.800267    531.92368    2220.6944    -1971.558    17.647575    20.786512        21.53           90           90           90 
 1986500    256.87266   -126.55172   -97.897186   -126.55172            0    467.33769    17.745165    20.901459    21.649059            0            0            0    8029.6325    1864.8643    486.16844   -949.01965    299.85007   -635.82309    -276.7386    17.745165    20.901459    21.649059           90           90           90 
 1987000    254.85428   -127.16673   -98.737349   -127.16673            0   -439.01333    17.800104    20.966171    21.716085            0            0            0    8104.4435   -804.54321   -2208.0996    1695.6029   -453.24107    1650.2044   -3362.9594    17.800104    20.966171    21.716085           90           90           90 
 1987500    255.61241   -128.41218   -99.898227   -128.41218            0   -182.99326    17.795154     20.96034    21.710045            0            0            0    8097.6834   -3628.4184    735.97776    2343.4609    -748.9842   -4.5120149   -344.52711    17.795154     20.96034    21.710045           90           90           90 
 1988000    264.03163   -125.09597   -95.642846   -125.09597            0   -694.15305    17.850257    21.025244    21.777272            0            0            0    8173.1413   -1416.6604    -896.5382    230.73947   -1623.4301   -476.98484    886.40407    17.850257    21.025244    21.777272           90           90           90 
 1988500    264.22359   -125.59095   -96.116409   -125.59095            0   -86.086678    17.850544    21.025582    21.777621            0            0            0    8173.5349   -279.12815    76.375599   -55.507478    1008.5647   -353.24805    472.17937    17.850544    21.025582    21.777621           90           90           90 
 1989000    249.62487   -126.88948   -99.043447   -126.88948            0     596.9588    17.769253    20.929832    21.678447            0            0            0    8062.3768    2963.1823   -2850.8374    1678.5315     1084.793   -877.79694   -1099.3777    17.769253    20.929832    21.678447           90           90           90 
 1989500    250.06768   -127.57283   -99.677404   -127.57283            0     841.0256    17.792474    20.957184    21.706777            0            0            0    8094.0263    435.45283      3786.81    -1699.186    419.76988   -1133.9427    404.30138    17.792474    20.957184    21.706777           90           90           90 
 1990000    260.55828   -127.92817   -98.862501   -127.92817            0    1082.9644    17.819542    20.989066    21.739799            0            0            0    8131.0229    1851.2016    2432.9024   -1035.2107   -1769.0395    20.711944    273.88151    17.819542    20.989066    21.739799           90           90           90 
 1990500    254.96222   -127.92082   -99.479396   -127.92082            0    790.18687    17.762071    20.921372    21.669684            0            0            0    8052.6041   -2312.2517    2176.7395    2506.0729   -1296.9605    649.00906   -1448.5811    17.762071    20.921372    21.669684           90           90           90 
 1991000    245.53296   -129.65942   -102.26984   -129.65942            0    441.48292    17.789146    20.953263    21.702716            0            0            0    8089.4846    335.22014    -1060.363    2049.5917    207.80822   -990.72818   -905.57314    17.789146    20.953263    21.702716           90           90           90 
 1991500    265.88111   -128.45564     -98.7962   -128.45564            0     233.8918    17.818575    20.987926    21.738619            0            0            0    8129.6987   -1196.7902     3648.152   -1749.6864     -1778.89   -281.47168   -899.91968    17.818575    20.987926    21.738619           90           90           90 
 1992000    252.17769    -128.6232   -100.49239    -128.6232            0    3941.9724    17.705547    20.854795    21.600726            0            0            0    7975.9723    1590.0929    6608.7021    3627.1222    -1414.244    1325.4871    568.28533    17.705547    20.854795    21.600726           90           90           90 
 1992500    245.75017   -127.24684   -99.833037   -127.24684            0     1365.278    17.748036    20.904841    21.652562            0            0            0    8033.5309    2448.2581   -783.21249    2430.7883   -438.44667    4482.7391   -419.41799    17.748036    20.904841    21.652562           90           90           90 
 1993000    256.70116   -128.40405   -99.768645   -128.40405            0    2895.6534    17.817581    20.986755    21.737406            0            0            0    8128.3379     3505.189    4883.0808    298.69035    291.42705   -1787.1083    681.86014    17.817581    20.986755    21.737406           90           90           90 
 1993500    257.44088   -128.75841   -100.04049   -128.75841            0    2134.6938    17.782515    20.945453    21.694626            0            0            0    8080.4416    3951.2374    2646.2114   -193.36736   -2893.8951    3145.8298    1006.8736    17.782515    20.945453    21.694626           90           90           90 
 1994000    250.73468   -127.76826   -99.798425   -127.76826            0    1825.4103    17.767147    20.927351    21.675877            0            0            0    8059.5095    2688.8356     2799.015   -11.619845   -1619.7898    215.19208   -2743.5101    17.767147    20.927351    21.675877           90           90           90 
 1994500    244.22486   -127.46838   -100.22473   -127.46838            0     1060.301    17.781996    20.944841    21.693993            0            0            0     8079.734    3383.5183    415.11905   -617.73434    -4985.873   -1145.2919    2492.1906    17.781996    20.944841    21.693993           90           90           90 
 1995000    254.13084   -128.36131   -100.01263   -128.36131            0     1610.016    17.919695    21.107032    21.861985            0            0            0     8268.893    954.39686   -727.60667    4603.2577    1430.5385   -2964.6367   -1522.9439    17.919695    21.107032    21.861985           90           90           90 
 1995500    250.32197     -129.148   -101.22421     -129.148            0    3045.1767    17.733264    20.887442    21.634541            0            0            0    8013.4885    896.31794    6700.4835    1538.7287   -1296.6413     224.1742   -1348.5722    17.733264    20.887442    21.634541           90           90           90 
 1996000    257.27393   -128.98391   -100.28462   -128.98391            0    994.13973    17.845612    21.019773    21.771604            0            0            0     8166.762    4710.3485   -790.41825   -937.51101   -309.98176   -1127.6537    272.81844    17.845612    21.019773    21.771604           90           90           90 
 1996500    262.31295   -128.82336   -99.561952   -128.82336            0    2056.1338    17.928987    21.117977    21.873321            0            0            0    8281.7629    1029.8085    2473.8295    2664.7633    489.59157   -1476.7589   -2111.7045    17.928987    21.117977    21.873321           90           90           90 
 1997000    250.59209   -127.67522     -99.7213   -127.67522            0    2611.1113    17.832048    21.003796    21.755056            0            0            0    8148.1542    6590.1476   -1657.2317     2900.418   -580.56555    1250.1881    1478.1862    17.832048    21.003796    21.755056           90           90           90 
 1997500    255.20396   -127.81334    -99.34495   -127.81334            0    1017.4296    17.825162    20.995686    21.746656            0            0            0    8138.7185   -904.30952    2046.6919    1909.9065   -787.22471    -189.0553   -1007.7905    17.825162    20.995686    21.746656           90           90           90 
 1998000    244.80802   -128.17831   -100.86961   -128.17831            0   -684.75584    17.901717    21.085857    21.840053            0            0            0    8244.0312   -959.59725   -151.53825   -943.13203    -1185.397   -530.58126    3201.9944    17.901717    21.085857    21.840053           90           90           90 
 1998500    252.51352   -128.35406   -100.18579   -128.35406            0   -57.170879    17.827905    20.998916    21.750001            0            0            0    8142.4755   -3224.7822   -383.93644     3437.206    2260.7265    1331.1973   -1268.1682    17.827905    20.998916    21.750001           90           90           90 
 1999000    252.98367   -129.67941    -101.4587   -129.67941            0   -212.53572    17.787462     20.95128    21.700661            0            0            0    8087.1873   -1455.3544    1217.5753   -399.82807   -2037.0414    1998.3862    1004.3934    17.787462     20.95128    21.700661           90           90           90 
 1999500    260.27255   -127.93873   -98.904939   -127.93873            0    -1560.176    17.798124    20.963839     21.71367            0            0            0    8101.7394   -3117.5109   -43.147247     -1519.87    2673.0228   -949.48179    336.65819    17.798124    20.963839     21.71367           90           90           90 
 2000000    252.35043   -127.22743   -99.077355   -127.22743            0    1276.2115    17.758736    20.917444    21.665616            0            0            0     8048.069    1836.9619    551.01501    1440.6577   -1141.3839    2943.6706   -974.98709    17.758736    20.917444    21.665616           90           90           90 
Loop time of 11033.9 on 1 procs for 2000000 steps with 864 atoms

Performance: 7.830 ns/day, 3.065 hours/ns, 181.260 timesteps/s
73.5% CPU use with 1 MPI tasks x 1 OpenMP threads

MPI task timing breakdown:
Section |  min time  |  avg time  |  max time  |%varavg| %total
---------------------------------------------------------------
Pair    | 9614.9     | 9614.9     | 9614.9     |   0.0 | 87.14
Bond    | 0.37299    | 0.37299    | 0.37299    |   0.0 |  0.00
Neigh   | 1293.3     | 1293.3     | 1293.3     |   0.0 | 11.72
Comm    | 44.802     | 44.802     | 44.802     |   0.0 |  0.41
Output  | 9.9468     | 9.9468     | 9.9468     |   0.0 |  0.09
Modify  | 62.136     | 62.136     | 62.136     |   0.0 |  0.56
Other   |            | 8.439      |            |       |  0.08

Nlocal:        864.000 ave         864 max         864 min
Histogram: 1 0 0 0 0 0 0 0 0 0
Nghost:        4172.00 ave        4172 max        4172 min
Histogram: 1 0 0 0 0 0 0 0 0 0
Neighs:         0.00000 ave           0 max           0 min
Histogram: 1 0 0 0 0 0 0 0 0 0
FullNghs:      198378.0 ave      198378 max      198378 min
Histogram: 1 0 0 0 0 0 0 0 0 0

Total # of neighbors = 198378
Ave neighs/atom = 229.60417
Ave special neighs/atom = 0.0000000
Neighbor list builds = 200000
Dangerous builds not checked

unfix		3
unfix		2

write_data	data.final.${pid}
write_data	data.final.0
System init for write_data ...

write_restart   restart.lmp.${pid}
write_restart   restart.lmp.0
System init for write_restart ...
Unloading pair style deepmd
Unloading compute style deepmd
Unloading fix style deepmd
Total wall time: 3:03:56
