LAMMPS data file via write_data, version 29 Sep 2021, timestep = 400000

1008 atoms
2 atom types

0.18116802124875342 18.21838697875233 xlo xhi
-0.003387547522306633 22.573776547522524 ylo yhi
-0.0361085763078659 19.5418245763098 zlo zhi
-0.10523315821133737 -6.505903806140245 -0.0009289681366430283 xy xz yz

Masses

1 1.008
2 15.999

Atoms # full

1 0 1 0 6.624960451894678 1.155547283558286 4.727118227101696 0 0 0
2 0 2 0 6.859697021927852 1.8813032307105604 5.314121487382673 0 0 0
3 0 2 0 5.6352928104347875 1.110404503560626 4.825717704669945 0 0 0
4 0 1 0 3.880325618311714 1.0940239328753978 4.959074579749178 0 0 0
5 0 2 0 3.1675483665276385 0.42985185008533267 5.19058208404027 0 0 0
6 0 2 0 3.7068703407374812 1.8432494690990366 4.371019841532544 0 0 0
7 0 1 0 -0.7606684879432745 6.487568555685633 4.789153205982538 0 0 0
8 0 2 0 -0.5085524871387679 6.060159984515282 5.667684875395355 0 0 0
9 0 2 0 -0.6118340536063349 5.808124818892044 4.10777017543985 0 0 0
10 0 1 0 2.2492343631906806 6.387543376823447 4.276403939031603 0 0 0
11 0 2 0 2.0444032960621894 5.639524265415036 4.87177284912926 0 0 0
12 0 2 0 1.4243016624376785 6.803106049891472 4.078149564897539 0 0 0
13 0 1 0 5.163734952408689 4.665909063652041 8.974543948363916 0 0 0
14 0 2 0 4.236975823061604 4.319363785003486 9.145873932418848 0 0 0
15 0 2 0 5.275923621969421 5.485884817912382 9.515012152151224 0 0 0
16 0 1 0 5.669242707816447 5.193815519075872 0.19581580962986922 0 0 0
17 0 2 0 -0.008907062000599097 4.864173944459819 19.444741795077896 0 0 -1
18 0 2 0 5.0752585260692396 4.4186921350538455 0.06236962813456576 0 0 0
19 0 1 0 -5.296687804118407 2.643157101922171 19.450695204596883 0 0 -1
20 0 2 0 -5.365330036072241 1.8217326877591071 18.91834423648983 0 0 -1
21 0 2 0 1.163255924800068 2.3339977555132037 0.7696723447805222 0 0 0
22 0 1 0 0.724097586699965 2.6407350222697756 9.513422614053136 0 0 0
23 0 2 0 1.1288444899692736 2.066811939103406 10.168075303320192 0 0 0
24 0 2 0 1.277843671530063 3.4631595302205853 9.588854493405341 0 0 0
25 0 1 0 4.829959698770416 6.434503453470631 6.7930040419383495 0 0 0
26 0 2 0 5.006165180849376 6.048296003680573 5.881010037936706 0 0 0
27 0 2 0 5.036117618784308 5.750708929329165 7.457364093360894 0 0 0
28 0 1 0 5.62934315140558 6.879524398101172 2.3462262701772714 0 0 0
29 0 2 0 4.892297183365795 7.47062575718438 2.219493339126609 0 0 0
30 0 2 0 5.543034658967849 6.313472084454843 1.5808971497865172 0 0 0
31 0 1 0 1.5709597499662067 1.2729247250802154 2.1941956039265196 0 0 0
32 0 2 0 1.3245406026358628 1.6155484662032222 3.099624189746775 0 0 0
33 0 2 0 0.9191870514793424 0.5391287077438739 2.0412892167695955 0 0 0
34 0 1 0 0.32365650744701346 1.136890589668736 7.207175345526548 0 0 0
35 0 2 0 0.48947964140553246 1.7915025613571618 7.961428630938202 0 0 0
36 0 2 0 -0.6313026271968809 0.9897178615845703 7.373485115702414 0 0 0
37 0 1 0 6.696423901109223 2.470212333371302 2.379112780371155 0 0 0
38 0 2 0 6.847488190710605 2.018788318216162 1.5644289599260128 0 0 0
39 0 2 0 6.605036468932278 1.8578362492994045 3.1311176238429197 0 0 0
40 0 1 0 4.167357271201087 2.553593770116739 7.275344800695989 0 0 0
41 0 2 0 4.133491963833247 1.8070226304695411 6.650377248008335 0 0 0
42 0 2 0 4.0351371777611025 2.156752256683592 8.149652408474909 0 0 0
43 0 1 0 -0.29583703313409115 5.11895134076137 7.422775808996299 0 0 0
44 0 2 0 -0.1760009514419565 5.2052166954169135 8.336321013104012 0 0 0
45 0 2 0 0.484462600877412 4.661085092695152 7.0528999458805846 0 0 0
46 0 1 0 2.385349382819377 4.785210947645855 1.9540157071358402 0 0 0
47 0 2 0 2.640547297122313 5.371037865522858 1.2366043515039662 0 0 0
48 0 2 0 2.4718352099606884 5.309582818119234 2.756238340538165 0 0 0
49 0 1 0 6.678416813317127 3.5209070428127967 6.153832587040164 0 0 0
50 0 2 0 6.001660187908284 3.57999844259425 6.848450852388173 0 0 0
51 0 2 0 6.424433353197383 4.129536265262757 5.441614875235116 0 0 0
52 0 1 0 4.264910540660692 3.108062854237759 3.018469408802377 0 0 0
53 0 2 0 5.105577161381892 2.9233467372789312 2.5354037016117643 0 0 0
54 0 2 0 3.595571375073791 3.564953923285464 2.519270275808378 0 0 0
55 0 1 0 -0.3728345688499173 4.2744718142546905 3.1699135083355325 0 0 0
56 0 2 0 16.860126927640923 4.063713978133284 2.721785729759505 -1 0 0
57 0 2 0 0.36278614329025904 4.148643077961344 2.525687534297806 0 0 0
58 0 1 0 2.065012743468319 4.3065353289848325 5.9898248753959 0 0 0
59 0 2 0 1.622765272985343 3.5380083555358235 5.466744059116286 0 0 0
60 0 2 0 2.8382761558807306 4.086900355434718 6.464889127148279 0 0 0
61 0 1 0 8.586457990877708 6.944511193348455 1.5064628047312507 0 0 0
62 0 2 0 8.153169322134385 7.668293843158745 0.9993860635912777 0 0 0
63 0 2 0 7.945087456167766 6.6752481119761224 2.147900905487161 0 0 0
64 0 1 0 2.5594895757991067 7.027997961638388 8.161977861528605 0 0 0
65 0 2 0 3.0686906701649943 7.76519913750023 8.56560825429751 0 0 0
66 0 2 0 3.265821823687354 6.711641640991978 7.620574903192562 0 0 0
67 0 1 0 -2.0941188713271286 0.8790066517073781 8.472098516915604 0 0 0
68 0 2 0 15.119591706237642 0.44868265509946825 8.225411714942105 -1 0 0
69 0 2 0 -2.153044304732405 1.5366257875230411 9.204089092110845 0 0 0
70 0 1 0 4.082466843462959 0.4154272747989263 1.268834798519759 0 0 0
71 0 2 0 3.480733395939449 0.7792586503508818 1.980325823309768 0 0 0
72 0 2 0 4.7219980818120035 22.502373241514775 1.7034652962000216 0 -1 0
73 0 1 0 5.229642065088749 5.191014408091374 4.507083950395856 0 0 0
74 0 2 0 4.91342738350003 4.402060883213308 3.9790928624377218 0 0 0
75 0 2 0 5.394394927665788 5.883295655088866 3.8483036153190393 0 0 0
76 0 1 0 0.6445476171084421 2.247471799332567 4.693774413500608 0 0 0
77 0 2 0 0.2392199733715954 1.6297958930876861 5.327081234077663 0 0 0
78 0 2 0 -0.13866730779908432 2.7189525794587097 4.2877677825330665 0 0 0
79 0 1 0 6.953057151822587 0.9971036649104426 0.06602334177656578 0 0 0
80 0 2 0 -0.2140142333434536 0.3765410593249818 19.334149062014014 0 0 -1
81 0 2 0 7.684262155779283 0.48376396078017125 0.39949643324738926 0 0 0
82 0 1 0 -3.9717230428976915 6.232934773346018 19.10946908171622 0 0 -1
83 0 2 0 -4.618673274552158 6.878187580372445 18.820486598098732 0 0 -1
84 0 2 0 -3.7401903009008186 5.691624697173267 18.26744423566268 0 0 -1
85 0 1 0 15.59075639022572 1.4394355964205443 4.997359084888309 0 0 0
86 0 2 0 15.716934343638009 1.452112211577897 4.060580954143267 0 0 0
87 0 2 0 14.714561906519888 1.0752138831740492 5.106577002412074 0 0 0
88 0 1 0 12.823424043981253 0.7575634573103998 5.092666408348509 0 0 0
89 0 2 0 12.183376539885163 0.07749980171971896 4.860058456781103 0 0 0
90 0 2 0 12.624194963487541 1.0741410148263884 5.9658770574557405 0 0 0
91 0 1 0 8.524724485204263 6.557482934894594 4.744501452344663 0 0 0
92 0 2 0 7.898346232074364 7.273600684772572 4.573632963707134 0 0 0
93 0 2 0 8.21279984681883 5.724398449432997 4.324898683481158 0 0 0
94 0 1 0 11.380428763969363 6.096609182136914 4.758710779454525 0 0 0
95 0 2 0 10.518829301104596 6.531758438632804 4.841439042729185 0 0 0
96 0 2 0 12.03490671537193 6.798270465238884 4.86005403041777 0 0 0
97 0 1 0 14.23477673549615 4.6915298853064185 9.891611193544774 0 0 0
98 0 2 0 14.017803872181243 5.0090308468108615 9.015922039460074 0 0 0
99 0 2 0 14.180264311513493 5.50899011018306 10.459721929624402 0 0 0
100 0 1 0 14.92924227954097 4.745657764519119 -0.011174397818250359 0 0 0
101 0 2 0 15.871386810137187 4.61521950540973 0.04260487724251423 0 0 0
102 0 2 0 8.326653379490725 5.636404480836601 19.161741452858834 0 0 -1
103 0 1 0 3.521257878388548 2.9056085988259897 19.451020918380188 0 0 -1
104 0 2 0 2.8346769942205787 3.589308393786557 19.3106083012607 0 0 -1
105 0 2 0 4.422771311688202 3.2454138231363325 19.301787480860575 0 0 -1
106 0 1 0 9.294677376316434 3.1099031755321698 9.447385827743913 0 0 0
107 0 2 0 9.192131307473545 2.74978044993533 8.579060432021064 0 0 0
108 0 2 0 9.442976465492652 2.248911573796234 9.942284166464535 0 0 0
109 0 1 0 13.55602860944157 6.203882054775451 7.61622681503335 0 0 0
110 0 2 0 13.723971282848606 6.046714952457423 6.648946646231366 0 0 0
111 0 2 0 12.63723078291285 6.477668338810177 7.692063569352055 0 0 0
112 0 1 0 14.9664258613736 6.06145035867875 2.758040422135798 0 0 0
113 0 2 0 14.617381821256593 5.917297522986738 3.6568078128340016 0 0 0
114 0 2 0 14.624254829600938 5.342009929736052 2.241876266802424 0 0 0
115 0 1 0 10.368945688590971 1.432085025210138 2.4115371750814494 0 0 0
116 0 2 0 11.324829259908228 1.2795750543657758 2.244472156850209 0 0 0
117 0 2 0 10.184190353472165 2.047594187706583 1.6735626752217334 0 0 0
118 0 1 0 9.149462733766937 1.468272884051449 7.4587739631663466 0 0 0
119 0 2 0 9.214691119262868 1.7245826680270733 6.556621106246552 0 0 0
120 0 2 0 9.710449568674576 0.6942616357090092 7.654818963473622 0 0 0
121 0 1 0 15.403595927257184 2.6124730545555734 2.5152018554878617 0 0 0
122 0 2 0 15.416310366791281 2.085640557765678 1.6894387948117464 0 0 0
123 0 2 0 14.5230342620493 2.9587824090835553 2.54801818353506 0 0 0
124 0 1 0 13.134312197030514 2.597243176599342 7.295164680219983 0 0 0
125 0 2 0 12.385152519593628 3.158286951183661 7.1610546777159865 0 0 0
126 0 2 0 13.9202561280144 3.1737611592740076 7.184457580523734 0 0 0
127 0 1 0 8.423382832973413 5.358401817720454 7.2314142868881826 0 0 0
128 0 2 0 8.34196798117231 5.889952303274265 6.407064372334458 0 0 0
129 0 2 0 7.787889279607747 4.709695515478934 6.954185290601343 0 0 0
130 0 1 0 10.938644206139559 4.701443433027123 2.402552595744093 0 0 0
131 0 2 0 9.950178472182012 4.555347466698964 2.437908738496364 0 0 0
132 0 2 0 11.167532096157252 5.217860101716159 3.2283086695266405 0 0 0
134 0 2 0 15.930454392605988 2.8236164223535907 6.545679771092346 0 0 0
135 0 2 0 -1.8789170879655397 4.082502605644487 7.352035567115393 1 0 0
136 0 1 0 12.70418114407104 3.220322261710967 3.7265676221054154 0 0 0
137 0 2 0 11.919565781759143 3.5293654922627637 3.280435507022741 0 0 0
138 0 2 0 12.57542298971199 2.3664269132125964 4.191588898832138 0 0 0
139 0 1 0 8.280254220072553 4.3814760198292335 3.199729734083564 0 0 0
140 0 2 0 7.5819625055909885 3.836675345121429 2.761449127859789 0 0 0
141 0 2 0 8.714957777404248 3.7907739548096178 3.8345051873700506 0 0 0
142 0 1 0 10.998832353545247 4.139525011639061 6.4640715818709324 0 0 0
143 0 2 0 11.43626656457422 4.871673754315386 5.992941513921824 0 0 0
144 0 2 0 10.445941798150685 4.398819336835989 7.1843223407961965 0 0 0
146 0 2 0 16.5775795686194 6.782093709171042 2.2244883573300585 0 0 0
147 0 2 0 16.806309634305933 7.6542876962412585 0.988297850683119 0 0 0
148 0 1 0 11.15804373934647 6.997868621653111 8.305157540474312 0 0 0
149 0 2 0 10.956080296282577 6.314031129123198 8.973659924421902 0 0 0
150 0 2 0 10.327304649463924 7.369556848415534 7.933077703316289 0 0 0
151 0 1 0 6.7010672648618765 0.33251531152145464 8.389760843526156 0 0 0
152 0 2 0 7.538307340964197 0.6257716633909685 7.994480326817305 0 0 0
153 0 2 0 6.426470661079541 1.0690348592467482 8.965328721561518 0 0 0
154 0 1 0 12.922997699830788 0.7118436563199172 1.858594728993589 0 0 0
155 0 2 0 13.086488225445098 1.3997993446620456 1.2244585246937965 0 0 0
156 0 2 0 12.655448268789803 0.02913957003288867 1.1969158922413772 0 0 0
157 0 1 0 14.163431257421378 5.281473259116819 5.065548058750097 0 0 0
158 0 2 0 13.498931149020093 4.5970898730847605 4.913933344347926 0 0 0
159 0 2 0 14.918031781298232 4.81437281982105 5.49439693454189 0 0 0
160 0 1 0 9.581421213744397 2.426929151228188 4.899413124667925 0 0 0
161 0 2 0 10.242736185149663 2.928052386846003 5.374539413547258 0 0 0
162 0 2 0 10.006914892194178 2.0661430382620747 4.092065748699832 0 0 0
163 0 1 0 15.872926482939855 1.1195233954743353 0.27032394936517135 0 0 0
164 0 2 0 9.70300938949836 1.6651151858393474 19.158049921209823 0 0 -1
165 0 2 0 8.804600677855362 0.43390679765110024 19.431857645639617 0 0 -1
166 0 1 0 11.423264011444788 6.009738312603234 0.03854689001353842 0 0 0
167 0 2 0 11.237695286810851 5.407592843519797 0.8584146470338242 0 0 0
168 0 2 0 10.657802524337402 6.5721062608942065 -0.0021887336531609264 0 0 0
169 0 1 0 6.884505443034467 8.543170408178753 4.650701721975367 0 0 0
170 0 2 0 5.934487903233883 8.367415986369732 4.798583139610205 0 0 0
171 0 2 0 7.064856521878741 9.201998210939465 5.368196901558624 0 0 0
172 0 1 0 3.923625000194834 8.455864569712546 5.092596228698558 0 0 0
173 0 2 0 3.464921630131157 7.699385664681906 4.749105843143025 0 0 0
174 0 2 0 3.677655394044332 9.16249075109064 4.445294235452019 0 0 0
175 0 1 0 -0.8401240766608993 13.463180334649378 5.172533446490381 0 0 0
176 0 2 0 -1.4996346747997369 14.134311409795764 5.024276670167557 0 0 0
177 0 2 0 0.03732985928303134 13.778331643261437 4.820630671117679 0 0 0
178 0 1 0 2.0117888630803096 13.679134248041589 4.629124579284605 0 0 0
179 0 2 0 2.1262993970368287 12.989081083693772 5.286497635352963 0 0 0
180 0 2 0 2.029567931274441 13.263316498695305 3.784039278459078 0 0 0
181 0 1 0 5.125519309761275 12.049201166479694 9.506933531149919 0 0 0
182 0 2 0 5.349091888919772 12.763219990087117 10.176097687029799 0 0 0
183 0 2 0 5.7876860976070414 11.337345182152974 9.706346373008287 0 0 0
184 0 1 0 5.6532161308297875 12.485074947730105 0.13964611458097512 0 0 0
185 0 2 0 -1.1212254217071962 13.223016879976889 19.13204349200283 0 0 -1
186 0 2 0 0.07096555373735391 12.333612567300861 19.412002916710215 0 0 -1
187 0 1 0 -5.833508579025586 10.684282047326004 19.43636300657962 0 0 -1
188 0 2 0 0.6843196135301353 10.170763147166374 0.731327963397334 0 0 0
189 0 2 0 -4.924446295997056 11.008669155266901 19.36327296752404 0 0 -1
190 0 1 0 0.35249752334740725 10.091405898403298 9.651372043123382 0 0 0
191 0 2 0 0.5413592522658246 9.863009959275988 8.753963702187338 0 0 0
192 0 2 0 0.8635533662297328 10.918607893071504 9.89593505783568 0 0 0
193 0 1 0 4.692169638611587 13.497689647424046 6.895789189325064 0 0 0
194 0 2 0 4.857947043256651 13.088372581863094 6.050487547877995 0 0 0
195 0 2 0 5.126969252282416 12.925052194349405 7.609204734940964 0 0 0
196 0 1 0 5.602374238829194 14.109914697805825 2.371130053613563 0 0 0
197 0 2 0 5.630349347818094 13.339478221447806 1.8007579512783662 0 0 0
198 0 2 0 5.691728274067965 13.732685381342463 3.25811353717218 0 0 0
199 0 1 0 1.1490395419219064 8.61956138542329 2.430136540455542 0 0 0
200 0 2 0 0.466732101777101 7.991288223153906 2.1020349115603154 0 0 0
201 0 2 0 1.957125371985287 8.249334179703519 2.137714471452665 0 0 0
202 0 1 0 0.5786853378478121 8.520387322164975 7.356160591123617 0 0 0
203 0 2 0 -0.2077939981107204 7.978017797642061 7.620702159609571 0 0 0
204 0 2 0 1.3204612847912136 7.911186259044049 7.488891752542451 0 0 0
205 0 1 0 6.408661418255541 10.010847286487502 2.259385836987257 0 0 0
206 0 2 0 6.6556496317372655 9.60555789309047 3.1051623599535896 0 0 0
207 0 2 0 6.829457650299364 10.883920043779364 2.330057160591231 0 0 0
208 0 1 0 4.1776554475158445 10.062196071923747 7.37132893611717 0 0 0
209 0 2 0 3.3880261792447444 10.603773772670102 7.393551943639188 0 0 0
210 0 2 0 3.9616372871266132 9.347236355980124 6.718784497174601 0 0 0
211 0 1 0 -0.09682286706316834 12.408587368058763 7.436619195457207 0 0 0
212 0 2 0 -0.07711678296655 12.994339085584084 8.236273232561194 0 0 0
213 0 2 0 -0.23509573819830765 12.972900014638746 6.706335462364283 0 0 0
214 0 1 0 1.764142431784523 12.501509062717087 2.247753916044753 0 0 0
215 0 2 0 1.8360563055168253 12.967510554285246 1.4344174342259437 0 0 0
216 0 2 0 0.8626629080345769 12.146788841637047 2.3106890043348822 0 0 0
217 0 1 0 6.711076411024425 10.755751135363829 6.391987428262399 0 0 0
218 0 2 0 5.843549758272489 10.753772598300921 6.875112859609475 0 0 0
219 0 2 0 7.375587188236178 11.265224640619033 6.8629136624429465 0 0 0
220 0 1 0 3.7521908236716133 10.703139591525675 3.2031123478769112 0 0 0
221 0 2 0 4.549770498784553 10.498230427362278 2.737983189169287 0 0 0
222 0 2 0 3.271143754556794 11.309821157481368 2.5657637147812458 0 0 0
223 0 1 0 -0.5344937948485748 11.261907015404098 3.4174114211502946 0 0 0
224 0 2 0 -0.1420682324461886 10.574995482053744 4.018944396474104 0 0 0
225 0 2 0 -0.7167037931684697 12.01525407098967 4.038755508245234 0 0 0
226 0 1 0 2.1698434218443223 11.418131530845619 6.318030556826229 0 0 0
227 0 2 0 1.3488119918474277 11.842520620164388 6.82204009275868 0 0 0
228 0 2 0 1.7011252561202355 10.763391955035274 5.717661566757615 0 0 0
229 0 1 0 8.265445918748906 14.701707168748582 1.454842304093293 0 0 0
230 0 2 0 7.601738900183142 14.282483421938212 2.065638962610357 0 0 0
231 0 2 0 9.010418015511714 15.074858509599341 1.9133462682874662 0 0 0
232 0 1 0 2.4918203565013854 14.632708988470847 8.486272438410072 0 0 0
233 0 2 0 3.1988221966145653 14.635287900552967 7.775950430462359 0 0 0
234 0 2 0 1.742079945441291 15.043819213173048 8.027539972239879 0 0 0
235 0 1 0 -2.1359604624569273 7.655290977202972 8.212410218807012 0 0 0
237 0 2 0 -2.2980879787231885 8.568138018839056 8.43526094723501 0 0 0
238 0 1 0 3.530233182213768 8.230080811024624 1.2136897743881256 0 0 0
239 0 2 0 3.622807211144066 9.10147130351585 0.7750315064792519 0 0 0
240 0 2 0 3.3008160238252047 7.580877874602277 0.5019094380731178 0 0 0
241 0 1 0 5.327022741716535 12.322096247507913 4.541165762673452 0 0 0
242 0 2 0 5.817791103631009 11.723168147296859 5.1443206911181 0 0 0
243 0 2 0 4.492650394514144 11.83292530333729 4.31636119902194 0 0 0
244 0 1 0 0.8219328309287857 9.50908038958936 4.878787646907291 0 0 0
245 0 2 0 1.0137657587172535 9.132948794535142 4.0177193307901335 0 0 0
246 0 2 0 0.6640993219335936 8.810129339457001 5.53012213584532 0 0 0
247 0 1 0 7.409627280333412 8.941301721467354 0.0756816496136975 0 0 0
248 0 2 0 6.899797773039511 9.259057140647533 0.844041092743064 0 0 0
249 0 2 0 0.18065642407277416 8.53182719041441 19.10195168199568 0 0 -1
250 0 1 0 -4.504926153282397 13.567215709192302 19.373713123671912 0 0 -1
251 0 2 0 -5.113799873705338 14.17435766680505 18.90177524145907 0 0 -1
252 0 2 0 2.6292378647542574 14.26073146270081 0.18638214349033128 0 0 0
253 0 1 0 15.63932978406056 8.55644310724825 4.694401547754539 0 0 0
255 0 2 0 15.742242576098281 8.952627497245448 3.8537858413763293 0 0 0
256 0 1 0 13.023398318256456 8.444284914320066 5.007774440405433 0 0 0
257 0 2 0 14.010605168067002 8.34239311877229 4.968252130088408 0 0 0
258 0 2 0 12.873987321641739 8.955062647085136 5.80885689213605 0 0 0
259 0 1 0 8.418916905893276 14.146605876844166 4.73462057648274 0 0 0
260 0 2 0 9.43574366224985 14.24706829250035 4.588771333996813 0 0 0
261 0 2 0 8.152202729573574 13.265929809594152 4.354240529919029 0 0 0
262 0 1 0 11.150140797971138 13.714310249337013 4.368133706325973 0 0 0
263 0 2 0 11.305133257256347 13.192619077409816 3.575688237905677 0 0 0
264 0 2 0 11.877595973819492 14.383537712267096 4.3982584302592285 0 0 0
265 0 1 0 14.332373112592837 12.367116878645605 9.931805768648216 0 0 0
267 0 2 0 13.98914877211281 12.578965364977423 9.074030915313267 0 0 0
268 0 1 0 14.11929614760492 12.31430999815224 0.13715371955945543 0 0 0
269 0 2 0 14.080341896488076 12.599031640778044 1.0128878835425426 0 0 0
270 0 2 0 13.606340638896114 11.464184749943547 0.06536330277674006 0 0 0
271 0 1 0 3.6774820106045647 10.279354617750592 19.40942750039312 0 0 -1
272 0 2 0 4.5993234377980565 9.965688849594747 19.434805272684265 0 0 -1
273 0 2 0 9.730092452329622 10.112532898173136 0.6727484453496227 0 0 0
274 0 1 0 9.693112160412756 10.492295401572715 9.477329604392917 0 0 0
275 0 2 0 10.460173498542977 11.113401835358397 9.460821006420845 0 0 0
276 0 2 0 9.693264271142045 10.154297124614061 8.581397900592231 0 0 0
277 0 1 0 13.870841173788488 13.665808691383173 7.517396414863307 0 0 0
278 0 2 0 14.552966399338805 14.286015207808159 7.684400492993908 0 0 0
279 0 2 0 13.035555781411716 14.127563639481451 7.55446002833077 0 0 0
280 0 1 0 14.591832828972484 13.935111125428296 2.365130196481776 0 0 0
281 0 2 0 14.438231437085342 13.571788198501903 3.2803017233785443 0 0 0
282 0 2 0 15.502848595322561 14.20188462021493 2.2244573996932124 0 0 0
283 0 1 0 10.479034061180217 8.47655323423861 3.0295011849689693 0 0 0
284 0 2 0 9.908624857422847 7.905695866894606 2.5312681866316757 0 0 0
285 0 2 0 11.39640206673542 8.371484759944689 2.754317638418299 0 0 0
286 0 1 0 9.114270164717599 8.681625245029172 7.452391158961117 0 0 0
287 0 2 0 8.234136392256385 8.570976663732642 7.82639744644027 0 0 0
288 0 2 0 9.043832279114218 8.991466074507537 6.574687972066527 0 0 0
289 0 1 0 15.379172468974312 10.018292185697032 2.2659082768623224 0 0 0
290 0 2 0 15.96081213218899 10.71730103075457 2.626486858765942 0 0 0
291 0 2 0 14.406453763685747 10.177712695565353 2.3735978623600333 0 0 0
292 0 1 0 13.31950555859328 10.225062963090517 7.34086036179406 0 0 0
293 0 2 0 14.186221633191717 10.429262916666252 7.04416664761161 0 0 0
294 0 2 0 13.3542775356861 9.677774999639244 8.138642687768078 0 0 0
295 0 1 0 8.788805556455502 12.507735980861566 7.059850634799988 0 0 0
296 0 2 0 8.552074076771307 13.092979578575157 6.372724171283784 0 0 0
297 0 2 0 9.715042068085179 12.232813453978036 6.956151865937209 0 0 0
298 0 1 0 11.157507217811393 12.267037558527372 2.0532252184424507 0 0 0
299 0 2 0 11.108295403418097 12.62856693642037 1.1764361746152452 0 0 0
300 0 2 0 11.694866575600695 11.501144894774901 2.0794334599227984 0 0 0
303 0 2 0 -1.4336405318380003 11.185598927340765 6.77597654377538 1 0 0
304 0 1 0 13.06513861043688 10.630789801721324 3.3445553877775036 0 0 0
305 0 2 0 13.023421420023716 9.86051646439457 3.9299315567481163 0 0 0
306 0 2 0 13.467889894682756 11.32650516841021 3.9056705019220863 0 0 0
307 0 1 0 8.46435376900237 11.90016393632946 3.2517529708208373 0 0 0
308 0 2 0 9.170215400148995 12.105732523653357 2.6413249964479353 0 0 0
309 0 2 0 8.872775063373226 11.245217617266931 3.839339291491884 0 0 0
310 0 1 0 11.267151592265348 11.904766840697834 6.595763199003484 0 0 0
311 0 2 0 12.06300752166353 11.502412382867513 7.0140925166155546 0 0 0
312 0 2 0 11.569991640224753 12.605266339604013 6.041904282691644 0 0 0
314 0 2 0 -0.12792445838942723 14.928289371893484 1.9452531826359791 1 0 0
316 0 1 0 11.242161425718171 14.75067434946168 8.01255374459405 0 0 0
317 0 2 0 11.1761711212865 13.913921889944639 8.43590133592361 0 0 0
318 0 2 0 11.619532679019247 15.345435572999152 8.679376871935045 0 0 0
319 0 1 0 6.480337165601316 8.05136125399836 8.155584464448992 0 0 0
320 0 2 0 6.850799317795968 7.411765303175863 8.756080612540014 0 0 0
321 0 2 0 5.963916749805824 7.466966221984167 7.557889824766797 0 0 0
322 0 1 0 13.062967726195915 7.714393859571796 1.664444356710072 0 0 0
323 0 2 0 12.598743860844923 6.939994570261413 1.3194642212483085 0 0 0
324 0 2 0 13.899286285356121 7.473258301221672 2.103609700770802 0 0 0
325 0 1 0 14.361405278888215 12.696151662634861 4.825809563506565 0 0 0
326 0 2 0 15.183798592293757 12.249920319684977 4.984198591777711 0 0 0
327 0 2 0 14.105471626463283 12.93669242795597 5.741692420086862 0 0 0
328 0 1 0 9.62742448479839 9.996239589594028 5.198075560942046 0 0 0
329 0 2 0 10.104163704985107 9.435738857055217 4.543677736827767 0 0 0
330 0 2 0 10.238529387897099 10.653977193898388 5.551850879879457 0 0 0
331 0 1 0 9.628436494135315 9.091659761673569 19.455925271442062 0 0 -1
332 0 2 0 15.796371578072074 9.612662072960708 0.6314540356348497 0 0 0
333 0 2 0 9.891504622044575 9.679757169505491 18.7084060893934 0 0 -1
334 0 1 0 4.834457515945419 13.795973529641596 19.47955387200917 0 0 -1
335 0 2 0 5.154973186629396 13.135250955897579 18.754983086785245 0 0 -1
336 0 2 0 4.1355196122922235 14.195481999848248 18.939666783382933 0 0 -1
337 0 1 0 6.348734573855989 16.08738322709519 4.616148710129785 0 0 0
338 0 2 0 7.00135445558743 15.373843771695995 4.48186298125268 0 0 0
339 0 2 0 6.291911587804226 16.43567448793913 3.704069672851861 0 0 0
340 0 1 0 3.2501377936371343 16.061633853801908 5.342562979169376 0 0 0
341 0 2 0 2.799285034152563 15.339196226084901 4.891077827102869 0 0 0
342 0 2 0 4.137777208948851 15.989417890347212 5.007337043743358 0 0 0
343 0 1 0 -0.8896667269551334 21.740471438320945 4.913177130501143 0 0 0
344 0 2 0 -1.0118088847958515 21.432297565731737 5.85409841450905 0 0 0
345 0 2 0 16.354703929540072 22.275319895613073 4.677076533382332 -1 0 0
346 0 1 0 1.9078102702623971 21.688250397588888 4.9469324002176975 0 0 0
347 0 2 0 1.9770103122857572 20.78929365328232 5.33443489527611 0 0 0
348 0 2 0 0.9437499481222391 21.899772617994326 4.9261274842837155 0 0 0
349 0 1 0 5.275130856989697 19.934784615239757 9.57006897199851 0 0 0
350 0 2 0 4.987125101255257 20.729548798289887 10.093563403059228 0 0 0
351 0 2 0 5.138072267534673 20.11759666335268 8.61577499529057 0 0 0
352 0 1 0 5.849201382079467 19.696432226773812 0.03459130062891827 0 0 0
353 0 2 0 5.40870081126472 18.858346386055782 0.0892515911965498 0 0 0
354 0 2 0 6.025044546764312 20.1061349045549 0.9163830153975161 0 0 0
355 0 1 0 -5.503234136219954 17.981848821808775 19.236782713999432 0 0 -1
356 0 2 0 1.140098134662132 17.586827890201008 0.5441015000118764 0 0 0
357 0 2 0 -5.731954583482542 17.198592304449964 18.6660041740069 0 0 -1
358 0 1 0 0.4564515122221118 17.821619028708827 9.486331215549663 0 0 0
359 0 2 0 0.6024561671447546 17.185371606485113 10.13895518179753 0 0 0
360 0 2 0 1.1126956842737186 18.516055634677738 9.663580729322778 0 0 0
361 0 1 0 4.677116135972823 21.367742056100866 7.179719153690156 0 0 0
362 0 2 0 5.050952659421057 22.109359174914005 7.679749473934164 0 0 0
363 0 2 0 3.742357884141855 21.502451482672267 7.475859492586789 0 0 0
364 0 1 0 5.940048658997122 21.5708644027086 2.397740748672338 0 0 0
365 0 2 0 6.855874697769501 21.74866649282299 2.5058447661745666 0 0 0
366 0 2 0 5.610153214490598 21.290625257532138 3.2111739609952377 0 0 0
367 0 1 0 1.120844571185403 16.41417514383239 2.0708628205266786 0 0 0
368 0 2 0 2.0114495944229875 16.03038746641087 1.8795147401811936 0 0 0
369 0 2 0 1.1074855941908863 16.547169948657896 3.0474578165176736 0 0 0
370 0 1 0 0.1800417689371714 15.925309714538944 7.445047381015227 0 0 0
371 0 2 0 0.4904507104651086 16.663098981154306 7.9668697183682635 0 0 0
372 0 2 0 0.2415457100425371 16.15903647809363 6.487780251938638 0 0 0
373 0 1 0 6.028154049285407 17.49344692255649 2.4045908635681124 0 0 0
374 0 2 0 6.18031848835153 17.01376331899969 1.6245419627805235 0 0 0
375 0 2 0 5.118681132602004 17.772705519100167 2.4440645887358157 0 0 0
376 0 1 0 3.811217635658233 18.018550492896374 7.190492235418778 0 0 0
377 0 2 0 3.4410799364563873 17.304690600815583 6.708029643262782 0 0 0
378 0 2 0 4.701655191978088 18.219411368861373 6.874833245016746 0 0 0
379 0 1 0 -0.5557743426187429 20.361076447013918 7.182765925350538 0 0 0
380 0 2 0 -1.1637015242713886 19.627075415543576 7.283496992895157 0 0 0
381 0 2 0 -0.4511911946037257 20.68034371715304 8.08972126238475 0 0 0
382 0 1 0 1.2869055430373195 19.925396402940642 2.711353343166359 0 0 0
383 0 2 0 2.011593306140761 19.292998664331304 2.914920984148954 0 0 0
384 0 2 0 1.6120720158383202 20.685291255156695 3.2618554474493027 0 0 0
385 0 1 0 6.483713593272094 18.31132291179473 6.270287666722217 0 0 0
386 0 2 0 7.31225104910116 18.685157001850637 6.559730591365187 0 0 0
387 0 2 0 6.629583850749115 17.4217569592553 5.912405882434496 0 0 0
388 0 1 0 3.4064242628906625 18.36732731368679 3.4403124077906884 0 0 0
389 0 2 0 3.168251486168914 17.57962427593905 3.9487778685368435 0 0 0
390 0 2 0 3.829998740464104 19.05900379990817 3.9929338082133983 0 0 0
391 0 1 0 -1.0715097734213372 19.102526591380514 3.6202378470090886 0 0 0
392 0 2 0 -0.25035866387524197 19.460738087729155 3.1970026989180074 0 0 0
393 0 2 0 -1.2844086103832062 19.702181308914586 4.349219908439288 0 0 0
394 0 1 0 1.5432850164721201 19.184063405367365 6.050560457001493 0 0 0
395 0 2 0 0.8511563821606782 19.609872480818613 6.643431680734774 0 0 0
396 0 2 0 2.3513245243437377 18.913370894128132 6.603326428861613 0 0 0
397 0 1 0 8.52812856842844 22.087516546393637 1.683974916168232 0 0 0
398 0 2 0 8.606225572509556 21.20529964812425 1.379448191128892 0 0 0
399 0 2 0 9.342872925183496 22.483187328007475 2.107313790924453 0 0 0
400 0 1 0 2.100708516315722 22.074950678588067 8.482478951035365 0 0 0
401 0 2 0 2.4647351243561033 0.14487597265279642 9.145080946455101 0 1 0
402 0 2 0 1.4709475980595506 22.476081405044216 7.858628895183619 0 0 0
403 0 1 0 -2.366583225813047 15.315738265970197 8.48298502800225 0 0 0
404 0 2 0 -1.5072944855855976 15.5780628635611 8.155392603013134 0 0 0
405 0 2 0 -2.586363808369045 16.015397188731725 9.110867604685147 0 0 0
406 0 1 0 3.530105818239564 15.524715823361454 1.4003659678406966 0 0 0
407 0 2 0 4.243019314766464 15.11841650749796 1.902913968775884 0 0 0
408 0 2 0 3.940248801646457 16.206666526287947 0.8164732966727296 0 0 0
409 0 1 0 5.050542973171646 20.02881261026879 4.60568449403111 0 0 0
410 0 2 0 5.690870332706061 19.422662069987954 5.084280862576693 0 0 0
411 0 2 0 4.91169864906881 20.664200081615995 5.3322397143070654 0 0 0
412 0 1 0 0.43701188381425315 17.06236413042702 4.848007640381331 0 0 0
413 0 2 0 1.0908532909433801 17.574212113219943 5.325051187405295 0 0 0
414 0 2 0 -0.21866606991329496 17.678071041864325 4.481976883539238 0 0 0
415 0 1 0 6.717635954950002 16.345894063121012 0.015234385042160604 0 0 0
416 0 2 0 7.495855332035762 15.905735138206206 0.4392355345540532 0 0 0
417 0 2 0 0.4994701386189355 16.874291499655627 18.775608920898293 0 0 -1
418 0 1 0 2.119981781162809 21.15381711465017 0.2374244055427372 0 0 0
419 0 2 0 1.948503359426467 20.531424770478786 0.9315568889139115 0 0 0
420 0 2 0 2.8586338161151996 21.703022477886027 0.5575228062131007 0 0 0
421 0 1 0 15.727444702988612 15.842192918805242 4.819677400316033 0 0 0
422 0 2 0 15.790614057537823 16.586835273790758 5.390588401780878 0 0 0
423 0 2 0 15.693871667494937 16.17801701974394 3.9341088451291846 0 0 0
424 0 1 0 12.981169544146457 15.841071638586046 5.108217716326689 0 0 0
425 0 2 0 13.97469576730376 15.65779318784508 5.13098660314945 0 0 0