LAMMPS (29 Sep 2021 - Update 2)
  using 1 OpenMP thread(s) per MPI task
echo both

include		in.partitions
variable        pid world 0
include		in.temp
variable        temperature equal 265
variable        tempDamp equal 0.100 # this is 0.1 ps
include		in.pressure
variable        pressure equal 6079.5
variable        pressureDamp equal 1.0 #this is 1ps
include		in.seed
variable        seed world 745823

units           metal
atom_style	full
include		in.box
read_data       iceV.data
Reading data file ...
  triclinic box = (0.0000000 0.0000000 0.0000000) to (18.399555 22.570389 19.505716) with tilt (0.0000000 -6.7926110 0.0000000)
  1 by 1 by 1 MPI processor grid
  reading atoms ...
  1008 atoms
Finding 1-2 1-3 1-4 neighbors ...
  special bond factors lj:    0        0        0       
  special bond factors coul:  0        0        0       
     0 = max # of 1-2 neighbors
     0 = max # of 1-3 neighbors
     0 = max # of 1-4 neighbors
     1 = max # of special neighbors
  special bonds CPU = 0.000 seconds
  read_data CPU = 0.028 seconds
include 	in.setup
variable	out_freq equal 500
variable	out_freq2 equal 500

timestep        0.0005

neigh_modify    delay 7 every 1

include         in.deepmd
# This is deepMD model

# create groups ###
#group ox type 2
#group hy type 1

mass 2 15.999
mass 1 1.008

pair_style      deepmd ../graph.pb
pair_coeff      * *

bond_style      none
angle_style     none
dihedral_style  none
improper_style  none
neigh_modify exclude none


neighbor        2.0 bin
neigh_modify    every 10 delay 0 check no

thermo          ${out_freq}
thermo          500
thermo_style 	custom step temp pe etotal epair emol press lx ly lz xy xz yz vol pxx pyy pzz pxy pxz pyz

restart 	${out_freq} restart.lmp.${pid} restart2.lmp.${pid}
restart 	500 restart.lmp.${pid} restart2.lmp.${pid}
restart 	500 restart.lmp.0 restart2.lmp.${pid}
restart 	500 restart.lmp.0 restart2.lmp.0


include         in.dump
dump            myDump all atom ${out_freq2} dump.water.${pid}
dump            myDump all atom 500 dump.water.${pid}
dump            myDump all atom 500 dump.water.0
dump            myDump2 all dcd ${out_freq2} dump.dcd
dump            myDump2 all dcd 500 dump.dcd
dump_modify     myDump append yes
dump_modify     myDump2 append yes


timer           timeout 03:55:00 every 1000
New timer settings: style=normal  mode=nosync  timeout=03:55:00

fix             2 all nph tri ${pressure} ${pressure} ${pressureDamp}
fix             2 all nph tri 6079.5 ${pressure} ${pressureDamp}
fix             2 all nph tri 6079.5 6079.5 ${pressureDamp}
fix             2 all nph tri 6079.5 6079.5 1
fix             3 all temp/csvr ${temperature} ${temperature} ${tempDamp} ${seed}
fix             3 all temp/csvr 265 ${temperature} ${tempDamp} ${seed}
fix             3 all temp/csvr 265 265 ${tempDamp} ${seed}
fix             3 all temp/csvr 265 265 0.1 ${seed}
fix             3 all temp/csvr 265 265 0.1 745823
velocity 	all create ${temperature} ${seed} dist gaussian
velocity 	all create 265 ${seed} dist gaussian
velocity 	all create 265 745823 dist gaussian

run             400000

CITE-CITE-CITE-CITE-CITE-CITE-CITE-CITE-CITE-CITE-CITE-CITE-CITE

Your simulation uses code contributions which should be cited:

- USER-DEEPMD package:

@article{Wang_ComputPhysCommun_2018_v228_p178,
  author = {Wang, Han and Zhang, Linfeng and Han, Jiequn and E, Weinan},
  doi = {10.1016/j.cpc.2018.03.016},
  url = {https://doi.org/10.1016/j.cpc.2018.03.016},
  year = 2018,
  month = {jul},
  publisher = {Elsevier {BV}},
  volume = 228,
  journal = {Comput. Phys. Commun.},
  title = {{DeePMD-kit: A deep learning package for many-body potential energy representation and molecular dynamics}},
  pages = {178--184}
}

CITE-CITE-CITE-CITE-CITE-CITE-CITE-CITE-CITE-CITE-CITE-CITE-CITE

Neighbor list info ...
  update every 10 steps, delay 0 steps, check no
  max neighbors/atom: 2000, page size: 100000
  master list distance cutoff = 8
  ghost atom cutoff = 8
  binsize = 4, bins = 7 6 5
  1 neighbor lists, perpetual/occasional/extra = 1 0 0
  (1) pair deepmd, perpetual
      attributes: full, newton on
      pair build: full/bin
      stencil: full/bin/3d
      bin: standard
Per MPI rank memory allocation (min/avg/max) = 7.699 | 7.699 | 7.699 Mbytes
Step Temp PotEng TotEng E_pair E_mol Press Lx Ly Lz Xy Xz Yz Volume Pxx Pyy Pzz Pxy Pxz Pyz 
       0          265   -178.42725   -143.93354   -178.42725            0     36160.43    18.399555    22.570389    19.505716            0    -6.792611            0    8100.4335    35686.998    36949.757    35844.534   -446.76424    1252.0035    364.26587 
     500    262.01695   -164.42574   -130.32031   -164.42574            0    12107.317    18.041588    22.242459     19.27136 -0.028387411   -6.7508292 -0.0094803494    7733.3902    10959.314    12435.682    12926.956   -2633.7005    38.757308    -365.1881 
    1000    264.07525   -163.54088   -129.16753   -163.54088            0    6720.4999    18.075625    22.616769    19.502422  -0.02553618   -6.8541328  0.011818692    7972.8288    7802.3908     7346.691    5012.4178    2093.7332   -83.351892   -619.93483 
    1500    258.57383   -163.73705   -130.07979   -163.73705            0    17131.322    18.056309     22.69903    19.391969 -0.015011374   -6.9003205 -0.010238392     7948.006    19703.411    13892.267    17798.287   -1140.6836    3486.6118    2693.4135 
    2000     258.8723   -161.39759   -127.70149   -161.39759            0   -88.744124    18.038108    22.654413    19.278559 0.0056184771   -6.9224798  -0.05627167    7878.0431    710.84424    2534.4983    -3511.575   -165.01634    1067.5925    2283.9972 
    2500    269.75417   -162.29577   -127.18323   -162.29577            0    6229.0708    18.155963    22.833682    19.353149  0.009198003   -6.9908387 -0.074067527    8023.1865    5735.0183    5434.8476    7517.3464   -2298.9922    3795.1643    247.75777 
    3000    271.87362   -161.77124   -126.38282   -161.77124            0    12701.206    18.011512    22.586197    19.224793 -0.0077870623   -6.9836065  0.012228281     7820.868    16658.754     9903.837    11541.028   -2799.2348   -15.625294    1282.0227 
    3500      255.744   -162.29558   -129.00667   -162.29558            0    2782.6768    18.138855    22.687801    19.436875 -0.036620671   -7.0743408   0.17369235    7998.8718    1561.2356    4865.0874    1921.7073   -118.56914   -115.99674   -1325.4995 
    4000    256.65325   -162.46455   -129.05729   -162.46455            0    4581.3305    18.122663      22.6384    19.402262  -0.09696911   -7.0235805   0.20240704     7960.129    4782.7174    2273.5422    6687.7319    2731.2653    1548.4502    2941.0229 
    4500    269.88557   -163.79799   -128.66835   -163.79799            0    7873.6235    18.076938    22.509318    19.276366  -0.12430986   -6.9169294  0.087498425    7843.5444    4866.2457    9995.1094    8759.5155    -2251.458   -147.18222    1772.4489 
    5000    263.93632   -163.23093   -128.87567   -163.23093            0    2360.3071    18.202871    22.670507    19.438097  -0.15893079   -6.8930972   -0.0922067    8021.4866    2538.3381    1462.0218    3080.5613    2185.0472   -528.78526   -1685.9955 
    5500    260.38141   -163.32909   -129.43656   -163.32909            0    9585.7124    17.985721    22.524983    19.337965 -0.0086474944    -6.812124  -0.06085024    7834.3524    8975.1985    8996.9908    10784.948   -11.537336    717.76984   -2849.7052 
    6000    264.70283   -162.83295   -128.37792   -162.83295            0    7969.2717    17.994013     22.64617     19.43799   0.17490845   -6.7974611  0.069139238    7920.8928    8244.4892     9825.675     5837.651   -2094.6875   -869.85902   -321.24538 
    6500    263.07204   -163.60348   -129.36071   -163.60348            0    10714.555    18.023699    22.885897    19.362343   0.15793966   -6.8374954   0.11871107     7986.744    6692.2856    10916.811    14534.567   -3822.5927    777.56649   -1310.7977 
    7000    271.51591   -161.86565   -126.52379   -161.86565            0    5618.7191    18.066345    22.864792    19.065712  0.068441822   -6.9363745   0.14653656    7875.7258    5949.8994    6671.8384    4234.4196    94.185523    1660.0905    451.64124 
    7500    263.58089   -161.79557   -127.48658   -161.79557            0    7278.2883    18.194856    23.020802    19.087412  -0.17367744   -7.0576923 -0.0006144896    7994.9569    8465.4343    7926.2868    5443.1438     553.9624   -803.66494   -259.39173 
    8000    265.30174   -163.16448   -128.63149   -163.16448            0    7874.9723    18.073103    22.755388    19.242881  -0.42363032   -7.0013751  -0.20461438    7913.8359    5765.0723    10323.892    7535.9521     2993.118    1683.6022    3559.1773 
    8500     257.7451   -163.16839   -129.61901   -163.16839            0    4926.7181    17.941649    22.517942    19.550576  -0.35652257   -6.8760448  -0.14981147    7898.6084    6231.6473    4508.7024    4039.8045    876.82943   -2379.7124    503.75345 
    9000    268.53923   -161.54508   -126.59068   -161.54508            0    4155.6553    18.065853    22.498017    19.643296 -0.016255518   -6.8491338  0.095303687    7983.9363    3392.5869    8113.0546    961.32449    91.910828    1458.9843   -2757.1134 
    9500    272.86009   -162.34255   -126.82572   -162.34255            0    5771.4942    18.158384    22.456769    19.361191   0.14867428   -6.7889895   0.25323055      7895.08    5692.3209    7368.6118    4253.5499   -2283.7669    321.15285   -464.39089 
   10000    269.92592   -161.46365   -126.32875   -161.46365            0    7517.7434    18.203155    22.683568    19.215958   0.10344354   -6.7144365   0.22482165    7934.5092    9234.7825    6566.7021    6751.7455    1068.5727    1657.5141   -1815.3956 
   10500    281.93019   -161.76967   -125.07224   -161.76967            0    4700.7454    18.151097    22.811272    19.253557 -0.037485977   -6.6521768  0.019577201    7971.9276     5123.686    2456.9223     6521.628    1653.8926    342.22524    2578.7794 
   11000    269.52353   -162.07177   -126.98925   -162.07177            0    2684.6176    18.012888    22.704484      19.3441  -0.17705371   -6.6290173  -0.12524335    7911.2212    1500.4386    3395.7196    3157.6945    593.72907   -676.35756   -458.59078 
   11500    261.03963   -162.27073   -128.29251   -162.27073            0    8687.9024    17.983585    22.591028    19.459055  -0.15303055   -6.6836216  -0.10450585    7905.5851    7526.4647     6377.266    12159.977    4703.3868   -929.58069    721.59048 
   12000    262.59213   -161.11972   -126.93942   -161.11972            0    5224.7744      18.2615    22.432202    19.457323   0.08988889   -6.9377129  0.054924955    7970.6078    5034.0563    4670.5368    5969.7301   -160.24595    194.81022    1246.1017 
   12500     274.0397   -162.20822   -126.53785   -162.20822            0    4957.3196     18.35651    22.410205    19.337495   0.28411352   -7.0414586   0.18796549    7954.9263    1536.8411     7469.645    5865.4728   -16.966911    2023.1914    -312.0053 
   13000    268.97058    -161.0014   -125.99085    -161.0014            0    7909.5009    18.154051    22.584381     19.27936   0.20268566   -6.9450235  0.074151626    7904.4992    9064.7073    10085.894    4577.9017   -2781.1384    2416.2163   -793.89627 
   13500    259.94774   -162.59004   -128.75395   -162.59004            0    4979.0057    17.863938    22.945329    19.443441 -0.090203398   -6.7440548   -0.1386641    7969.7489    4360.6392     6054.814    4521.5639    193.16647     1835.468    72.939328 
   14000    260.05978   -163.12942   -129.27874   -163.12942            0      4827.24    17.745569    22.990047    19.342044   -0.2369969   -6.5845248  -0.16340369    7891.0019    3873.8954    4850.8921    5756.9327   -415.47393   -986.10664    2179.1827 
   14500     257.9995   -163.81643   -130.23393   -163.81643            0    7493.1191    17.954958    22.903404    19.238192  -0.14921099   -6.5908068  0.049477796    7911.3153    7564.1437    7469.3149    7445.8987    886.30121   -622.83645    2986.3372 
   15000    272.21463   -163.45418   -128.02138   -163.45418            0    6362.3472    18.182249    22.582735    19.216377 -0.018928178   -6.7432111    0.2041875    7890.3388    8694.4635    3970.4966    6422.0816   -1021.3451   -147.32109   -3458.7505 
   15500    264.53823   -162.91007   -128.47646   -162.91007            0    7035.5008    18.345981    22.307882    19.396148 -0.0012506002   -6.9462047   0.17246574    7938.0673    5728.9478    9960.8249    5416.7297    2218.7686    1622.3761    788.15245 
   16000    278.76108   -163.62337   -127.33844   -163.62337            0    6332.5751    18.225443     22.23105     19.54908 0.0064523742   -6.9857868  0.080979342    7920.7153    7866.6806    5923.6445    5207.4003   -1833.2231   -164.14966   -559.86509 
   16500    267.50502   -162.30892   -127.48913   -162.30892            0    5731.8866    18.084866    22.397682    19.584496   0.06580304   -6.9643898 -0.035397867     7932.878    4410.1027    6641.8728    6143.6843   -197.44669    1135.2306    1312.7371 
   17000    274.85614   -163.37629   -127.59965   -163.37629            0    4251.2135    17.975888    22.656695    19.387686   0.12015273   -6.8771731  -0.12451269    7896.1044    3376.7475    4115.2548    5261.6381    -1782.257   -1134.6599    -2687.586 
   17500    264.51117   -162.58241   -128.15232   -162.58241            0    4000.7558     18.03002    23.023307     19.18052   0.16368582   -6.8106916 -0.077473561    7962.0386    5917.0736    3512.5841    2572.6099   -497.45633    356.22723     854.5379 
   18000    260.76204   -163.65646   -129.71438   -163.65646            0    5072.6559     17.96606    23.093505    19.040609  0.072291443   -6.7622678  0.066276374    7899.9356    5875.6913    4285.8018    5056.4744    365.81228   -745.62289   -3722.0909 
   18500    266.36628   -163.88933   -129.21777   -163.88933            0    6593.7315    17.957398    22.982962    19.112884 -0.045817603   -6.6872285   0.21425215    7888.1585    3805.7461     7897.008    8078.4404   -184.97473    67.767587   -1485.5854 
   19000    257.37608   -162.11749   -128.61615   -162.11749            0    8288.1651    18.005323    22.667376    19.508245   -0.2169612   -6.6444133   0.26359055    7961.9673     7535.823    7654.5825    9674.0898    546.94687    1382.3072    728.46204 
   19500    262.05909   -162.22148   -128.11057   -162.22148            0    1971.8868    18.042756    22.272127     19.67756  -0.31990222   -6.6524247   0.17704041    7907.4383    494.61547    4959.5738    461.47109    2594.7037   -1416.4737   -501.25327 
   20000    256.57306   -163.40399   -130.00717   -163.40399            0    1351.8379    18.215618    22.271757    19.520546  -0.19212906    -6.734312  0.096617208    7919.3649   -1182.7296    860.12332      4378.12    65.466571   -893.98229    564.13772 
   20500    252.73843   -162.18065   -129.28296   -162.18065            0     6656.632    18.267051    22.457085    19.299765  0.047775627   -6.8692157  0.062782753    7917.2407    5412.3918    6798.3163    7759.1879   -2112.2913   -323.66018    1382.1055 
   21000    257.78691   -162.28496   -128.73013   -162.28496            0    4569.3614    18.159286    22.738329    19.196992   0.23434856   -6.9713859  0.038318667    7926.6652    4373.1875    4705.9415    4628.9553   -894.33065    1944.9671    718.57335 
   21500    269.59757   -165.85372   -130.76156   -165.85372            0    6999.7658    17.926669    22.935368    19.268816   0.25483909   -6.9501448 -0.078974557    7922.4648    6995.1194    7917.4804    6086.6975   -1304.9238   -758.38442   -1074.6063 
   22000    262.61829   -162.78802   -128.60432   -162.78802            0    6663.1757    17.906518    22.847906    19.302669  0.064740592    -6.928827   -0.2144975     7897.232    6467.7501    4624.4043    8897.3728    2211.0254    289.04393    1148.1337 
   22500    264.89611    -162.4464   -127.96621    -162.4464            0    4325.7806    18.061123    22.783776    19.294249  -0.13071744    -6.868515  -0.11690696    7939.5945    3236.8865    6067.7608    3672.6945   -579.51965   -2675.7338    450.89819 
   23000     249.2304   -162.34856    -129.9075   -162.34856            0    7366.3635    18.208904     22.58056    19.273381  -0.24407603   -6.7869462   0.15834934    7924.5828    6251.4645    5702.1487    10145.477    1650.1143    1908.5557    1133.0006 
   23500    259.55902   -162.05275   -128.26726   -162.05275            0    4745.2078    18.288408    22.316863     19.37519   -0.2562039   -6.7267419   0.42629497    7907.7879    5654.3137    5333.4126     3247.897   -198.39591   -1884.5122   -278.31002 
   24000    271.08911   -161.47496   -126.18865   -161.47496            0    7399.9337    18.279699     22.30657    19.541639  -0.24977522   -6.6756673   0.30218978    7968.2477    6673.0151    5536.7403    9990.0457    169.18296    979.81915    3159.4429 
   24500    270.12833   -161.79483   -126.63358   -161.79483            0    8871.7941    18.064235    22.304191    19.494049  -0.16029269   -6.5712451 -0.087321147    7854.3114    8590.4749    10491.084     7533.824    1370.4031   -1300.1037    1170.5024 
   25000    268.66409   -162.39205    -127.4214   -162.39205            0    4125.1876    18.025707    22.754003    19.426365  0.040667911   -6.7146743  -0.32628001    7967.8594    1746.7225    3715.7446    6913.0958    229.37253    680.11869    1673.1271 
   25500    264.14704   -161.48317   -127.10048   -161.48317            0    6560.9351    18.005101    22.994889    19.252681    0.2321097   -6.8359317  -0.24358349    7971.0973    6757.4178     6122.582    6802.8055   -2431.6551    1338.8924   -2222.9399 
   26000    269.24008   -161.21062     -126.165   -161.21062            0    6228.5415    17.950221    22.940034    19.129242   0.23174008   -6.8793139 -0.052016112    7877.0144    4489.3543    7335.4767    6860.7933   -2045.0404    95.902749   -358.66574 
   26500     260.9577    -163.1624   -129.19485    -163.1624            0    5926.9009    18.064429     22.92513    19.247336   0.10584429   -6.9874762  0.047571673    7970.8875    4712.0744    3623.9626    9444.6656     621.6605    349.23651    1529.0732 
   27000    261.69839   -160.10471   -126.04075   -160.10471            0    7761.2738    18.045338    22.680433    19.344755 -0.038787749   -6.9972028   0.10844334    7917.3455    10909.242    10439.314     1935.266    474.15074     89.44037   -42.054673 
   27500    264.97834   -161.91716   -127.42626   -161.91716            0    6628.3815    18.072948      22.5962    19.378334  -0.21213109   -6.9840644   0.11180617    7913.7231    6072.4421     7831.196    5981.5065     102.9848    1041.7236    704.29883 
   28000    264.28444   -163.43275   -129.03217   -163.43275            0    4530.5179    18.153985    22.629669     19.38993  -0.28749675   -6.9454442   0.05611055    7965.7455    7323.0628    3216.5441    3051.9467    960.35667    1421.0067   -2306.0441 
   28500      263.582   -161.75666   -127.44752   -161.75666            0    6378.1621    18.054108     22.64638    19.252746  -0.13850892   -6.8062352  0.014364107    7871.6812    4231.8104    4342.6649    10560.011    2804.1241   -774.73648    307.79692 
   29000    260.73181   -162.29333   -128.35519   -162.29333            0    7733.6117    18.078316     22.83245    19.361224    0.2150189   -6.6941972   0.01997193    7991.7758    7279.8447    9958.2546    5962.7359   -188.44673   -2710.8017    2383.9333 
   29500    278.36341   -161.74832   -125.51516   -161.74832            0    7038.5055    17.931284    22.737325     19.39526    0.3864346   -6.6011484  0.036529297    7907.6305    5309.2545    8395.7598    7410.5023   -2393.8437   -1862.6047   -261.53234 
   30000    287.90094   -162.20807   -124.73345   -162.20807            0    5032.7857    17.956643    22.726599    19.446819   0.29667058   -6.6607956 -0.069511903     7936.119    5888.6407      4266.94    4942.7766   -3164.2415   -1972.8737   -1202.2371 
   30500    268.20356   -161.43078   -126.52007   -161.43078            0    4812.5761    18.153521    22.721435    19.471049 -0.030133267   -6.9369207  -0.22143716    8031.3023     4371.342    5962.6388    4103.7476   -5006.5251   -365.82825    290.87049 
   31000    271.46325   -160.74898   -125.41397   -160.74898            0    8737.4862    18.119328    22.512564    19.250667  -0.33024339   -7.1466339  -0.16504865    7852.5884    6768.8511    8810.3286    10633.279    3464.2081   -1009.3166    2844.1213 
   31500     280.6576   -163.60827   -127.07648   -163.60827            0    4514.3141     18.20593    22.639338    19.341821  -0.33461881   -7.2780261   0.13889057    7972.1223    6606.1397    2692.4156    4244.3869    -382.2445   -63.030006    769.73179 
   32000    269.78033   -163.52474    -128.4088   -163.52474            0    7465.0951    18.095944    22.601334    19.311511  -0.13489622   -7.2288055   0.37635779    7898.2624    5162.2094    8712.3366    8520.7393    1896.0161   -756.63078    -3245.552 
   32500    275.86994   -163.47896   -127.57036   -163.47896            0     6418.224    18.028879    22.739654    19.331206  0.040832277   -6.9986849   0.26351952    7925.2235    10527.942    5639.6885    3087.0419   -1402.5218   -1523.4091   -2601.0636 
   33000    260.80372   -161.21808   -127.27057   -161.21808            0    8168.2766    18.000791    22.827501     19.36674  0.098423476   -6.7285417 -0.041403601    7958.0471    6404.0613    7876.9552    10223.813   -2660.3328   -1140.5011   -1898.6579 
   33500    271.39507   -163.80174   -128.47561   -163.80174            0    8676.9004    17.984227    22.720791    19.255476 -0.018932351   -6.5677959  -0.21950101    7868.0931    9963.7912    9683.9443    6382.9656   -577.49704   -722.80432    312.57248 
   34000     259.3121   -163.55659   -129.80324   -163.55659            0    5478.3858    18.094089    22.728301    19.343729 -0.061596759   -6.5619048  -0.13319896    7955.0675    2932.1546    6211.2998    7291.7029    1106.7761     -2762.41     5412.794 
   34500    258.32135   -164.30139     -130.677   -164.30139            0    5793.9511      18.0909    22.580011    19.345822 -0.020335487   -6.6196594   0.16296623    7902.6273    7539.6835    2142.6664    7699.5033   -894.78014   -197.61837    -1033.049 
   35000    264.15294   -165.60969   -131.22623   -165.60969            0    6323.4143    18.146699    22.464154    19.350574 -0.078288625   -6.8583057     0.372117    7888.2658   -490.50669    9615.8483    9844.9012   -1151.7877    -967.1698   -634.21709 
   35500     260.6921   -163.22565   -129.29267   -163.22565            0    5291.7985    18.220281    22.477552    19.461738  -0.16923595   -7.2215259   0.27392864    7970.5027    7369.2857      5762.31    2743.7997    268.95455   -481.24086    179.42157 
   36000     267.0125   -163.70497    -128.9493   -163.70497            0     5293.251    18.228141    22.402999    19.342294  -0.26131741   -7.5189044  -0.06402377    7898.7163    2272.4468    7909.5155    5697.7906    540.73644    1795.4737    1814.7289 
   36500    264.23898   -162.82231   -128.42765   -162.82231            0    2948.5983    18.239043    22.505876    19.312517  -0.17539891   -7.5676008  -0.24825671    7927.5112     1591.263    1138.2391    6116.2928    1945.1656    1088.3133    4523.1787 
   37000    258.71107    -162.0901   -128.41499    -162.0901            0    5516.7075    18.174723    22.656735     19.34261   0.12238822   -7.3030872  -0.08990547    7964.8979    8353.7902     5152.727    3043.6053    1090.1884    888.51478    2545.4348 
   37500    264.67544   -162.46707    -128.0156   -162.46707            0    11236.792    17.980085    22.719179     19.28311   0.27585931   -6.8432708   0.19365512     7877.011    10043.907     9424.973    14241.495    233.05416   -3218.3753   -1660.3143 
   38000    269.62551   -162.11376   -127.01796   -162.11376            0    4597.0705    17.992368    22.819275    19.398713   0.16611305   -6.5533664    0.2404086    7964.5837    7309.9141    4510.6186    1970.6789    158.07376   -242.12052      2392.58 
   38500    266.76208   -162.00219   -127.27911   -162.00219            0     3362.195    17.994817    22.722522    19.381266 -0.069683206   -6.4446061  0.096244331      7924.76    867.91242    3702.1761    5516.4966   -147.38026   -590.09243   -2365.9577 
   39000    251.01606   -161.75548   -129.08199   -161.75548            0    7385.6259    18.068098    22.587883    19.341046  -0.23484931   -6.5363264 -0.052507129    7893.4693    9041.8055    8260.0337    4855.0385    1283.1681   -971.17943    1473.5322 
   39500    270.54792   -162.53992   -127.32406   -162.53992            0     7483.959    18.138722    22.540747    19.400419   -0.2334504   -6.7692941 -0.077608095    7932.0623    12900.426    3666.3257    5885.1253    362.27352   -1266.6807    2285.6762 
   40000    261.26331   -162.44207   -128.43474   -162.44207            0    5090.2151    18.163272    22.527091    19.417495  -0.10038127   -7.0314523 -0.0083862129    7944.9726    6035.8184    6103.0884    3131.7384    -2988.266   -969.23237    1900.2386 
   40500    262.80975   -163.38646   -129.17784   -163.38646            0    4876.4685    18.099688    22.468634     19.35854   0.13245124    -7.241213  0.075120497    7872.6394    3266.4037    6144.6732    5218.3286   -1335.6115    1488.6596    43.085184 
   41000     255.3119   -162.40064   -129.16797   -162.40064            0    4974.5964    18.175819    22.649033    19.456721    0.1714321   -7.2963708   0.03558786    8009.6461    6886.4417    5492.3221    2545.0254   -160.74382     332.9695    959.32816 
   41500    273.70707   -163.28274   -127.65566   -163.28274            0    7482.2281    18.036166    22.519873    19.229737  0.010779412   -7.1539978   -0.1074242    7810.5841    4832.0915    7751.1903    9863.4026    1384.2421    1819.6291   -1188.9102 
   42000    261.85067    -162.9025   -128.81872    -162.9025            0    4857.8417    18.203809     22.73881    19.399569  -0.18872179   -6.9582045  -0.22168327    8030.1208     3846.886    5375.4378    5351.2013   -2352.5476    210.49962   -1089.6011 
   42500    267.78697   -162.47175   -127.61527   -162.47175            0    10425.056    18.054637    22.667352    19.350919  -0.23771678   -6.6245496   -0.1087612    7919.3791    6456.1633    11709.104    13109.902    525.86099    1472.9172    4910.4199 
   43000    263.74834   -161.28217   -126.95137   -161.28217            0    5708.2206    17.943654    22.658974    19.389556  -0.12138325   -6.4266664   0.13461904    7883.4988    4631.6265    6252.2984    6240.7368   -149.26807     707.7203   -3218.6257 
   43500    268.39943   -162.47765   -127.54144   -162.47765            0    7089.4406    18.019029    22.712401    19.504835  0.029778981   -6.5076809   0.20100144    7982.4595    8021.7167    6494.4578    6752.1473    -1742.724   -1105.6933     1416.382 
   44000    267.41431   -162.71459   -127.90662   -162.71459            0    6965.2976    18.092996    22.574059    19.343128  0.065496689   -6.7034802   0.15678453    7900.3595    7697.5785    7573.3224    5624.9918   -2148.1458    953.25814   -26.518269 
   44500    270.75028   -163.46188   -128.21968   -163.46188            0    5888.2862    18.181729    22.599593    19.246827  0.064085095   -6.9226903  0.053840989    7908.5149    3421.2361    6494.3132    7749.3092   -1682.6241   -1475.8003   -248.97145 
   45000    252.99527   -162.83307   -129.90195   -162.83307            0    5010.4586    18.175301    22.692406    19.336279 -0.035872609   -7.1141026  -0.12519529    7975.0801    5245.5448    4480.8601    5304.9709     898.7894    345.87959    715.26372 
   45500    262.09354   -163.62279    -129.5074   -163.62279            0    8186.3749    17.960109     22.56432    19.403269 -0.046263256   -7.1828868  -0.13223738     7863.323    9150.4523    10485.063    4923.6094    428.49147    988.96672    1268.3544 
   46000    265.99963   -163.65941   -129.03557   -163.65941            0    4486.6855    18.004485    22.750671    19.487889 -0.0063262144   -7.2006578   0.06213717    7982.5144    4909.8692    4485.0143     4065.173    -1299.842    1476.9968     1043.425 
   46500     266.2008   -162.99792    -128.3479   -162.99792            0    8905.8558    18.157578    22.689179    19.216266 -0.0061247822   -7.0379459   0.30069629    7916.7279    10250.392    6933.9805     9533.195   -1040.2168   -1647.2843   -1381.3708 
   47000    257.74076   -161.62852    -128.0797   -161.62852            0    7318.7308    18.305909    22.630079    19.071784 -0.080354162   -6.7347909   0.25972608    7900.7565    2059.7728    12044.883    7851.5368    1007.9701   -1003.2756    -1267.345 
   47500    268.25126   -161.88402   -126.96711   -161.88402            0    7189.2642    18.235583    22.667554    19.370401  -0.17190756   -6.4308551  0.059941477    8006.8723    8096.3863    6726.4541    6744.9521     1406.512    616.32132    337.72541 
   48000    263.65213   -161.01507    -126.6968   -161.01507            0    2878.6686    17.977413    22.479415    19.578912  -0.14092577   -6.2652751 -0.063781372    7912.2639    7024.7007    3012.8951     -1401.59    2058.3928    -2038.324   -442.17784 
   48500    265.30967   -162.52784   -127.99382   -162.52784            0    4197.7262    17.952249    22.483778     19.62113   0.01331083    -6.410617 -0.024244415    7919.7625    6552.5095    4126.2838    1914.3853   -3320.0302   -2301.1986     -310.867 
   49000    268.05958    -161.1867   -126.29474    -161.1867            0     6362.876    18.176175    22.674657    19.462183    0.1176223   -6.7856235  0.058376844    8021.1157    6274.2822     7743.677    5070.6689    241.78667    1999.9465    2498.9574 
   49500    288.81056   -160.19672   -122.60371   -160.19672            0     7088.151    18.195877    22.708516    19.174638  0.017780727   -7.0232146  0.031300332    7922.9866    9058.5413    6459.5984    5746.3133   -4502.1512    1180.2077   -5438.3025 
   50000    274.76799   -161.75382   -125.98866   -161.75382            0    4994.0562    18.199351    22.761872    19.290289  -0.12298283   -7.1726926 -0.051744301    7991.0271    5931.3383    4890.9607    4159.8697   -1377.3476    791.25336   -1078.9293 
   50500    259.56374   -161.74279   -127.95669   -161.74279            0    6721.5815    18.005615    22.644873    19.399125   -0.2116131   -7.1732527 0.0033182389    7909.6992    6133.2797    7257.5271    6773.9378    782.03005    150.10997   -1247.1254 
   51000    253.03859   -159.84759   -126.91083   -159.84759            0    6475.1216     17.99009    22.604351     19.54275  -0.11379955   -7.0237919   0.12431505    7947.1435    6392.6522    8501.5254    4531.1872   -27.387504   -30.228697    1516.5951 
   51500    269.81384   -163.23921    -128.1189   -163.23921            0    6626.3944    18.157056    22.498447    19.514924   0.13309972   -6.8064408   0.20960471    7971.9551    2577.9112    9769.8173    7531.4547   -1614.8603    89.625024   -4029.8789 
   52000    254.93949   -162.58507   -129.40088   -162.58507            0    4807.8614    18.225392     22.39242    19.294462   0.22889107   -6.5422228   0.12907515    7874.2752    2939.3518    6788.4182    4695.8142   -1947.7841     1061.478   -3459.5698 
   52500     274.8779    -162.4813   -126.70182    -162.4813            0    9294.5363    18.262948    22.596406    19.263725   0.14676265   -6.4312341 -0.081745317    7949.6957    5653.1173    10693.509    11536.982    709.83482   -2115.3019    1016.7928 
   53000    267.54826   -163.12451    -128.2991   -163.12451            0     4647.267    18.023319    22.807996    19.338507 -0.034888354   -6.4596877  -0.14900246    7949.5924     3510.893    4909.2778    5521.6304   -405.29501   -1034.1642   -774.24664 
   53500    254.81263   -160.56928    -127.4016   -160.56928            0      8036.04    17.812833    22.905187    19.373924  -0.14400715   -6.6468131 -0.034307649    7904.6826    10948.189    7226.8337    5933.0972     1159.015    2516.9419   -14.538731 
   54000    263.59001   -161.14583   -126.83564   -161.14583            0    5726.0221    17.937075    22.968764    19.397249  -0.10948323   -6.9443593   0.20188461    7991.5198    7422.7798    3630.1999    6125.0865   -2638.6312   -4299.9982     846.1681 
   54500    259.92914   -163.62528   -129.79161   -163.62528            0    6010.2832    18.090328    22.775039    19.226744 -0.0038513265   -7.1983349   0.30597286    7921.5709    5631.9058    5875.9529     6522.991   -2624.6412     2328.317    475.30706 
   55000    272.21941   -163.69348   -128.26005   -163.69348            0    7093.2614    18.198921    22.554611    19.235641 -0.051029752   -7.2772386   0.25780835    7895.6456    5683.0985    7577.4904    8019.1954    2217.2167   -3986.1652   -161.64442 
   55500    259.88019   -164.04405   -130.21676   -164.04405            0    7666.2224    18.176431    22.553385    19.450708  -0.10119186   -7.2086859  0.089833617    7973.6243    8862.9725    7306.0637    6829.6311    -291.7828    810.97754     651.9078 
   56000    277.49011   -162.77899    -126.6595   -162.77899            0    5867.6816    18.028857    22.503345    19.492596  -0.19131403   -6.9893053 -0.072549097    7908.3332    4574.8801    6449.4419    6578.7227     2739.568   -823.96931    273.76459 
   56500     259.4029   -161.18483   -127.41966   -161.18483            0    5814.5961    18.126265    22.605955    19.491549  -0.17403563   -6.7855588  -0.10950044    7986.8869    5595.3628    5740.7789    6107.6465     1171.568    733.83506    250.84868 
   57000    263.37896   -162.02567   -127.74296   -162.02567            0    9000.6349    18.096644    22.618902    19.280532  0.051028755   -6.5332696  0.053476473    7892.0272    4501.3591    11935.266    10565.279   -1908.3293   -642.60802    412.57272 
   57500     259.2028   -161.92927   -128.19014   -161.92927            0   -619.72168    18.169887    22.744918    19.272165   0.20201831   -6.4077606   0.23541074    7964.6575   -2211.9183   -1769.2897    2122.0429   -1012.5981   -696.33537    718.04433 
   58000     268.1229   -162.68852   -127.78832   -162.68852            0    4164.9887    18.019368    22.685013    19.356369  0.040546234   -6.4096363   0.24854532    7912.2952     2176.508    5762.0872    4556.3709   -354.28051    764.70806   -3535.4945 
   58500    278.72814   -164.18118   -127.90054   -164.18118            0    5516.7806    17.904181    22.645343     19.50766  -0.32099565    -6.607428  0.017766954    7909.3088    5952.2672    6578.0138    4020.0609    1468.1635    657.43129    1151.1002 
   59000    272.68573   -162.50876   -127.01463   -162.50876            0    2619.0593    18.064382    22.749953    19.498281  -0.47274257   -6.9848139  -0.10537283    8013.0882   -374.32118      4774.68    3456.8192   -196.04799   -322.31877    1772.5243 
   59500    267.81566   -161.44042    -126.5802   -161.44042            0    8043.9308    18.130411    22.661859     19.19262  -0.25232984   -7.2328102 0.0072593165    7885.6489    5789.2655    10216.137    8126.3894    2469.7875    311.92205    -728.3501 
   60000    262.80162   -163.52376    -129.3162   -163.52376            0     4306.446    18.152369    22.752983    19.250732 -0.0024773343   -7.3082098   0.11934223    7950.9477    5769.6443     2466.397    4683.2968   -505.46869    1449.2885    3596.6599 
   60500    260.57052   -163.12042   -129.20327   -163.12042            0    6195.0211    18.034343    22.744898    19.395727  0.093783272   -7.1824963   0.10173366    7955.9194    9693.8963    4306.7357    4584.4314    238.47078   -1247.7166   -1303.0947 
   61000    261.31085   -162.37391   -128.36039   -162.37391            0    6391.2729    17.985049    22.660455    19.417861  0.068330994   -6.9361857 -0.029100811    7913.7376    7062.5075    3901.4158    8209.8955    664.40446   -1519.6876    2255.4659 
   61500    267.33496   -162.56879   -127.77114   -162.56879            0    7967.7241    18.170655    22.543545     19.38405  0.059716735   -6.7419927 -0.068353316    7940.3072    9277.2951    7097.2108    7528.6664    1158.2302   -1260.3334    1426.6679 
   62000    266.87217   -161.55017   -126.81277   -161.55017            0    6284.3974    18.224501    22.446031    19.432154  0.065315987   -6.5904019  0.016754182    7949.0666    5511.1827    7539.6607     5802.349   -2948.4508   -1694.2851   -2217.5004 
   62500    265.93811   -162.37883   -127.76301   -162.37883            0    8549.8902    18.105046    22.483686    19.374011 -0.029043796   -6.4625256   0.12648002    7886.5434    11498.008     8585.899    5565.7638   -157.68058   -2461.4499   -14.961185 
   63000    276.81691   -160.99454   -124.96268   -160.99454            0      3262.89    18.162801    22.724366    19.377787  -0.29543682     -6.59227    0.1758132    7997.9519     1695.744    3061.5315    5031.3944    291.81714   -916.02726    2164.3401 
   63500    273.25672   -163.04652   -127.47807   -163.04652            0    6971.8897    18.018679    22.926453    19.203681  -0.65640371    -6.766929  0.054943006    7933.1252    6062.5552    7603.9752    7249.1388     3160.889    384.99367     45.82534 
   64000    271.47979   -162.49754   -127.16038   -162.49754            0    4702.6572    17.944858    22.976172    19.166031  -0.62845311   -7.0209276 -0.036323496    7902.2342     3799.966    5735.9842    4572.0214    2921.1517    2258.9299    2100.2368 
   64500    263.23692   -162.29294   -128.02871   -162.29294            0    5827.2015    18.072397    23.052463    19.349214  -0.19088589   -7.1995396  0.033405173    8061.1394    6723.5195    6122.1273    4635.9579     1541.996    1589.3641   -1728.3542 
   65000    263.89112   -163.81201   -129.46263   -163.81201            0    9135.1924    17.928154    22.682833    19.278544   0.22473172   -7.0752365   0.10731151    7839.8383    10276.272    6765.8955     10363.41   -612.82235   -448.05648    303.65993 
   65500    253.87911   -162.50594   -129.45978   -162.50594            0    8180.0366    18.097737    22.637205     19.42593   0.29183713    -7.006911   0.11007286    7958.4574    10025.173    8567.5818    5947.3551   -782.91238    1860.7276    1349.7696 
   66000    270.95474   -160.92447   -125.65565   -160.92447            0    7268.4028     18.20604    22.558553       19.372  0.088927465   -6.8964194 -0.046631876    7956.1177    6163.4845     8783.963     6857.761   -728.80986   -1883.4903    188.52074 
   66500    272.35585   -161.59794   -126.14676   -161.59794            0    7501.5173    18.116915    22.539239    19.321057  -0.11953805   -6.7255476  -0.12377251    7889.5886    4688.5262    9444.6879    8371.3377    2836.9138    790.85209    992.74341 
   67000    261.33724   -162.61889   -128.60194   -162.61889            0    3041.6685    18.086984    22.710038    19.433673  -0.19683289   -6.6616793 -0.0019573649    7982.4994    1694.4192     2669.322    4761.2644    1366.9849    1109.2362   -2734.7115 
   67500    261.72073   -162.00542   -127.93855   -162.00542            0    8280.8652    18.003329    22.740226    19.379572  -0.18832628    -6.627349   0.26210417    7933.9924    9635.8909    8021.9376    7184.7671    814.05456    2265.7745    58.143821 
   68000     258.4673   -162.14713   -128.50375   -162.14713            0    6003.8956    17.939318    22.703378    19.362619 -0.051984891   -6.6752129   0.33297328    7886.0678    5240.8214    6341.3771    6429.4883   -891.34164    -476.8298    1145.3537 
   68500    269.56688   -162.61176   -127.52359   -162.61176            0    4344.8522    18.161365    22.750721    19.307371  0.082903917   -6.8907784    0.1714835    7977.4999    4347.2397    6153.6267    2533.6901    938.60386    2157.2815   -2464.4397 
   69000    267.85146   -164.41598    -129.5511   -164.41598            0    5582.9699    18.285785    22.551731    19.191338   0.22774767   -7.0912954  -0.19733477    7914.0492    4264.7854    4971.7784    7512.3458   -880.71828   -1849.7831   -729.85919 
   69500    267.24127   -164.11145     -129.326   -164.11145            0    3773.4352    18.232165    22.452328    19.373837   0.29418631   -7.1702887  -0.43046568    7930.7681    1540.5374    4182.8265    5596.9415   -1266.1408   -6.9323577    69.217671 
   70000    263.60291   -163.31874   -129.00687   -163.31874            0    7070.7827    18.109401    22.488465    19.500204   0.21054209   -7.1063844  -0.28321046    7941.5093     9220.903    6149.1541     5842.291   -1790.4044   -901.65182   -996.77709 
   70500    262.47032   -163.80624    -129.6418   -163.80624            0    5669.9421    18.023967    22.610411     19.46267 -0.045753725   -6.9106124    0.1461032    7931.6083    9288.4404    4381.5229     3339.863    1773.7058     2159.585    475.95945 
   71000    248.98441   -161.25632   -128.84727   -161.25632            0    5250.9403    18.007942    22.711078    19.347955  -0.31070439    -6.770926   0.44583926    7912.9226    6584.1983    5330.2476    3838.3751    557.88676   -453.78984   -3976.9151 
   71500    267.22507    -163.9068   -129.12346    -163.9068            0    8487.6014    18.031822    22.768624    19.312834  -0.36319096   -6.6995794   0.42374158    7929.0725    8323.6528    8451.5704    8687.5809    3136.2011   -333.26745   -2739.0047 
   72000    280.65019    -161.6013   -125.07048    -161.6013            0    4396.1748     18.09256    22.766212    19.259285  -0.26354404   -6.7049996   0.15744138    7932.8816    6597.6362    2740.2609    3850.6272     2176.139   -1804.5003   -4021.0501 
   72500    269.84234   -163.45414   -128.33012   -163.45414            0    6777.1307     18.19306    22.715726    19.358483 0.00036304923   -6.7815089  -0.10658122    8000.2527    8790.5951    8809.1958    2731.6013    563.00851    574.68564   -2302.2658 
   73000    263.71232   -163.25985   -128.93375   -163.25985            0    7876.1783     18.03171    22.493986     19.37474   0.22599709   -6.7792152  -0.22782858    7858.4923    7497.6591    9781.5515    6349.3242    16.123936    438.61205   -3115.1225 
   73500    268.70511   -162.93395   -127.95795   -162.93395            0    6652.1825    18.085114    22.528513    19.554433    0.2504955   -6.8211719  -0.15865987    7967.0768     3033.561    9181.5203    7741.4662   -585.53819    908.78478    717.98792 
   74000    252.74716   -161.09667   -128.19785   -161.09667            0    5866.9736    18.118776    22.545497    19.496695   0.19322819   -6.9045636    0.1087301    7964.3378    5737.1358    7339.6126    4524.1724   -2732.2782   -721.69805    2932.8982 
   74500    256.31396   -162.36606   -129.00296   -162.36606            0    8108.6945    18.134258     22.49662    19.274574  -0.18573735   -7.0012912   0.34284392    7863.2459    5864.5625    10041.875    8419.6459    1363.5128    558.38152    2613.9053 
   75000    269.02393   -162.32835   -127.31086   -162.32835            0    5054.2996    18.212967    22.714325    19.366267  -0.59176206     -7.04194   0.40335532    8011.7327    3002.2039    7432.3424    4728.3526    1832.2605    2071.1529    1429.5002 
   75500    266.83943   -163.38088   -128.64773   -163.38088            0    5577.2838    18.012545    22.700978    19.336818  -0.58942442    -6.887418   0.33562134    7906.8709    5968.5216    5796.4451    4966.8848    2768.0755    2011.2954    679.72414 
   76000    257.31287   -161.29224   -127.79912   -161.29224            0    5018.9703    18.001476    22.705119    19.331985  -0.28608837   -6.8015308   0.16956748    7901.4781    1713.0138    6710.4719    6633.4253   -644.61817    -1688.141   -2387.1959 
   76500    243.18658   -163.87461   -132.22024   -163.87461            0    6219.0576    18.120542     22.74745    19.374521   0.18435526   -6.8322223 -0.0091611741    7986.1025    5213.0087    7915.2455    5528.9186   -3513.2376   -848.81624    1505.3973 
   77000     250.4714   -163.92753   -131.32493   -163.92753            0    5495.7592    18.133119    22.597126    19.246679   0.33633866   -6.8318008  -0.14027649    7886.4494    5884.4319     880.8845    9721.9611    1831.2359   -2376.4545   -679.77374 
   77500    266.62459   -163.30549   -128.60031   -163.30549            0    6947.7627    18.130827    22.583424    19.345874   0.26944628   -6.8837634  -0.13414013     7921.287    3814.9974    9930.8309    7097.4598   -1507.6779    939.93293    2578.7807 
   78000    280.60417   -162.02989   -125.50506   -162.02989            0    11772.404    18.102414    22.649979    19.506877   0.12231945   -6.9214411 -0.024597152    7998.1961     16720.01    9923.4471    8673.7533    300.72464   -383.32493   -2614.4378 
   78500    257.29529   -163.09492   -129.60408   -163.09492            0    2957.6087    18.016903    22.576293    19.350833  -0.16557399   -6.8850358   0.05735026    7871.0457    447.28739    4782.9308    3642.6079    527.73109   -1455.2108   -1533.0594 
   79000    260.70361    -163.5277   -129.59322    -163.5277            0    6231.8255    18.081849    22.810692    19.316437  -0.45426347   -6.8733721   0.13027045    7967.2475    8383.2076    3247.2234    7065.0455    3039.5506   -1009.8309    -1579.526 
   79500    264.79157   -161.91664   -127.45005   -161.91664            0    11451.584    18.120884    22.791701    19.243294   -0.5429912    -6.915229   0.17728547    7947.5916    12650.366    11788.768    9915.6169    877.77056    2703.7513    26.486996 
   80000     274.0174   -162.60935   -126.94188   -162.60935            0     5862.095    18.090227    22.630801     19.24456  -0.28646157   -6.9171231   0.24212705    7878.6521    3054.7695    8521.8452    6009.6702    655.97352    490.49296   -2229.6065 
   80500    265.31479   -162.21315   -127.67846   -162.21315            0     9702.121    18.183069    22.652614    19.495411   0.28354456   -6.9834445   0.18531062    8030.0436     12670.85    7348.6856    9086.8272   -1208.6561   -1818.6057   -2475.4134 
   81000    258.97247   -161.27602   -127.56688   -161.27602            0    3577.7744    18.087374    22.408881    19.482332   0.56962746   -6.9651347 -0.067880563    7896.5361    6491.4789    5107.4981   -865.65393   -691.05433   -584.67518    453.73701 
   81500    260.97521   -162.48308   -128.51325   -162.48308            0    5166.5018    18.151375    22.491747    19.462418    0.4630449   -6.9510597  -0.27066427    7945.6518    2062.1056    6915.5015    6521.8981     969.9076    2211.5609    507.85931 
   82000    262.91437   -163.32323   -129.10099   -163.32323            0    4105.9974    18.172466    22.701687    19.380445   0.16289503   -6.8679309   -0.2563551    7995.3181    8522.2049    2116.4826    1679.3047   -1756.4213   -3052.1828     583.4415 
   82500    271.52448   -161.21705   -125.87408   -161.21705            0    5707.6799    18.053893    22.689145    19.233444  -0.14520477   -6.7710795 -0.026563107    7878.5455    4712.9624    4680.4564    7729.6208   -947.63064    1447.6597   -2852.2139 
   83000    271.33069   -163.12986   -127.81211   -163.12986            0    5791.3249    18.072541    22.849671    19.403051  -0.25013487   -6.7102219   0.16550213    8012.5216    3000.8852    5603.7592    8769.3303   -2.8462343   -1123.8695   -169.32463 
   83500    273.04391   -162.90022   -127.35947   -162.90022            0    7444.7558     17.99838    22.713308    19.369369  -0.20961636   -6.6801919   0.20025444    7918.2512    7551.9244    6979.3418    7803.0011    1940.7818    1843.3979    2482.5493 
   84000    273.69766   -161.21654   -125.59069   -161.21654            0    5403.8151    18.055524    22.669654    19.392624 -0.088811875   -6.7194066  0.084893392     7937.643    6726.2826    3429.4673    6055.6953   -555.28799   -293.12394   -542.71708 
   84500     268.0962   -162.18164    -127.2849   -162.18164            0     7287.084    18.136077    22.764747    19.383574  0.033112894   -6.8176006  -0.12002336    8002.7647    4945.7032    10754.881    6160.6681    433.22091    2422.0898    2354.1698 
   85000      259.663   -162.09667   -128.29764   -162.09667            0    8067.3922    18.094583    22.745679     19.18874  0.052849247   -6.8456861  -0.27798161    7897.5783    4337.0225     7170.195    12694.959   -235.61165   -558.41567    2678.2555 
   85500    266.62477   -161.37136   -126.66616   -161.37136            0    10532.701    18.147764    22.746819    19.264526   0.14595706   -6.9627696  -0.14132071    7952.4714    8301.7463    11359.595    11936.761    964.38029   -1831.2657   -1650.8598 
   86000    258.74139   -161.05479   -127.37573   -161.05479            0    5005.7328    18.119182     22.72277    19.529617   0.26207466    -7.094822   0.28221947     8040.695     7499.353     4578.533    2939.3123   -1505.2926    1011.3292   -1901.8416 
   86500     271.7782   -164.33794   -128.96194   -164.33794            0    9353.5418    17.999829    22.358363    19.541912  0.049132316   -7.0638701   0.40642785    7864.5784    8676.7117    10584.375    8799.5385   -2254.5979    559.18846   -1646.2389 
   87000    253.86602   -162.67721   -129.63275   -162.67721            0    3411.0295    18.164405    22.523232    19.518419   -0.3197437    -6.978247    0.1287424     7985.397    2993.3339    3492.0247      3747.73    1379.3577   -2494.1091    541.90549 
   87500    268.10479   -163.33727   -128.43942   -163.33727            0    3876.5982    18.163384    22.605712    19.304749  -0.44281075   -6.8312266 -0.020815671    7926.4571    4487.6168    1849.3336    5292.8441    1847.1245   -257.64914    872.30465 
   88000    274.22609   -163.53398   -127.83935   -163.53398            0    9850.8591    18.136992    22.709968     19.27601  -0.23384029   -6.7661766 0.0028827341    7939.6052    7936.9244    11210.859    10404.794     1984.013   -776.75553   -787.85587 
   88500    269.79356   -163.73405   -128.61638   -163.73405            0     3726.458    18.050877    22.844042    19.376685  0.083616925   -6.7314865   0.07504159     7990.073    4028.5759    3558.1079    3592.6902   -523.11873    467.94527    958.49435 
   89000    249.97019   -163.51348   -130.97612   -163.51348            0    7777.6649    17.911872    22.705098    19.344349   0.17542113   -6.7007594  0.073830176    7867.1687     8012.114    7780.1985    7540.6822   -1702.0913   -1896.0133    2390.7898 
   89500    251.40963   -163.81735   -131.09263   -163.81735            0    6244.7858    18.050463    22.668887    19.455303  0.050752353   -6.7613265 -0.0049470914    7960.7967    6515.7846    7181.7081    5036.8648   -1162.9629   -922.75079   -2858.9647 
   90000    263.71113   -164.61114   -130.28519   -164.61114            0    5762.8282    18.120216    22.487667     19.31088  -0.13073117   -6.8318855  -0.11268404    7868.8244    5711.1786     4886.443    6690.8629    930.77933    1039.6307    -1157.425 
   90500    259.14872   -162.13852   -128.40643   -162.13852            0    5859.5058    18.328945    22.417691    19.323648   -0.2779897   -7.0330998  -0.10954219    7939.9446    5291.1313    5785.4619    6501.9243    974.40094   -2136.1623   -542.50994 
   91000    266.73182   -163.34719   -128.62805   -163.34719            0    4809.2258    18.322185    22.552757    19.456096  -0.26472701   -7.1628756   0.10729153    8039.5661    4892.2277    4487.1529    5048.2967    1490.6527   -16.982766   -2394.8535 
   91500    249.86708   -164.02683   -131.50289   -164.02683            0    7352.0569    17.987055    22.367832    19.421712  -0.10478602   -7.1107704   0.28973641    7813.9652    9080.2191    8371.5491    4604.4026   -1184.8919   -312.27125    1383.8251 
   92000    259.54972   -163.23082   -129.44654   -163.23082            0    8808.3252    18.024479    22.675291    19.546557 -0.092435741    -7.097487   0.24191733    7988.8793    12212.463    9924.1333    4288.3789     1111.166    1633.3906   -441.04217 
   92500    259.17069   -162.96074   -129.22579   -162.96074            0    3064.2029    18.054101    22.837953    19.324267  -0.13048819   -6.9758362 0.0066338536    7967.7567    5077.1461   -769.56752    4885.0303   -422.78218   -2603.7812    1172.3768 
   93000    269.17507   -163.49522   -128.45805   -163.49522            0    6629.9722    18.053859    22.778108    19.096708  -0.13080844   -6.8130214  -0.11558753    7853.1922    4484.0603    6183.6547    9222.2017   -573.58088   -410.94901   -526.42264 
   93500    261.29232   -163.52719   -129.51608   -163.52719            0    2459.3534    18.136491    22.876098    19.308466 -0.047190516   -6.7404165  -0.10644961    8010.9312   -41.707361    2163.6191    5256.1484   -4.9520817    2223.2376   -3830.3564 
   94000      263.301   -163.68036   -129.40779   -163.68036            0    5364.5921    18.034707    22.527149    19.379515  0.033486201   -6.6816693 -0.033397699     7873.326    5988.7712    7864.8361     2240.169    332.72582    166.20663   -805.86752 
   94500    260.07164   -163.36941   -129.51719   -163.36941            0    5595.7507    18.080766    22.464882    19.580255  0.076229572    -6.776126  -0.01334735    7953.1527    8219.8937    5508.4765    3058.8818    -3212.659   -722.29831    259.70263 
   95000    252.99518   -163.95659   -131.02548   -163.95659            0    4858.4079    18.099154    22.517203    19.535959  0.025322386   -6.8545032 -0.028061798      7961.73    5783.4746     2344.636     6447.113    495.91266   -2107.6558   -285.76152 
   95500     267.3744    -163.0654   -128.26262    -163.0654            0    8959.6298    18.114056    22.469583     19.29375 -0.001139971   -6.9483031 -0.052889637    7852.8507    5820.9271    10043.677    11014.285   -3047.5615   -1239.6221   -1508.0233 
   96000    273.41721   -162.48494    -126.8956   -162.48494            0    4119.3222    18.265417    22.760288    19.373707 -0.023426442   -7.0147688   -0.0625993    8054.1569    1670.4702    4177.1112    6510.3851    1228.7955    1441.9077   -3460.8138 
   96500    275.01901   -162.52707   -126.72923   -162.52707            0    6457.6319    18.038996    22.628978     19.22843 -0.098350615   -6.9333885 -0.026995013    7849.1227    8899.1153    6353.5181    4120.2624    2069.5524   -846.67686   -1067.0614 
   97000    268.83368   -163.86778   -128.87505   -163.86778            0    4124.2748    17.990254    22.896186    19.442407  -0.16576888   -6.8855137    0.0956742    8008.4866    876.46197    4518.7179    6977.6446     -192.802   -1321.1254   -2007.3947 
   97500    269.56091   -162.81257   -127.72518   -162.81257            0     9887.196    17.887767     22.83909    19.442118  -0.12999444   -6.8350744   0.14780037    7942.8893    14608.676    6396.4884     8656.423    706.43698    1379.8377   -1064.9011 
   98000    255.83053   -163.23076   -129.93059   -163.23076            0    6471.8507    18.005119     22.61047    19.345464 -0.039204808   -6.7963968  0.055057386    7875.6197     4982.616    7352.0934    7080.8427   -1921.6706   -675.55926    223.24086 
   98500     260.3582    -163.2107   -129.32118    -163.2107            0    8778.4441    18.321868    22.570107    19.453695  0.045401925   -6.8482295 -0.083148767    8044.6192    6241.5593    12107.238    7986.5344    85.457057    814.57755   -1266.9065 
   99000     267.6572   -162.68025   -127.84066   -162.68025            0    8133.4126    18.199637    22.276116    19.395665   0.14888715   -6.8279462  -0.17885949    7863.3367    7163.1325    8654.2995    8582.8058    -1731.119   -1700.8262   -678.83832 
   99500    266.24448   -161.22183   -126.56613   -161.22183            0    3257.7057    18.169182    22.445972    19.641613   0.14302226   -6.9155796  -0.12221634    8010.3402    3553.6132    4103.3908    2116.1133   -1101.9034   -949.24207   -1189.6128 
  100000    258.80593   -162.13639   -128.44892   -162.13639            0      3184.28    18.039143    22.589174    19.631143  0.066137832   -6.9899779   0.11290037    7999.4815    2784.7884    3925.0249    2843.0266   -2387.4239    705.78717    721.88995 
  100500    263.54235   -161.70142   -127.39743   -161.70142            0    6034.1636    17.934891    22.653915    19.277962    -0.130136    -7.004596   0.30411771    7832.5494     8784.544    5082.0837    4235.8631   -363.28353   -135.89545    492.48052 
  101000    263.28952   -163.81875   -129.54768   -163.81875            0    3517.6934    18.161349    23.036827    19.222678  -0.29026073   -7.0508012   0.25543748    8042.3812    -1073.055     5670.707    5955.4283   -1182.5141    273.11261    1454.8407 
  101500    262.93012   -162.82729     -128.603   -162.82729            0    7970.3759    18.015061    22.872311    19.086887  -0.29265182   -6.9515288   0.15142295     7864.677    10173.157    4396.5768    9341.3937    973.32754   -371.50911    -93.77151 
  102000    265.74001   -163.14135   -128.55131   -163.14135            0    7351.6714    17.969081    22.920384    19.341518  -0.17641438   -6.8858814  0.056361929    7965.9634    10349.217     6425.208    5280.5893    1037.8508   -2228.6832    -1865.687 
  102500    257.45304   -162.46014   -128.94878   -162.46014            0    6516.4302    17.963723    22.799466    19.506998 -0.044020197   -6.8600407 -0.068298192    7989.3504    8607.8508    7698.8344    3242.6055    3.5136114   -329.96954     1045.723 
  103000    265.31748   -162.03491   -127.49987   -162.03491            0    9354.5035    17.958124    22.570824    19.312837    0.1808724   -6.7802541  -0.07799488    7828.0658    13198.494    6408.9595     8456.057   -308.78742   -1538.3074   -1992.5827 
  103500    259.87626   -163.55761   -129.73083   -163.55761            0    5695.1543    18.296825    22.619417    19.369351   0.27527312   -6.8937508  0.022768411    8016.2673    3789.5193    7076.8776     6219.066    1084.0593     61.88889   -789.87358 
  104000    274.71539   -163.39993   -127.64161   -163.39993            0    7153.7852    18.179855    22.530336    19.315966   0.11709749   -6.8976197  0.089282137    7911.7858    8085.9888    4364.6258    9010.7412   -1524.0888   -27.886531   -2973.3376 
  104500    258.71005   -163.44506   -129.77007   -163.44506            0    5663.8869    18.009453    22.678001      19.4244  -0.15589396   -6.8753267  0.065355085     7933.282    7059.8251    6989.3442    2942.4914     712.5423    -320.6786    715.22409 
  105000    269.23856   -162.09944   -127.05402   -162.09944            0    4132.4228    17.941638    22.851914    19.471008  -0.25747935   -6.9488368   0.10474913    7983.1284    4996.4393    3583.5809    3817.2482    5791.1639   -423.95179    2453.2483 
  105500     266.1696   -161.75624   -127.11028   -161.75624            0    9980.8529    17.928633    22.854111    19.299598  -0.19071676   -7.0045554   0.13060333    7907.8745    11367.348    10589.316    7985.8947     587.2595     277.3652    3207.1843 
  106000    262.39587   -162.46604   -128.31129   -162.46604            0    5769.0126    18.222288    22.910424    19.202362   0.18074997    -7.070745    0.1531537    8016.6085    1552.1499    6165.9926    9588.8954    227.41648    1720.6651    2601.7951 
  106500    270.66116   -162.82623   -127.59563   -162.82623            0    8682.1405    18.238616    22.653575    19.113454    0.4730625   -6.9613707   0.05732103    7897.1032    10898.811    6687.2109       8460.4   -367.51811   -390.38429   -718.30606 
  107000    259.88613   -162.60436   -128.77629   -162.60436            0    9561.7718    18.199805    22.587904    19.397664   0.36120944   -6.8240131  -0.25008747    7974.2913    9977.9967    6732.0615    11975.257    -2454.397   -1477.4813    4392.0918 
  107500    269.32574   -163.06601   -128.00923   -163.06601            0    4203.0641     18.05703    22.573888    19.560845  0.048953535   -6.6556596  -0.37078718      7973.34     5367.271    2463.1898    4778.7316   -927.49811   -429.92874   -2163.9017 
  108000    267.79994   -162.45736   -127.59919   -162.45736            0    7447.0157    17.957046    22.555539    19.455761  -0.13734671   -6.6479302  -0.21976945     7880.183    7313.0994    6839.5919    8188.3557    944.44439    553.79908    3149.4153 
  108500    265.35818   -161.29512   -126.75478   -161.29512            0    5672.7405    18.096218    22.851008    19.434782  -0.14566479   -6.7271603   0.10842503    8036.6091      2976.73    4924.7931    9116.6984    1239.0384     155.8124    342.61943 
  109000    271.66107   -162.80921   -127.44845   -162.80921            0    4155.1739    18.016719    22.727629    19.248053   -0.1223507   -6.8146889   0.35784428    7881.6411    9101.5656   -557.84014    3921.7962     1144.342   -2130.4886    -819.4491 
  109500    268.21618    -163.0305   -128.11816    -163.0305            0     9046.634    18.125166    22.720282    19.324233   -0.1171359   -6.9737014   0.34528582    7957.8908    12730.456    9583.5235     4825.922   -1515.4065    1.9994853   -875.96083 
  110000    261.48433   -162.51103   -128.47493   -162.51103            0    5572.9161     18.16781    22.596414    19.377364   -0.2139803   -7.0755785   0.11038886    7954.9379    5064.4157    5787.6303    5866.7024   -231.95662   -312.70464    1045.4141 
  110500    257.93762   -163.14829   -129.57385   -163.14829            0    5911.6728    18.157282    22.397414    19.356914  -0.14304313   -7.0299816  -0.19007606    7871.9951    5494.9659     8211.583    4028.4695   -2366.3338    1016.0678   -592.14326 
  111000    263.12659   -162.61484   -128.36498   -162.61484            0    5483.4359    18.188267    22.492731    19.493175   0.14634639   -6.9311161  -0.20408033    7974.7323    4889.5604    6738.3758    4822.3715    1578.4359     1155.337    4354.8058 
  111500    266.34152   -162.92954   -128.26121   -162.92954            0    4026.7331    18.154894    22.530149    19.453318   0.39606187   -6.7431641  0.017151875    7957.0389    2864.3683     3458.697    5757.1341   -3049.5815   -502.16414    1196.9568 
  112000    260.89969   -162.07236   -128.11236   -162.07236            0    6474.8139    18.115159    22.661832    19.303905   0.37860417     -6.56544    0.1294366    7924.6911    6461.0946    5867.0643    7096.2826    184.79637   -604.16693    1546.3399 
  112500    263.95538   -163.99484   -129.63709   -163.99484            0    6918.9097    18.078612     22.82194    19.215327  0.055690161   -6.5050094  0.069042993    7928.0321    7344.3628    6505.9363    6906.4301   -547.05831   -376.51401    2233.5116 
  113000    272.04366   -164.28922   -128.87867   -164.28922            0    6572.7902    17.936663    22.866324    19.268261  -0.33990267   -6.5932466 -0.045521916    7902.7916    7865.1606    5263.4269    6589.7831    843.95203     2.979038   -117.71904 
  113500    252.47388   -160.96504   -128.10179   -160.96504            0     8897.523    17.898575    22.860639     19.50883  -0.52337677   -6.8081932  -0.07366498    7982.4836    11190.089    8947.0484    6555.4317    2012.8396    1487.0748    4744.5405 
  114000    268.50345   -163.15505    -128.2053   -163.15505            0    10486.374    18.008853    22.578634    19.423002  -0.34192371   -7.0181919   0.15076567    7897.6895    12766.117    11022.826    7670.1797    947.71716    635.79003    1854.9795 
  114500    266.04063   -161.53483   -126.90566   -161.53483            0    6307.5261    18.261843    22.509587    19.334749  0.011954446   -7.1983258   0.37107146    7947.8685    6583.0305    5011.8066    7327.7413    827.99363   -142.64583   -1545.8714 
  115000    272.57716    -162.8942   -127.41421    -162.8942            0    6094.6017    18.229594    22.480886    19.395116  0.094761107   -7.1935457   0.26168824    7948.4565    5398.3489    6019.6876    6865.7687    1569.4969   -774.84575     1734.007 
  115500    272.25183   -162.55921   -127.12156   -162.55921            0    5831.0719     18.05153    22.567855    19.449071  0.014134634   -7.0808986 -0.019138574    7923.2461    4505.0681    5748.2256    7239.9221    987.08423    2201.2855   -488.32754 
  116000    262.80237    -163.8501   -129.64244    -163.8501            0    6520.4193    18.026347    22.642576    19.496184 0.0062074801   -7.0025595  -0.11984158    7957.6198    8884.3031    5472.0139     5204.941    464.58809    -305.3016    362.81258 
  116500     274.0228   -163.02505   -127.35689   -163.02505            0    7520.8705    18.140967    22.630484    19.321853  0.029579954    -6.909334 -0.066096146    7932.3718    5073.4297    8102.7314    9386.4504    1301.8497    1770.0725    1869.6594 
  117000    258.99237   -163.46058   -129.74885   -163.46058            0    5385.9532    18.143085    22.709628     19.16696  0.031591032   -6.7755807  0.093451582    7897.2231    5391.3564    6826.8124    3939.6907   -3708.8772    515.97809   -1018.7208 
  117500     258.3387   -163.53155    -129.9049   -163.53155            0    4285.0701    18.121711    22.741494    19.290666 -0.068382216   -6.6337621   0.19356361    7949.9685    1763.0839    2505.4082    8586.7184   -1537.0529   -598.99772   -744.37533 
  118000    249.51521   -162.29694    -129.8188   -162.29694            0    7961.5837    17.899365     22.71083    19.415488  -0.27024764   -6.4600373   0.10217868     7892.579     3635.466    9416.6156    10832.669    551.86455    265.55127    3468.9714 
  118500    270.40967   -163.05803   -127.86017   -163.05803            0    5943.4899    17.849079    22.658492    19.574782   -0.4480296   -6.4980771 -0.031515185     7916.692    7145.2445    6166.8826    4518.3425   -902.20935   -55.770232    2736.4609 
  119000    264.87983   -163.38777   -128.90969   -163.38777            0    2226.4404      18.0459    22.643319    19.502329  -0.29925329     -6.72043  -0.01372122    7969.0235    2811.4915    1485.9244    2381.9051   -1030.9146     1494.522   -240.64738 
  119500    268.67775   -162.31011   -127.33768   -162.31011            0    8261.6765    18.239648    22.474247    19.208684  0.011068591   -6.9459962   0.04880079    7874.0691    6403.8717    7443.6697    10937.488    1662.0362   -390.19713   -324.86192 
  120000    260.44811   -162.37875   -128.47753   -162.37875            0    4336.6285    18.326096     22.56312    19.229636   0.17700294   -7.1738126 0.0042839559    7951.3375    3647.3873    3286.0496    6076.4487    428.27438    -74.05832    537.65575 
  120500    258.80543   -162.18226   -128.49486   -162.18226            0    3512.4234    18.106046    22.626026    19.344537   0.16219676   -7.2540684 -0.065220098    7924.8351    4594.1073    2291.2396    3651.9232   -940.66988    2414.1442    1231.1305 
  121000    265.22707   -162.99108   -128.46781   -162.99108            0    4659.0956    17.943956    22.707667    19.393534 -0.029885182   -7.2294307 -0.067516446    7902.1938    5558.8232    4560.6867    3857.7768    1150.5667    1717.0571   -2248.5534 
  121500    262.98249   -162.68682   -128.45571   -162.68682            0    3132.9519    18.008213    22.805553    19.394286  -0.23437064   -7.1086173 0.0016296814    7964.9862     1231.784    6093.3419    2073.7297   -3896.4313    997.13717   -1971.1705 
  122000    272.38256   -162.05509   -126.60042   -162.05509            0    7484.3949    18.081406    22.652266      19.2412  -0.39916465   -6.8618889   0.15461888    7880.9037    3272.6931    7838.6105    11341.881    3276.4536     340.7707    841.89361 
  122500    263.79066   -159.90693   -125.57063   -159.90693            0    7137.3094    18.263498    22.678323    19.221955  -0.41761455   -6.5859476   0.23833634    7961.4551    8610.6045    6526.0121    6275.3117   -1149.3723   -1781.0324    -1315.301 
  123000    263.26306   -161.93234   -127.66472   -161.93234            0    5992.9185    18.202621    22.565879    19.341464  -0.33608189   -6.3088839   0.18302304    7944.6641    2715.8235    4463.5691    10799.363    2220.1348   -1487.1369   -378.94287 
  123500    265.77877   -162.34722   -127.75214   -162.34722            0    9635.8937    17.953971    22.491553    19.481553 -0.067720444   -6.2298398  0.039700174    7866.8987    12908.917    8994.3581    7004.4057    3897.4297   -2457.3989    292.58033 
  124000    264.15316   -162.31386   -127.93037   -162.31386            0    744.41627    17.980661    22.614481    19.669401   0.25871334   -6.4573189  -0.13426445    7998.0372    2037.5955    2350.7212   -2155.0679   -1833.7077    -384.9636   -2536.8648 
  124500    279.06893    -163.1951    -126.8701    -163.1951            0    6909.4006    18.032822    22.490585    19.490922   0.27410607   -6.7644397  -0.23675321    7904.9082    8885.4323    8448.8004    3393.9692   -1241.5394   -427.42576   -2145.5969 
  125000    268.23198   -161.38118   -126.46678   -161.38118            0    8589.9892    18.148333    22.538417    19.374205  0.095189715   -7.0793404  -0.15249201     7924.722    13264.864    5411.9617    7093.1418    527.93742   -2723.6043   -3400.0305 
  125500    267.73978   -161.99946   -127.14912   -161.99946            0    6370.9255    18.197559    22.649003     19.41028 -0.046726541   -7.2612088 0.00057591036    8000.0744    6152.8366    6609.9258    6350.0142   -1676.9383    2363.6122     1171.629 
  126000    267.53979   -162.60024   -127.77593   -162.60024            0    10343.028    17.991303    22.617803    19.352188 -0.067379996   -7.1876554   0.15584871    7874.8651    14134.969     7650.359    9243.7573   -217.30486    895.63219    234.75691 
  126500    253.05391   -163.53909   -130.60034   -163.53909            0    4077.0906    18.082679    22.660536    19.432647  -0.11271917   -7.1272507   0.21637597    7962.7835    4220.3085    2747.9621    5263.0011    703.98149   -1263.2399   -2681.9629 
  127000    259.27346   -161.88525   -128.13693   -161.88525            0    4535.7167    18.196024     22.51442    19.329544  -0.14222702   -6.9130619   0.10280849    7918.7909    5025.7269      3110.12    5471.3033   -48.865575   -392.49322    2121.2874 
  127500    263.71241   -162.47548   -128.14936   -162.47548            0    6262.1044    18.373608    22.456731    19.315987  -0.14163898    -6.677847 -0.069466476    7969.9916    7204.0064    6762.7079    4819.5989   -1200.6638   -69.709785   -1694.9085 
  128000     262.6831   -162.18435   -127.99221   -162.18435            0    2070.3966    18.252663    22.497917    19.430084 -0.010578639   -6.4265965  -0.12265626    7978.9042    1362.1844    -290.7085     5139.714   -1311.6907   -2240.4222    1173.9405 
  128500    262.82835   -161.83875   -127.62771   -161.83875            0    6548.1577     17.88715     22.53631    19.574895   0.15604873   -6.2991532 -0.029092242    7890.8431    10105.567      8432.34    1106.5659    1495.0706    -21.89949    234.34222 
  129000    262.35881   -161.41557   -127.26564   -161.41557            0    6922.4452    17.922518    22.685481    19.591834     0.162958   -6.4596621  0.026269729     7965.666    9466.1786    3209.1075    8092.0494   -1183.6445   -2244.3644    1170.9872 
  129500    277.94779   -163.58938   -127.41031   -163.58938            0    2299.5249    18.162141    22.723515    19.317375 0.0031256231   -6.7850006 0.00034799361    7972.4292    628.80343    3820.9721    2448.7991   -1754.7849   -1269.0356    1619.7162 
  130000    259.16619   -162.83558   -129.10122   -162.83558            0     7638.559    18.235042    22.682984    19.194016   -0.1050629   -6.9640934  0.025893872     7939.128    10328.407    5930.5833    6656.6868   -1908.8026   -2120.7809    447.51585 
  130500    277.04451   -164.10951   -128.04802   -164.10951            0     8403.294    18.138407    22.631032    19.356162  -0.13530574   -7.0009472  0.037510771    7945.5276    8462.4111    8271.6479    8475.8231   -899.76465    1432.4996   -3445.8079 
  131000    250.63725   -162.08671   -129.46252   -162.08671            0    3364.5409    18.011888    22.653823     19.50121  -0.11257886   -6.8963361  0.021214948    7957.2375    8595.6425    1060.6951    437.28518    154.57339    -2244.535    642.19832 
  131500    252.77549   -163.13919   -130.23668   -163.13919            0    5191.9585    18.029153    22.606321    19.506595 -0.0039689813   -6.7851924  0.085456128     7950.358    3703.7422     7695.762    4176.3713    -3349.123    743.19485   -3200.8888 
  132000    270.09222   -163.06755   -127.91101   -163.06755            0      10949.9    18.084383    22.495231    19.343201  0.060009972   -6.7120375   0.11899571    7869.0533     10702.79    11014.045    11132.864    2160.0587   -503.40899    2135.5523 
  132500    268.35498   -161.95119   -127.02077   -161.95119            0    3343.1521    18.315355    22.681748    19.281573  0.096546406   -6.7412037   0.07990485    8010.0334   -589.84728    2898.7528    7720.5508     2065.588   -583.71281    421.66211 
  133000    280.53236   -162.35199    -125.8365   -162.35199            0    5691.6859    18.233488    22.670933    19.273009  0.016197773   -6.7946343 -0.077195542    7966.8873    4330.7555     7277.011    5467.2911    1878.5308   -954.93933    4433.8566 
  133500    269.04789    -161.4086   -126.38799    -161.4086            0    5219.4645    17.890494    22.633844     19.43918  -0.15236329   -6.8731233  -0.15819483    7871.5196    9575.4926     4488.942    1593.9588    910.66275    285.94467   -238.12427 
  134000    252.94702   -163.30311   -130.37827   -163.30311            0    4931.8074    17.883002    22.826975    19.578469   -0.1588376   -7.0419942  0.016969665    7992.2217    5390.0307     7098.394    2306.9975   -1918.7996   -46.664526    426.74926 
  134500    255.09163   -161.76374   -128.55974   -161.76374            0    4543.5175    18.040249    22.704675    19.254731 -0.058958324   -7.1100311   0.20765418    7886.6988    1508.0491    5496.7301    6625.7735     730.9971    2476.4874   -1996.1924 
  135000    253.86944   -163.20577   -130.16086   -163.20577            0    1542.0402    18.263557     22.81051    19.159439 -0.023363188   -7.0814889   0.22192161    7981.8424    1207.9275    712.41002    2705.7831   -4579.4652   -2262.3571   -2009.3987 
  135500    257.64287   -162.14863   -128.61255   -162.14863            0    4066.8375    18.208625    22.633554    19.208858  -0.09468634   -6.8850958   0.14597554     7916.468     2649.674    4425.1308    5125.7078    177.42865    614.99997   -1544.8684 
  136000    273.05951   -163.39756   -127.85477   -163.39756            0    8956.3968    18.094564     22.49449    19.434545  -0.14885385   -6.6640013 0.0038267537    7910.4035    6527.0779    7507.6166    12834.496    2743.1649   -896.56385   -2572.0721 
  136500    267.73631   -162.40172   -127.55184   -162.40172            0     3237.073    18.098868    22.541044    19.639859  -0.17288603    -6.502674 -0.085381313     8012.422    2423.8464    7083.8866    203.48597    -1629.153   -541.37921   -5232.7954 
  137000    268.57885   -162.58699   -127.62743   -162.58699            0    5087.4863    18.032258    22.483266      19.4383 -0.064995353   -6.4239279 -0.058143604    7880.7545    4001.4892    3990.9902    7269.9794    1273.1319   -428.80466    1982.2488 
  137500    278.23555   -162.57839   -126.36187   -162.57839            0    5125.7847    18.110638    22.711399    19.446571   0.15404972   -6.5649118  0.093625519    7998.7233    1864.8135    5167.5809    8344.9597   -2090.5201   -241.42943   -490.66144 
  138000     258.3024   -161.19188   -127.56996   -161.19188            0    5390.1842    18.087266    22.833719    19.370468   0.29872191   -6.8245579   0.18990996    7999.9942    5341.5269    7902.1541    2926.8718   -1587.0387   -886.34202   -1882.2273 
  138500    261.90566   -162.09423   -128.00329   -162.09423            0    6478.7748    17.994374    22.776821    19.175633   0.11726155   -7.0698906 -0.0045796183    7859.2216    4895.5271    8877.2861    5663.5111   -1222.9573    1571.2581   -2304.6316 
  139000    253.13495    -163.5626    -130.6133    -163.5626            0    8983.8782    18.103467     22.96876    19.253505  -0.24088777   -7.3035473  -0.24642567    8005.8806    8965.4662     9064.383    8921.7853    1574.5337    2105.1458    2519.6589 
  139500    260.22195   -162.71508   -128.84329   -162.71508            0    5924.0288    18.027365    22.809646    19.248077  -0.30619556   -7.2206516  -0.15466522    7914.7674    4519.0303    8261.1089    4991.9472    1579.2214    2070.5858   -585.33047 
  140000    263.48652   -161.79196   -127.49525   -161.79196            0    7780.4963     18.11691    22.722919     19.31167  -0.15740794   -7.0913809  0.084988245    7950.0173    6486.4766    10662.656    6192.3564    2053.6116    3150.5328   -3050.6565 
  140500    267.05384   -160.71471   -125.95366   -160.71471            0    8484.0719    18.213012    22.614555     19.38915 -0.058599207   -6.8713387   0.16810507    7985.9866    7882.8585    9001.1006    8568.2566    1377.0356    2235.6896   -937.44315 
  141000    260.84863   -162.00258   -128.04922   -162.00258            0    10016.739    18.157241    22.481234    19.392501 -0.045272207   -6.6541634   0.13634501    7915.9646    13083.502    8559.0364    8407.6796   -1314.4374    408.76931    4026.1533 
  141500    264.17885   -163.09679   -128.70996   -163.09679            0    6070.6107    18.137459    22.479721    19.477716 -0.047771722   -6.6344209  0.055140607     7941.552    1392.1505    9346.7516      7472.93   -1530.2229    554.12014    -1517.608 
  142000    262.49519    -162.8632   -128.69553    -162.8632            0    7779.7863    18.060179    22.635162    19.424665  -0.13877526   -6.6841879 -0.051435286    7940.7073    9681.2778    9060.9574    4597.1238    156.86529   -757.39909    3227.7882 
  142500    271.13892   -162.20255   -126.90976   -162.20255            0    6668.6615    18.104783    22.903632    19.265253  -0.21482397   -6.7903963 -0.024290144    7988.6315    6656.2166    5205.7918    8143.9761   -426.28387   -2176.6458   -2786.1109 
  143000    266.46394   -161.36734   -126.68307   -161.36734            0    5539.6858    18.139568    22.985252    19.041245  -0.23143022   -7.0125951  0.075211033    7939.1047    6883.6675    4363.6147    5371.7753    118.93199    636.94915    319.20265 
  143500    266.55861   -162.43478   -127.73819   -162.43478            0    5913.1128    18.099976    23.031628    19.092059  -0.17682291   -7.2405962   0.21189062    7958.9434     8242.681    3586.7724    5909.8851    522.54931     2217.197   -613.41684 
  144000    261.77844   -161.55379    -127.4794   -161.55379            0    6225.0797    17.921024    22.860752    19.378333  0.014284103    -7.274335   0.26841282     7939.072    9120.7062    4065.7694    5488.7635   -1925.4744    791.97343    1314.7787 
  144500    263.97516   -161.84065   -127.48033   -161.84065            0    4212.9337    17.985185    22.550975    19.603042      0.11822   -7.1982593   0.10722439    7950.6692    1068.4271    7394.1696    4176.2045   -808.46589     1548.905   -2081.9143 
  145000    276.04722   -162.37179   -126.44011   -162.37179            0    4446.2548    18.281148    22.417077    19.571835    0.1314621   -7.0144728  -0.14002324    8020.7319    6017.7077    2750.7976    4570.2589   -670.03104   -988.38466    4114.6442 
  145500    267.45248   -161.45201   -126.63906   -161.45201            0     6949.602    18.256528      22.3255    19.394641  0.098353633   -6.7757956  -0.25583496    7904.9862    12508.185    5012.0125    3328.6085   -2051.0331   -491.90175    2453.3348 
  146000    267.81514   -163.76585    -128.9057   -163.76585            0    2403.7303     18.18094    22.516051    19.500232 -0.0020570043   -6.6097598  -0.18002679    7982.6725    2739.5582    422.95738    4048.6753    -1176.208   -357.11817   -1479.9295 
  146500    254.39503   -161.98442    -128.8711   -161.98442            0    8035.6202    17.873814    22.733586    19.388838  -0.10086651   -6.4878079   0.06510762    7878.3808    11322.304    7898.6841    4885.8727   -1408.8803   -224.12113    1396.3807 
[...]
  365000    267.52083   -162.85126   -128.02942   -162.85126            0    6624.2826    18.031333    22.635933    19.293619 -0.037392086   -6.8230407 -0.013789578    7874.8072    12318.874    5151.3339    2402.6401    2267.4582    275.86623    2699.6122 
  365500    267.31283   -163.42311   -128.62834   -163.42311            0    5702.7038    18.130487    22.621272    19.543149    0.2352262   -6.7807235  0.048602479    8015.3232    1976.5077    7291.3108    7840.2928   -2313.7046   -505.53809   -593.97324 
  366000    266.52091   -161.09846   -126.40677   -161.09846            0    5245.1074     18.08734    22.456668    19.421896    0.2596154   -6.6700419  0.072491331    7888.8125    2746.6036     6531.089    6457.6295    1753.5953    70.727045   -1677.5778 
  366500    262.53223   -162.11576   -127.94326   -162.11576            0    6065.5166    18.193591    22.655356    19.367179   0.08930875   -6.5934432  0.075906649     7982.808    6203.2785    4390.6691     7602.602    -1510.955   -1819.3119    984.63903 
  367000    267.72249   -162.55442   -127.70633   -162.55442            0    4991.9015    18.185917    22.688752     19.25391  -0.19662371   -6.6061838  0.055039092    7944.4666    4821.3795    4594.8247    5559.5002   -1166.3893   -2753.5699    321.41367 
  367500     266.0442   -162.40465   -127.77501   -162.40465            0    4923.7467    17.983426    22.755157    19.284061  -0.40168011   -6.6528708  0.040577565    7891.3402    6933.2601    5251.2479    2586.7321    1132.2816    1280.1711     450.0132 
  368000    269.56825   -162.58306   -127.49471   -162.58306            0    6376.0536    17.913503    22.990805    19.457961  -0.30336687   -6.7859531   0.10555249    8013.6803    7281.7136    6297.0995    5549.3479    2298.7289   -722.17734   -3570.4213 
  368500    268.70235   -162.84418   -127.86855   -162.84418            0    6578.7545    17.900493    22.804029    19.258944   0.14130582   -7.0173988   0.10675111    7861.5656    8169.5216    8619.5537    2947.1881    990.85854   -694.57888    629.75943 
  369000    267.46505   -162.71898    -127.9044   -162.71898            0    6829.1554     18.19301    22.750673    19.250317   0.39630129   -7.2430351 -0.024949275    7967.7685    8082.7573    6595.8967    5808.8124    -1725.222    1233.5716    -2405.576 
  369500    269.70532   -163.18022   -128.07403   -163.18022            0    5820.2795    18.249277    22.596276    19.323703   0.32327839   -7.2483073  -0.10152823    7968.4324    7068.2447    5082.4265    5310.1672   -899.70067   -1212.7811   -1296.3427 
  370000    284.29801   -162.95596   -125.95032   -162.95596            0    3729.5352    18.142704    22.474223     19.43759  0.076467582   -7.0499247  -0.14953028    7925.5443    3410.6502    3759.0607    4018.8947    454.23591    800.89313    -137.1782 
  370500    278.48435   -164.96716   -128.71825   -164.96716            0    4456.0695    18.142515    22.508332    19.472231   -0.1170402   -6.8628222 -0.0046800215    7951.6367    2330.1689    5495.4261    5542.6137   -152.96631    1576.2092   -1586.4276 
  371000    263.63028   -163.24908   -128.93366   -163.24908            0    8772.1275    18.140536    22.567782     19.31404  -0.21240989    -6.705098   0.18941787    7907.0069    8893.9181    9342.5125    8079.9519    438.44792    932.37154     332.2458 
  371500    260.55451    -163.3021   -129.38703    -163.3021            0    2236.4495    18.133732    22.701649     19.23156  -0.16743127   -6.6477298   0.24880162    7916.9716    104.47141    2455.8243    4149.0527   -275.15738    500.97843   -582.23979 
  372000    263.23165   -162.99855   -128.73501   -162.99855            0    5129.9634    18.020768    22.860352    19.255643 -0.038893674   -6.6393638   0.14225566    7932.5759    5659.7251    6164.9451    3565.2199    1146.1891   -455.46295   -2583.5264 
  372500    267.45217   -164.18158   -129.36868   -164.18158            0     5386.817    17.899794    22.898575     19.30515   0.25412182    -6.766246 -0.034218842    7912.7905    7866.5893    3726.9079    4566.9538   -1539.3814    1293.8234   -319.24732 
  373000    258.40375   -165.77656   -132.14144   -165.77656            0    8165.0971    17.899039    22.802942    19.389077   0.45383077   -6.9931137   -0.1822712    7913.6664    5965.3509    8271.8103     10258.13   -419.52497    622.12213   -1300.1194 
  373500    250.97463   -162.14132   -129.47322   -162.14132            0    9097.9854    18.044932    22.534352    19.403686    0.3230263   -7.2096547  -0.20561779    7890.1376    7463.5423    8498.0286    11332.385    1624.8529    1185.8371   -1192.7733 
  374000    259.25656   -161.48283   -127.73671   -161.48283            0    9058.1239    18.370164    22.243922    19.448977 -0.070522143   -7.4124014 -0.069865348    7947.3283    8260.6534    12602.257    6311.4608    318.51586    1254.5657    -1815.387 
  374500    268.80045   -161.21758   -126.22918   -161.21758            0    7441.5112    18.438045    22.193567    19.436701   -0.3166747   -7.3644587   0.13293902    7953.6143    9641.3777    5745.1551    6938.0008    1401.4404   -1767.3801    1083.6155 
  375000    269.10445   -160.65925   -125.63128   -160.65925            0    5930.5191    18.202601    22.382727    19.447927  -0.33164085   -7.0722592   0.28206997    7923.5492    8606.8152    2890.3653    6294.3767   -102.32642   -635.33004   -4677.3503 
  375500    261.24185   -162.22035   -128.21582   -162.22035            0    7413.7715    17.960292    22.671213    19.459168  -0.21016072   -6.7707503   0.20840332     7923.415    7930.2154    9911.4627    4399.6364    744.24919    1955.9416   -369.29118 
  376000    260.01296   -161.61139   -127.76681   -161.61139            0    5308.4362    17.860843    22.945681     19.35149  -0.10931154   -6.5409956  0.066641236    7930.8056    4490.3529    4419.8839    7015.0718    1621.9727   -2332.3183   -965.25419 
  376500    283.42136   -163.59374    -126.7022   -163.59374            0    8292.6725    17.951779     22.94216    19.264955 -0.053549211   -6.5561576 -0.048490525    7934.3216      9704.23    8737.5897    6436.1978   -1112.7227   -519.72112   -123.43685 
  377000    262.51828   -163.78228   -129.61159   -163.78228            0    7839.0486    18.051759    22.758497    19.268751   0.06720451    -6.641523 -0.064362094    7916.1983    7420.4647    9364.6127    6732.0683   0.92690789     825.0617    3550.0663 
  377500    256.99947   -162.90443    -129.4521   -162.90443            0    6321.4925    18.090551    22.645958    19.350599   0.13447452   -6.8104926  -0.05660219    7927.5122    5005.8799    5978.4926    7980.1051   -1019.5809    2212.4725    2990.3436 
  378000    262.49162   -162.61236   -128.44515   -162.61236            0    8601.8883    18.158771    22.462773    19.496066  0.087296103   -7.0832318   0.02906944    7952.3743    8500.4752    9282.8148     8022.375    612.79192    1099.3785    10.852973 
  378500    267.86301   -165.05787   -130.19149   -165.05787            0    7046.1595    18.211271    22.363088    19.486241 -0.079990916   -7.2470044   0.12733565    7935.9716    5518.9787    9576.0669    6043.4327    -651.9116    1291.9303   -2621.4766 
  379000    263.34982   -162.37143   -128.09251   -162.37143            0    8487.2595    18.245325    22.451957    19.332637  -0.35583619   -7.2876658   0.15357288    7919.4845    6594.4755    9597.6407    9269.6623    2454.5505    1157.9517    608.08048 
  379500     257.1509   -162.39986   -128.92783   -162.39986            0    9385.9055    18.252191    22.668427    19.310389  -0.45366231   -7.1476209   0.17158651    7989.6437    12446.655    8786.5107    6924.5509    517.18641    1521.8398   -1385.0179 
  380000    258.98373   -162.86932   -129.15871   -162.86932            0    8650.9672    17.989976    22.740074    19.230376  -0.21444552    -6.797415   0.05779579      7867.02    6326.1679    8890.0739     10736.66    -10.64761   -2968.4497   -2047.8681 
  380500    254.37193   -163.25236   -130.14205   -163.25236            0    6839.2509     17.92193    22.893001    19.322302   0.10565684   -6.4794238 -0.033746724    7927.6846    6533.9398    6970.8407    7012.9723    833.58441    544.83324    1778.3649 
  381000    256.84203   -161.94623   -128.51439   -161.94623            0    8698.9955     17.87023    22.976194     19.34917   0.34555658   -6.3055411 -0.054048827    7944.5735    9883.5317    9601.2736    6612.1814   -478.35771   -227.32134      -549.02 
  381500    278.30186   -161.13223   -124.90708   -161.13223            0    8538.7013    17.933248      22.8383    19.268051   0.39335608   -6.3422713 -0.028837415    7891.5175     8743.289     7488.174    9384.6409   -715.47961    1771.8286   -1186.6368 
  382000    269.21977   -162.71028    -127.6673   -162.71028            0    4228.4521    18.233616    22.833462    19.337508   0.18798428   -6.5886994 -0.035526378    8050.9117    6933.0172    4241.6706    1510.6685   -95.811633   -2721.2558    3138.1995 
  382500    277.67036   -160.94464   -124.80168   -160.94464            0    5036.8553     18.11775    22.574994    19.264751  -0.16724818   -6.8027755 -0.013102882    7879.4392    6767.9118    5013.0612    3329.5931    1983.4697   -1757.0239    816.49514 
  383000    266.70897   -161.43937   -126.72321   -161.43937            0    3013.6756    18.105181    22.574278    19.423859  -0.27119594   -6.9816641   0.13976443    7938.7519    2756.3457    4437.5822    1847.0991     1537.925   -527.00522    1649.5107 
  383500    266.20841   -159.98563   -125.33462   -159.98563            0    6757.9112    18.061183    22.707825    19.442526  -0.17390174   -7.0808431   0.24859549    7973.9669    7826.9565    6699.1419    5747.6352   -354.29094    1682.0277    1527.4302 
  384000    273.13923   -163.78707   -128.23391   -163.78707            0     3067.935    18.099129    22.722199    19.297954 -0.0026738821   -7.0114893   0.17899102    7936.3225      3710.36    2686.7749    2806.6702    749.57413    1825.3646    2402.1771 
  384500    270.33543   -163.94499   -128.75679   -163.94499            0    9086.2934    18.068321    22.696156    19.179088   0.14001041   -6.8836907  0.011344983    7864.9881    5571.0676    11202.366    10485.447    868.50963   -98.594406   -702.31856 
  385000    256.57244    -163.4971   -130.10036    -163.4971            0    4236.6413    18.064986    22.834907    19.414673   0.13237232   -6.7226175  -0.18853729    8008.7911     5447.507     3792.304    3470.1128   -1886.9153   -2000.8689   -415.92837 
  385500    257.08572   -163.11522   -129.65167   -163.11522            0     6151.402     17.88333    22.573114    19.384559  0.088049953   -6.5237028  -0.27509658    7825.2064    3102.2915    7329.3174    8022.5972    2900.6413    -765.3182    -702.7312 
  386000    266.62097     -163.477   -128.77229     -163.477            0    5169.0614    18.145179    22.649212    19.454223  0.016841654   -6.5581252 -0.064345848    7995.1802    6527.7862    5387.2651    3592.1329   -1384.0286   -643.67596    1947.0794 
  386500    270.47076   -161.25442    -126.0486   -161.25442            0    5275.7876    18.281804    22.541713    19.400797 -0.071064873   -6.6454591   0.23120593    7995.1302    5920.5173    5425.2806     4481.565    1461.6532    2723.9056   -299.04887 
  387000    255.47763   -161.58524     -128.331   -161.58524            0    10677.416    18.183163    22.378361    19.306209  -0.15256982   -6.6777771   0.32630583    7855.8779    12373.802    10704.846    8953.5988     -3396.62   -980.15568   -3640.3542 
  387500    263.94677   -163.11931   -128.76269   -163.11931            0     5965.547    18.144562    22.617366    19.495325  -0.19760374   -6.8541312   0.11918645    8000.5343    8889.0146    6257.3168    2750.3095   -1590.5033    1349.3043   -1301.6463 
  388000    259.41586   -164.31244   -130.54558   -164.31244            0    10126.567    17.985429    22.666956    19.391716   -0.1780971   -6.9681731   -0.1401899    7905.5161    14622.071    7062.5388    8695.0906   -1306.0449    -228.0502   -585.87116 
  388500    259.49653   -163.98705    -130.2097   -163.98705            0    7225.1606    17.977927    22.741258    19.252653  0.024510032    -7.068735  -0.20288006     7871.268    6454.4386    6588.9835    8632.0598   -2188.7091    2169.3791   -806.13445 
  389000    267.87956   -164.88743   -130.01889   -164.88743            0     3457.531    18.108835    22.886848    19.274218   0.23496665   -7.1181716 -0.079254568    7988.2797    2096.8392    3288.0252    4987.7287    2716.2985   -201.65777    1012.8587 
  389500    266.33963   -164.43882   -129.77073   -164.43882            0    2975.7107    18.056027    22.621536    19.252808   0.22986174   -6.9624439  0.061347608    7863.9067    3043.8753     5012.951    870.30571   -1380.8949    731.85266   -348.51593 
  390000    257.19322   -163.91969   -130.44214   -163.91969            0    5997.1194    18.081988    22.573876    19.462029  0.091877985   -6.7601825   0.10202852    7944.0218    9422.0924    4753.9305    3815.3353    1859.1376   -1941.5862   -309.66025 
  390500    265.20238   -161.93472   -127.41466   -161.93472            0    1959.7157    18.159246    22.529662    19.541651  -0.12301294   -6.5764071  0.046794017    7994.9131     5307.434   -1651.0962    2222.8094    354.77002    46.086315   -2191.6586 
  391000    271.48984   -161.36827   -126.02981   -161.36827            0    4825.3775    18.086307    22.361996    19.415855  -0.27049007   -6.4665175 -0.028531468    7852.6639    4127.4877    9063.7341    1284.9108    1895.9514   -143.91524    1663.6594 
  391500     273.5598   -160.76504   -125.15714   -160.76504            0    2647.4752    18.162485    22.667093    19.530731  -0.22849475   -6.5128488 -0.034056063    8040.6213    2906.6157    2391.1526    2644.6571    2829.3046    790.99382    823.34378 
  392000    257.59531   -164.23206   -130.70218   -164.23206            0    6939.4148     18.00211    22.642307    19.382984  0.028564734   -6.7027757  0.027661853    7900.6847    3757.9327    6529.2003    10531.111   -3369.8787   -578.42822   -1602.7312 
  392500    260.03261   -164.06572   -130.21858   -164.06572            0    9277.8344    17.971811    22.759793    19.315558   0.26432213   -6.9292741  0.041140014    7900.7338    6259.1696    8250.9109    13323.423   -901.46232   -167.53802    1214.8289 
  393000    264.57905   -161.93063   -127.49171   -161.93063            0     7129.575    18.067009    22.880833    19.360668   0.26408184   -7.1040612 -0.0025274922    8003.4718    9785.9091    6126.3229    5476.4931   -543.00517   -550.63373    1006.7093 
  393500    275.15131   -160.94765   -125.13259   -160.94765            0    5688.1092    18.129674    22.680224    19.312433  0.015115465   -7.1650774 -0.063925279    7940.9842    9926.7233    3224.5815    3913.0227   -1264.3481    694.46313   -1093.3878 
  394000    260.50481   -162.78433   -128.87573   -162.78433            0     9894.701    18.167248    22.598327    19.383079  -0.22621896   -7.1299568 -0.039331342    7957.7117    8485.4917     11254.41    9944.2014    1925.1931    1508.1639    4470.7239 
  394500    260.12175   -163.05437   -129.19563   -163.05437            0    9008.7741    18.157763    22.489476    19.439792  -0.24678424   -6.9176356   0.13571016    7938.4058    10155.622    7622.4965     9248.204   -877.82805   -2304.9537    1480.2754 
  395000    268.14308   -162.52323    -127.6204   -162.52323            0    8969.5581    18.146189    22.438967    19.441374  -0.17792075   -6.5655612   0.33992748    7916.1728    7444.8649    11092.264    8371.5458    1648.3883    2673.5488    2642.1049 
  395500    264.57368   -164.02447   -129.58625   -164.02447            0    5726.1584    18.162394    22.561215    19.409101 -0.061930702   -6.2649145   0.30473133    7953.1835    5336.7472    4300.5336    7541.1944    2519.5017    94.660675    661.21596 
  396000    256.04358   -163.34645   -130.01854   -163.34645            0    4416.5578    18.049673    22.637217    19.384816  0.048549777   -6.1492567 -0.039469878    7920.5262    4651.8957    5627.1721    2970.6056   -549.81681   -199.59487    1989.0285 
  396500     257.7576   -163.52786   -129.97685   -163.52786            0    11149.008    17.935712    22.815227    19.356596   0.10879217    -6.217708  -0.35708573    7920.8611    12731.462    12467.034    8248.5266   -647.20594    224.56922    1493.1052 
  397000    264.76722    -163.2295   -128.76609    -163.2295            0    4593.2869    17.884274    22.890601    19.371542   0.17706619   -6.5471067  -0.40258081    7930.3563    5767.7025    3377.7506    4634.4075   -2875.0178   -60.164489    1084.0198 
  397500    255.06234   -161.28324   -128.08306   -161.28324            0    1524.2961    18.007986    22.889083    19.354617   0.19657261    -7.037504  -0.13187722    7977.7077    2799.5632    1441.4345    331.89064    20.236132    802.61857    2374.3335 
  398000    262.93368   -162.65812   -128.43337   -162.65812            0    8112.7781    18.057279    22.745818    19.272374   0.13231588   -7.2463203   0.16050613    7915.6954     7494.898     8427.892    8415.5445    938.07857    1107.5468   -3799.3075 
  398500    263.25584    -161.5881   -127.32141    -161.5881            0    3950.2182    18.149694    22.684106     19.32069 -0.042427398   -7.2292936    0.2008902    7954.5132    3887.0739    3627.2811    4336.2995   -713.79651    1179.0688    2008.3293 
  399000    256.46936   -165.20511   -131.82178   -165.20511            0    6352.4477    18.202753    22.548723    19.345555  -0.26601169   -7.0889028    0.1037167    7940.3602    6413.2841    6984.2083    5659.8508   -3092.0752    614.99461     2035.698 
  399500    260.67407   -162.53043    -128.5998   -162.53043            0    9347.3466    18.072343    22.472395    19.391088  -0.31496967   -6.7719048  0.021713039    7875.2796    7994.1744    9094.3297    10953.536   -1175.5919   -2239.6974    627.89488 
  400000    252.58339   -163.66615   -130.78864   -163.66615            0    5403.0048    18.037219    22.577164    19.577933  -0.10523316   -6.5059038 -0.00092896814    7972.7071    5061.9062    6388.0461    4759.0621   -3001.2352   -168.34067   -1071.7674 
Loop time of 2559.68 on 1 procs for 400000 steps with 1008 atoms

Performance: 6.751 ns/day, 3.555 hours/ns, 156.270 timesteps/s
71.0% CPU use with 1 MPI tasks x 1 OpenMP threads

MPI task timing breakdown:
Section |  min time  |  avg time  |  max time  |%varavg| %total
---------------------------------------------------------------
Pair    | 2199.4     | 2199.4     | 2199.4     |   0.0 | 85.92
Bond    | 0.05       | 0.05       | 0.05       |   0.0 |  0.00
Neigh   | 327.91     | 327.91     | 327.91     |   0.0 | 12.81
Comm    | 11.454     | 11.454     | 11.454     |   0.0 |  0.45
Output  | 1.9766     | 1.9766     | 1.9766     |   0.0 |  0.08
Modify  | 17.34      | 17.34      | 17.34      |   0.0 |  0.68
Other   |            | 1.587      |            |       |  0.06

Nlocal:        1008.00 ave        1008 max        1008 min
Histogram: 1 0 0 0 0 0 0 0 0 0
Nghost:        5076.00 ave        5076 max        5076 min
Histogram: 1 0 0 0 0 0 0 0 0 0
Neighs:         0.00000 ave           0 max           0 min
Histogram: 1 0 0 0 0 0 0 0 0 0
FullNghs:      269512.0 ave      269512 max      269512 min
Histogram: 1 0 0 0 0 0 0 0 0 0

Total # of neighbors = 269512
Ave neighs/atom = 267.37302
Ave special neighs/atom = 0.0000000
Neighbor list builds = 40000
Dangerous builds not checked

unfix		3
unfix		2

write_data	data.final.${pid}
write_data	data.final.0
System init for write_data ...

write_restart   restart.lmp.${pid}
write_restart   restart.lmp.0
System init for write_restart ...
Total wall time: 0:42:42
