LAMMPS data file via write_data, version 23 Jun 2022, timestep = 400000

972 atoms
2 atom types

-0.012239159785353948 20.003292159784102 xlo xhi
0.01731934680316094 19.97373365319445 ylo yhi
0.3419139358519505 20.458858064147847 zlo zhi

Masses

1 1.008
2 15.999

Atoms # full

2 0 2 0 2.47347705390649 2.137485058366066 0.87190493514386 0 0 0
31 0 1 0 1.1208156626727754 1.7979508882018607 2.0444438021704476 0 0 0
32 0 2 0 0.9863088206451291 0.8566352083036258 2.1633623490173113 0 0 0
33 0 2 0 0.9461432475248247 2.2671041742747855 2.8842297534720935 0 0 0
5 0 2 0 3.2562880043776365 1.3816191149844994 4.05959385244587 0 0 0
18 0 2 0 3.9341204197415 3.3672590033524976 3.3179201903100624 0 0 0
10 0 1 0 0.9323756077727664 3.7728225936964637 3.9723971005758845 0 0 0
12 0 2 0 1.7946164687482318 4.1788162666311734 4.087982900163615 0 0 0
20 0 2 0 0.8173608264177702 4.918490000195648 2.5515421109582084 0 0 0
16 0 1 0 3.729368552475837 4.29925526647101 3.6213826548448176 0 0 0
4 0 1 0 4.119607311988475 1.5829756921684952 3.641743799456774 0 0 0
35 0 2 0 4.895885794162822 2.4112121649080787 0.7824616476196321 0 0 0
230 0 2 0 4.484005899691148 0.36409207888802125 2.4179686176776674 0 1 0
36 0 2 0 6.372482871463139 2.475852860146811 1.553710962376271 0 0 0
67 0 1 0 7.703336696218761 2.072181143479171 2.365981249920734 0 0 0
68 0 2 0 7.788092568005221 2.785463012642454 2.951983734052404 0 0 0
272 0 2 0 7.677672024475197 0.25114342521166333 2.4157510859802187 0 1 0
34 0 1 0 5.841335533783099 2.79791400884294 0.7806753957352233 0 0 0
6 0 2 0 4.778422096043448 1.3833550700407184 4.291161035738796 0 0 0
69 0 2 0 8.421207514101724 2.1531569283215695 1.7566534638322848 0 0 0
41 0 2 0 9.835189559135523 1.1701028490041239 3.6572038075515225 0 0 0
39 0 2 0 10.183887845118038 2.845927438420426 0.6072292814204494 0 0 0
40 0 1 0 10.768115881749896 1.4170751467721967 3.3894106665067563 0 0 0
54 0 2 0 10.87345658112088 3.275087864303338 3.3392104743153848 0 0 0
42 0 2 0 11.288158568209639 1.1803392491091567 4.180576594605064 0 0 0
52 0 1 0 10.770726456278219 4.178675880538261 3.714261479786746 0 0 0
46 0 1 0 8.10172346330643 4.23185788218811 4.054871047738548 0 0 0
266 0 2 0 11.239364365968688 0.04347695014511471 2.3163071980085457 0 1 0
70 0 1 0 12.086790397631653 2.943208383339994 0.6191983942664718 0 0 0
72 0 2 0 12.687108324057878 2.697282803070877 1.332184511420175 0 0 0
103 0 1 0 14.351048286133718 2.254663901567514 2.3924186239754803 0 0 0
105 0 2 0 14.574380469282245 1.519065665995637 2.952009135283391 0 0 0
84 0 2 0 14.295878405657037 3.290973142699285 3.783724675472559 0 0 0
104 0 2 0 15.022805290517397 2.424482977728751 1.6762133170298001 0 0 0
82 0 1 0 14.53415746914584 4.175433077970173 4.095845081286062 0 0 0
83 0 2 0 14.354978860545486 4.8023609271879995 3.3369768862007576 0 0 0
90 0 2 0 16.207729688494226 3.892442434199813 3.404621817066528 0 0 0
76 0 1 0 17.7319572636643 1.2021133756700493 3.5924636551227422 0 0 0
77 0 2 0 17.850592563781234 0.5798512503293051 2.8436272772856923 0 0 0
89 0 2 0 17.377631418202718 2.793937689826974 3.3277857832518456 0 0 0
108 0 2 0 19.60686932487898 2.2864008357258516 1.1627914151414216 0 0 0
107 0 2 0 18.10291216170547 2.067879254325362 0.7192842756822138 0 0 0
78 0 2 0 18.240602658265573 0.8419760164661415 4.355055268291572 0 0 0
88 0 1 0 17.151964883407445 3.7101661844081253 3.256043608680381 0 0 0
106 0 1 0 18.96018228275807 2.4129105056447764 0.4378965456706617 0 0 0
73 0 1 0 16.226554839164606 2.4836070200697935 0.471670135446682 0 0 0
86 0 2 0 17.849491974031693 4.912429576858666 2.0242788132440923 0 0 0
19 0 1 0 0.8217663012675486 5.5531040056924335 1.8063729234046757 0 0 0
21 0 2 0 0.9216191784880007 6.387445626534511 2.271522625792139 0 0 0
112 0 1 0 3.924035052546826 7.841729555029426 3.578300218191057 0 0 0
139 0 1 0 1.2024748729845165 8.38586668677802 2.3507051387553295 0 0 0
141 0 2 0 1.9574102653617083 8.71894065329777 1.8295044335220316 0 0 0
119 0 2 0 1.2158989519141186 9.805008662591693 3.5621343196315745 0 0 0
140 0 2 0 0.3436508469257069 8.35816956619786 1.8915854047957497 0 0 0
131 0 2 0 2.045023064895779 7.359063960397663 4.134480539506718 0 0 0
675 0 2 0 1.9182723910838024 5.282141066809454 0.580750397931845 0 0 1
110 0 2 0 3.9476543375458366 9.517297614188559 0.7732544311019589 0 0 0
109 0 1 0 3.0083424269187495 9.310176808453523 0.5149902497584301 0 0 0
14 0 2 0 4.709642898211922 5.768190648011103 1.1631752974483853 0 0 0
17 0 2 0 4.109381314167439 5.022169500292699 3.0423218727973573 0 0 0
56 0 2 0 7.905620398036798 5.267323837190362 2.819839498428546 0 0 0
114 0 2 0 4.379266558406823 7.489412486417298 2.7983317533046086 0 0 0
13 0 1 0 5.201259896850011 6.29493089667089 1.7593773649227917 0 0 0
113 0 2 0 4.566754786560961 7.726442521070563 4.30842028622347 0 0 0
15 0 2 0 6.158212421944381 5.988712616630111 1.610030934367116 0 0 0
55 0 1 0 7.888643775356716 5.9345129978701125 2.115209538939035 0 0 0
177 0 2 0 7.706610794973691 7.666019139254524 2.5641898055220227 0 0 0
126 0 2 0 4.234860262800975 9.453773457697665 3.804129467535926 0 0 0
175 0 1 0 7.419440926813765 8.557788392504403 2.6748082626374106 0 0 0
176 0 2 0 6.724521731661863 8.724050114585935 2.0374750724195287 0 0 0
155 0 2 0 7.770249396020555 9.946740359031457 3.6129028958519545 0 0 0
142 0 1 0 5.836248042839392 9.458496575111608 0.6155538209324567 0 0 0
57 0 2 0 8.418771865182116 5.615231356057512 1.3380529500366556 0 0 0
51 0 2 0 11.003534229602565 5.403876482746732 2.631704758351818 0 0 0
149 0 2 0 9.586809797978242 8.059765306429368 3.800767566530965 0 0 0
50 0 2 0 10.82502200568152 5.9620036878450655 1.1626879456881933 0 0 0
49 0 1 0 11.350469200363944 6.10629621472824 1.9927348890224033 0 0 0
150 0 2 0 10.694470598546818 7.60853154071396 2.8693807951995707 0 0 0
148 0 1 0 10.433805293753458 8.291523251564646 3.476339269571548 0 0 0
147 0 2 0 9.070452295069765 9.221910422183377 1.3608100021350116 0 0 0
179 0 2 0 11.179598267097957 9.085105715369883 0.7924392434114902 0 0 0
162 0 2 0 10.690899293295777 9.978350482509034 3.8901055328453533 0 0 0
145 0 1 0 9.395999440382322 9.416114595162995 0.49278057346616144 0 0 0
91 0 1 0 14.16076481404394 6.02735954905393 2.2216733054838427 0 0 0
92 0 2 0 14.415484513018416 6.9501048892698805 2.333366267353966 0 0 0
93 0 2 0 13.181837233483513 6.159127609274795 2.1671834089675164 0 0 0
747 0 2 0 15.31421402057973 5.338508529668156 0.7909683799277574 0 0 1
204 0 2 0 15.805899797881352 7.425151497478971 4.2674189634999955 0 0 0
178 0 1 0 12.086689392401333 9.276505665059489 0.5608832417476823 0 0 0
211 0 1 0 14.101200278716007 8.737418010560308 2.5028856208857415 0 0 0
213 0 2 0 13.394927757024654 9.039775687375435 1.9322092460651263 0 0 0
212 0 2 0 14.300616434146326 9.410448305083426 3.1842465538452838 0 0 0
183 0 2 0 15.498510871316483 8.854011276426222 1.3533844142000646 0 0 0
85 0 1 0 18.102519521349087 5.69640268970593 1.480458816609891 0 0 0
87 0 2 0 19.021325714558124 5.633907524614044 1.2318327961979878 0 0 0
185 0 2 0 17.75907190826309 6.81332727284489 2.8788002663888657 0 0 0
184 0 1 0 17.50331923481999 7.517044099187037 3.5261757748304965 0 0 0
186 0 2 0 17.56166723531991 8.370760489296018 3.114172373716605 0 0 0
216 0 2 0 17.894241492622797 9.046616649425976 0.8861125828634246 0 0 0
214 0 1 0 18.835855613854733 9.249332469360699 0.8772175163633354 0 0 0
181 0 1 0 16.146671978650772 8.893397180383923 0.6217222244890327 0 0 0
118 0 1 0 1.2924331829066456 10.647090241698885 4.051528069262292 0 0 0
120 0 2 0 2.2720317651816786 10.813050139164352 4.159676138138465 0 0 0
782 0 2 0 1.8295884468052785 12.10059162321742 0.8252482155622214 0 0 1
124 0 1 0 3.9785937474827247 10.372436557204562 4.086921438124499 0 0 0
129 0 2 0 0.805124654670178 11.940949588960812 2.757866175916172 0 0 0
127 0 1 0 0.6305536246293728 12.639457531664608 2.148634888631495 0 0 0
221 0 2 0 3.299537536495571 14.680297182129982 3.8781005756192632 0 0 0
249 0 2 0 0.6648809215857487 14.235084767677654 2.4155344079423844 0 0 0
123 0 2 0 3.902835118151718 11.949074857711189 1.2528272135925103 0 0 0
122 0 2 0 4.250905381531915 11.535795870157513 2.731915717871603 0 0 0
156 0 2 0 7.764524789873756 11.429737521016058 3.2565129365842336 0 0 0
220 0 1 0 4.0172258125469025 14.771126829808496 3.180821672009961 0 0 0
222 0 2 0 4.199227987146124 13.877631088412016 2.8024849261714913 0 0 0
121 0 1 0 4.383841895753471 12.195260113522176 2.0405760553790344 0 0 0
163 0 1 0 7.085165950763439 12.78583272095619 2.290957812572173 0 0 0
164 0 2 0 7.243783906553345 13.74829033095712 2.123407131109511 0 0 0
165 0 2 0 6.165738235765269 12.575112398406018 2.120784926334931 0 0 0
154 0 1 0 8.032540450119086 10.82593614429473 3.97921766006555 0 0 0
160 0 1 0 10.64950733913718 10.918743916226296 4.1053759146405895 0 0 0
158 0 2 0 10.934610031038114 12.00833964732715 2.5802882483163816 0 0 0
819 0 2 0 8.340384238584683 12.294818960020475 1.1580243202790088 0 0 1
258 0 2 0 9.693624126637598 14.679336442805283 4.0677664434900835 0 0 0
157 0 1 0 11.312614809132091 12.580599990728247 1.9771842832358713 0 0 0
159 0 2 0 11.125850847840452 13.465028285875434 2.3402615441236643 0 0 0
256 0 1 0 10.479835085164225 14.884837990226753 3.5523025698072135 0 0 0
146 0 2 0 9.278674366846731 10.369392615622923 0.35354722419791107 0 0 0
818 0 2 0 9.797945584292936 12.681951099825998 0.989766921539999 0 0 1
817 0 1 0 9.118884894938931 12.176477062439966 0.5869643313566114 0 0 1
191 0 2 0 14.696624184770872 11.543849161176258 3.4778033534582278 0 0 0
190 0 1 0 14.780106403437902 10.722243987358121 4.017685940390024 0 0 0
192 0 2 0 15.689468078116573 10.38045796732731 4.123288036760107 0 0 0
200 0 2 0 13.02531473745994 12.476837167173343 2.0767601012912666 0 0 0
199 0 1 0 13.984495195658202 12.4979016111936 2.0748332446941156 0 0 0
201 0 2 0 14.13029861566671 13.431452467858552 2.271438645351572 0 0 0
855 0 2 0 15.06910569757048 11.922505613253847 0.6391640993070826 0 0 1
196 0 1 0 17.56076971857791 10.411899773808932 3.571696895814652 0 0 0
197 0 2 0 17.64836495710739 11.24959520926619 3.0887381892080703 0 0 0
128 0 2 0 19.675854814147954 12.650541535452808 1.950470774438381 -1 0 0
193 0 1 0 17.969295617980144 12.7612488186519 1.7666869319842258 0 0 0
194 0 2 0 17.680185454428496 13.542656649790262 2.284324329047818 0 0 0
195 0 2 0 17.226494920273005 12.384309420383211 1.2414121586482212 0 0 0
294 0 2 0 16.49531392228991 14.285559967187455 4.134422697187771 0 0 0
292 0 1 0 17.35232659565734 14.604868139425095 3.7082278403966744 0 0 0
247 0 1 0 0.6971019559710766 15.234481069988592 2.2177399783410547 0 0 0
218 0 2 0 1.787340417690378 15.700032932823309 1.0550833167462887 0 0 0
227 0 2 0 1.1061383551647983 16.619983845595954 3.173488680941905 0 0 0
235 0 1 0 0.5438128650142054 18.87338292752719 1.7730693671478344 0 0 0
236 0 2 0 0.7766654822541115 18.389240270813374 2.5708234287800336 0 0 0
237 0 2 0 1.2174609554571265 18.622058745722903 1.106095768408993 0 0 0
226 0 1 0 1.2034417293416058 17.28249919885358 3.881455085761057 0 0 0
228 0 2 0 2.1806211224902268 17.40635063900657 4.071393463240895 0 0 0
891 0 2 0 3.442449487974489 19.01961661985871 0.4746551192769439 0 0 1
217 0 1 0 2.5611159945911663 15.91897095037602 0.48056349394910725 0 0 0
283 0 1 0 7.634934327278154 15.322439486059412 2.261725290162085 0 0 0
284 0 2 0 6.883059858825072 15.690628231498954 1.7200066033060997 0 0 0
251 0 2 0 4.482215438285614 16.11782488968585 0.9015939689264942 0 0 0
232 0 1 0 4.042303971492288 17.57524805607008 3.877010554256067 0 0 0
233 0 2 0 4.0560137456582765 16.686522972587845 3.442073419271912 0 0 0
234 0 2 0 4.210343932205056 18.21795385218605 3.168371484194209 0 0 0
229 0 1 0 4.617246923051779 19.48237044620152 1.9761576375137304 0 0 0
250 0 1 0 5.418165085734809 16.355288449184506 0.8805163153465403 0 0 0
231 0 2 0 5.555848959044715 19.30572872469142 2.1577849109318303 0 0 0
271 0 1 0 7.65846575638269 19.308535151725245 2.0775190548965123 0 0 0
273 0 2 0 7.812177843357989 18.757476014400268 2.89947819917243 0 0 0
285 0 2 0 8.389863655479749 15.327863274510676 1.668763374856047 0 0 0
257 0 2 0 10.53967470566396 15.822040575886357 3.5033583819009033 0 0 0
263 0 2 0 8.023663945646636 16.783481155106784 3.413976051404056 0 0 0
262 0 1 0 8.073071124855087 17.58377980253192 3.9987421173156723 0 0 0
927 0 2 0 8.846017174338604 18.84366415737299 0.8690675331864479 0 0 1
264 0 2 0 9.027404144464821 17.638097766642474 4.093693991855188 0 0 0
265 0 1 0 11.548683579579455 19.167101916857675 1.921490124402056 0 0 0
267 0 2 0 10.98808932083193 18.99792036682745 1.1322290486235322 0 0 0
268 0 1 0 10.70453246493885 17.59737098350746 3.944919225318786 0 0 0
269 0 2 0 10.92783279662824 18.210792600348725 3.2259258776920254 0 0 0
319 0 1 0 14.083923874716902 15.129772727078274 2.625508141008338 0 0 0
320 0 2 0 13.297347170399284 15.50881322766181 2.1657870166739595 0 0 0
291 0 2 0 14.950886967833236 15.471058777142352 1.1245959215717791 0 0 0
289 0 1 0 15.451296279480243 15.693523730576 0.3649596420216099 0 0 0
321 0 2 0 14.30983936973333 15.704315065166258 3.413907050389225 0 0 0
307 0 1 0 14.213351683285854 18.97691437762878 2.199930541203758 0 0 0
308 0 2 0 13.3384019465245 19.359193359204895 2.0055862363512382 0 0 0
309 0 2 0 14.06547366786402 18.50494191922227 3.047038679354867 0 0 0
298 0 1 0 14.78524458552786 17.241342005741565 4.175165238841306 0 0 0
963 0 2 0 15.288767528415 18.667298206796865 0.8735566685522264 0 0 1
300 0 2 0 15.628858848965244 17.725928515783714 4.287019454542803 0 0 0
286 0 1 0 12.166528620916704 15.850422024222146 0.6283095805367702 0 0 0
287 0 2 0 12.386112704822985 16.788481309559778 0.39190816310525944 0 0 0
248 0 2 0 19.98327082139 15.430494576309677 1.6461667710901486 -1 0 0
290 0 2 0 16.404473404710245 15.606857335764987 0.5159707300482691 0 0 0
293 0 2 0 17.17974204465704 15.56056158891815 3.5872282591842612 0 0 0
322 0 1 0 18.761701116279234 15.754346380906597 0.4383074912066969 0 0 0
301 0 1 0 17.886981622674725 19.115076477598592 1.5342745119270762 0 0 0
302 0 2 0 17.219541030961658 18.72496070433892 0.9391442094505041 0 0 0
303 0 2 0 18.783188958270273 18.679666025139745 1.4150019716635822 0 0 0
306 0 2 0 17.66761161223591 17.99020984548128 3.1504450352876816 0 0 0
304 0 1 0 17.609628909348658 17.505230338986635 3.976320400225554 0 0 0
22 0 1 0 1.7571421267366487 1.0171352535309515 5.04017825217965 0 0 0
23 0 2 0 2.1362174368660574 1.6794274168051173 5.6281610954343915 0 0 0
325 0 1 0 2.771357033457648 2.9871870915990657 6.748847511447821 0 0 0
327 0 2 0 2.6773580938824044 3.970262461757172 6.611174326507596 0 0 0
101 0 2 0 0.0709637298217971 0.7317737435500994 5.317664582722864 1 0 0
356 0 2 0 1.867699694876711 2.3051212900260185 8.287368308323533 0 0 0
326 0 2 0 3.7540235164938847 2.8955493471804195 6.762173193183216 0 0 0
11 0 2 0 0.33336367789019516 4.009007285270976 4.692246823955396 0 0 0
24 0 2 0 1.9433422604589419 0.16808204848286118 5.430232620217684 0 0 0
357 0 2 0 0.3170006109887455 2.2158814678785013 8.38473397789263 0 0 0
29 0 2 0 7.253742571978709 0.7566501831699468 4.836822097050334 0 0 0
358 0 1 0 5.4840804942165216 2.605833862510945 7.217584596658791 0 0 0
28 0 1 0 6.297407412545857 0.856594631840538 5.0740109673252585 0 0 0
359 0 2 0 5.888734926500712 2.0746666307089865 6.502502795774502 0 0 0
8 0 2 0 5.494912258194257 4.336208686510716 6.460460904121413 0 0 0
48 0 2 0 7.426250485849119 4.322071413734654 4.761736943225403 0 0 0
9 0 2 0 4.821460539937405 4.80946662649558 5.1995743550828815 0 0 0
7 0 1 0 5.659595624664091 4.96919725491101 5.747550331000037 0 0 0
360 0 2 0 5.95845574428792 2.2926793007958755 8.031272052297656 0 0 0
58 0 1 0 9.149525305747936 0.6422002063059211 5.3213228332178995 0 0 0
59 0 2 0 9.365525345102016 1.388548399897808 5.926769042462111 0 0 0
361 0 1 0 9.222694463197262 2.673267338171207 7.275088488910532 0 0 0
363 0 2 0 9.165819279187996 3.657270997978015 7.048103172152651 0 0 0
362 0 2 0 10.173381742238512 2.59950863066685 7.514861204111165 0 0 0
53 0 2 0 11.414087025443509 4.268445216969139 4.42071503169187 0 0 0
47 0 2 0 8.985847684130826 4.166537110408276 4.457032849901275 0 0 0
394 0 1 0 12.006556255469901 2.709831673537698 7.5258671763546445 0 0 0
65 0 2 0 13.378372366753664 0.9410847950503634 5.396772798181875 0 0 0
66 0 2 0 12.401511684080555 1.3232802501418932 6.5079403920794165 0 0 0
396 0 2 0 12.295188583397714 3.587283856340032 7.265379267030968 0 0 0
64 0 1 0 12.649629971693024 0.5929103840148459 5.920433208859197 0 0 0
395 0 2 0 12.632766937819783 2.435775530573093 8.185752137453925 0 0 0
94 0 1 0 15.325077825287364 1.1991611010405154 4.892828443075722 0 0 0
95 0 2 0 15.27199608837484 1.8695488436452188 5.585317671961621 0 0 0
399 0 2 0 15.667814807086021 3.6483181393452675 6.9804475045758005 0 0 0
397 0 1 0 15.630120127994086 2.691715406751569 7.245338246872566 0 0 0
44 0 2 0 13.343257028562968 4.5459783145529835 5.501942502448771 0 0 0
43 0 1 0 12.430053211891225 4.745610149918743 5.8062361342932025 0 0 0
96 0 2 0 16.246658809118138 1.125217228865608 4.591134785614661 0 0 0
100 0 1 0 19.28896534804035 0.37266757196596867 5.7475487691716705 0 0 0
398 0 2 0 16.530781270077462 2.449904050484427 7.4793459181710205 0 0 0
430 0 1 0 18.533124268354157 2.3670817505247714 7.581195197148435 0 0 0
431 0 2 0 18.603713513273156 1.6205301269929058 7.002331571563643 0 0 0
432 0 2 0 18.62878515322896 3.095870694637607 6.96062570452466 0 0 0
81 0 2 0 18.059360133468175 4.2100755215452725 4.716347629993494 0 0 0
79 0 1 0 18.6947284138666 4.396220642384476 5.485393184881751 0 0 0
132 0 2 0 0.751682326035463 7.364079239732115 4.951566229629954 0 0 0
25 0 1 0 2.74469120892966 5.510402363711776 6.65496757594257 0 0 0
26 0 2 0 2.691467402151075 6.261828830927373 6.077192912167581 0 0 0
27 0 2 0 3.4785361556610748 5.716590604670418 7.30574552755678 0 0 0
130 0 1 0 1.7303614215074203 7.3267478760254825 5.03983274865996 0 0 0
344 0 2 0 1.3139200294748847 5.614176382657466 7.8254415022086965 0 0 0
435 0 2 0 2.3870692748059845 8.508359837379304 6.2851161570103855 0 0 0
433 0 1 0 2.567124623186125 9.134741005985502 6.9816694497393 0 0 0
434 0 2 0 3.5241116339547287 9.279601331383457 7.066214073365041 0 0 0
337 0 1 0 4.5865592562045245 6.116958301175702 8.367411416262886 0 0 0
136 0 1 0 5.707082757645507 7.635138416182213 5.69771686178579 0 0 0
138 0 2 0 6.611759353386405 7.7356875515773345 5.33373791363245 0 0 0
137 0 2 0 5.6024219780467845 6.714188960184042 5.845020396324194 0 0 0
339 0 2 0 5.520136351903012 5.944839765778824 8.291105286303177 0 0 0
466 0 1 0 5.110539714529552 9.332961924445334 7.488382100325316 0 0 0
468 0 2 0 5.4060380803247305 8.569240181043583 6.920043624023857 0 0 0
500 0 2 0 7.725091782855785 8.877666219157085 8.358069133951904 0 0 0
63 0 2 0 8.606919789505781 5.554413651432577 7.702293001362477 0 0 0
61 0 1 0 9.253048945965777 5.37917709211865 7.000731288260289 0 0 0
166 0 1 0 8.335627971015995 7.672427231551328 5.4130643362955455 0 0 0
167 0 2 0 8.71590031942416 6.870641716705182 5.823309711289083 0 0 0
62 0 2 0 10.120346866391708 5.505040887244805 7.393213404352073 0 0 0
173 0 2 0 11.901744159146189 7.674391010088591 4.466138196357673 0 0 0
168 0 2 0 8.441892999209848 8.278430922968107 6.163993419332057 0 0 0
469 0 1 0 9.02080269052165 9.384405562469249 7.1453161043185345 0 0 0
471 0 2 0 9.96157037296593 9.110041149670003 7.15637596009658 0 0 0
502 0 1 0 11.790638076920121 9.192973365971941 7.278343554210313 0 0 0
174 0 2 0 13.392211283859927 7.4974987643661954 5.016558109207201 0 0 0
172 0 1 0 12.459165015496202 7.401921317924092 5.240417343973588 0 0 0
45 0 2 0 12.324768491290792 5.69123414108057 5.680134836141398 0 0 0
416 0 2 0 14.431169991230053 5.7490596310650215 7.814028345631537 0 0 0
99 0 2 0 15.905339085876312 5.967198594120595 5.949361409442492 0 0 0
97 0 1 0 15.906290481833862 5.416379910355776 6.764598938596948 0 0 0
202 0 1 0 15.136007150763978 7.300145544630251 4.944364387142804 0 0 0
503 0 2 0 12.025362223856943 8.605077411611457 6.515896438749835 0 0 0
507 0 2 0 15.507796088307222 8.694039080150876 7.727238645165357 0 0 0
203 0 2 0 15.3739039022749 7.98148971833363 5.619370487579184 0 0 0
537 0 2 0 13.236563705974845 8.788811252077634 8.181292505539592 0 0 0
80 0 2 0 18.734386274624484 5.348731881204296 5.634211944560509 0 0 0
98 0 2 0 16.77561122218492 5.524021187085553 7.18043458583959 0 0 0
209 0 2 0 18.23269508884288 7.438211776090047 5.08916378971728 0 0 0
208 0 1 0 18.87251343795861 7.024630656543314 5.744813249493173 0 0 0
505 0 1 0 16.114708067612895 9.022428088762306 7.05435608793447 0 0 0
210 0 2 0 18.86238929727819 7.551574169263938 6.532274700303564 0 0 0
506 0 2 0 16.968245792783918 9.164721266661424 7.435641776969419 0 0 0
538 0 1 0 18.826102031595752 9.067255003710189 7.681826229534315 0 0 0
540 0 2 0 19.17164644246416 9.823370764854367 7.212518578915385 0 0 0
410 0 2 0 18.842426398376524 5.632504811029803 8.33017095749682 0 0 0
539 0 2 0 19.45860969085313 8.839075219485744 8.339123866592033 0 0 0
135 0 2 0 2.667466387862473 11.05181830021806 6.461262285479614 0 0 0
133 0 1 0 2.714458923613798 11.992734005794901 6.6066657620240665 0 0 0
189 0 2 0 0.05312349653595064 10.924868657148892 5.283819669848423 1 0 0
134 0 2 0 3.503663463732886 12.028944189031613 7.103147380262483 0 0 0
239 0 2 0 0.8892461851348167 14.228881319478937 5.093528562206514 0 0 0
453 0 2 0 0.9903136937191006 12.432795727542665 7.95928929193352 0 0 0
238 0 1 0 1.8650386070881924 14.170226640406707 5.123249517302096 0 0 0
240 0 2 0 2.0966803206968736 13.24495068693452 5.4254125144723435 0 0 0
125 0 2 0 4.632019959158719 10.697469112924965 4.69840627496281 0 0 0
467 0 2 0 5.549979621643966 10.13966499104883 7.110423337345029 0 0 0
116 0 2 0 6.7244546086022705 11.175210484407305 5.388087596882609 0 0 0
115 0 1 0 5.843785798436216 11.35687996881555 5.791457448479824 0 0 0
246 0 2 0 5.312675651912092 14.32740347115216 4.384745833204689 0 0 0
117 0 2 0 5.816800687484151 12.329908543364125 5.67443868061736 0 0 0
244 0 1 0 5.799743156859666 14.132952465214746 5.214068828131321 0 0 0
276 0 2 0 7.698205277076751 13.940370938866636 4.902322117258723 0 0 0
489 0 2 0 7.944277148751052 12.247765913913303 8.089308871821679 0 0 0
245 0 2 0 5.619612823205056 14.788997700215772 5.919872907261794 0 0 0
161 0 2 0 9.770961927751056 10.989495981429815 4.524817000901371 0 0 0
281 0 2 0 11.729254362984141 14.585583927307475 4.77478805948924 0 0 0
470 0 2 0 8.904729142169444 10.276086244758623 6.8144926602675815 0 0 0
504 0 2 0 11.97922793168237 10.03893981402747 6.850422675203078 0 0 0
152 0 2 0 11.717068569770941 11.293856310813426 5.07049591270971 0 0 0
169 0 1 0 9.124550659967658 12.041755185033548 6.7529438318864905 0 0 0
274 0 1 0 8.58912622479143 14.13390381050381 5.235928844723232 0 0 0
170 0 2 0 8.894198795935104 12.780330004202371 6.134021719993813 0 0 0
275 0 2 0 8.462842831812889 14.823424670548171 5.932058474004241 0 0 0
171 0 2 0 10.041893903983079 12.25724204061427 7.077417351298772 0 0 0
153 0 2 0 13.180248354127995 11.114961768246014 5.234028151288048 0 0 0
151 0 1 0 12.380217706044126 11.398448727744414 5.749786928242634 0 0 0
206 0 2 0 15.200698839559417 11.845923909390185 7.451401105952246 0 0 0
207 0 2 0 15.764998987789049 10.662749173061888 6.638872999480097 0 0 0
205 0 1 0 15.557533769551709 11.61345461361175 6.577971326189398 0 0 0
311 0 2 0 14.228607253566095 14.098114786740785 4.922236438551724 0 0 0
280 0 1 0 12.450243671102774 14.163960905352338 5.278917983491905 0 0 0
282 0 2 0 12.078552601512843 13.224812774232403 5.430928940361914 0 0 0
310 0 1 0 15.159065933818658 13.844348321388365 5.09270466034142 0 0 0
312 0 2 0 15.17057269732991 12.95404615311504 5.457009659919725 0 0 0
524 0 2 0 13.283455692184955 12.450390211347813 8.22806503763995 0 0 0
198 0 2 0 18.0136630163651 10.648390516955624 4.436174018516055 0 0 0
187 0 1 0 19.263552464040963 11.112976841901299 5.795911337107784 0 0 0
188 0 2 0 19.170087860939894 12.035332553401744 5.759839154390063 0 0 0
318 0 2 0 18.708713745757372 14.260080978216706 4.707150154876617 0 0 0
316 0 1 0 19.316370229072973 13.919567454455992 5.386202952607618 0 0 0
518 0 2 0 17.367106253229082 12.306849670767997 7.433208545648089 0 0 0
519 0 2 0 18.81060571069895 12.635201368489247 8.093810608157595 0 0 0
517 0 1 0 17.83748108561521 12.701103049727228 8.18994485623487 0 0 0
317 0 2 0 19.103401503026248 14.55210808537308 6.143998682405675 0 0 0
542 0 2 0 2.5457667062809737 15.42276867767465 6.400814009286031 0 0 0
543 0 2 0 3.637099781588305 15.723723222855352 7.355064128518514 0 0 0
541 0 1 0 2.744391042031003 16.0562692506402 7.11929156401597 0 0 0
573 0 2 0 1.6372623388099485 15.61623375617783 8.163028069712368 0 0 0
241 0 1 0 2.443145165090519 18.747544192765524 6.515055042728272 0 0 0
242 0 2 0 2.601535556322018 17.807447410362933 6.5652523559341125 0 0 0
243 0 2 0 3.2233623721670486 19.12053238350375 6.925679712993606 0 0 0
560 0 2 0 1.013612430540913 19.048952234937637 7.727861708983145 0 0 0
297 0 2 0 0.29018263398369937 17.303838720736934 5.461952638804876 1 0 0
575 0 2 0 5.797744897250079 15.80760406206804 7.994782448637035 0 0 0
574 0 1 0 5.360648683684408 16.031928504338822 7.1550313605712725 0 0 0
224 0 2 0 5.158436755351765 17.775501188903377 5.060991871055908 0 0 0
30 0 2 0 6.061046598576974 19.893529366053734 5.333352321128561 0 -1 0
225 0 2 0 6.71924597647781 17.690223237411104 5.147735473058128 0 0 0
223 0 1 0 5.951713312636911 18.109999766667187 5.6214755922852815 0 0 0
576 0 2 0 5.507438440981484 16.94391841673793 6.957491146260649 0 0 0
553 0 1 0 4.7255103603315245 19.22171531426185 8.22352220519098 0 0 0
597 0 2 0 6.449543338306561 18.847280109125954 8.303957576222338 0 0 0
270 0 2 0 11.286472224035155 17.86435467749925 4.687825167621514 0 0 0
60 0 2 0 9.312287493661916 19.759850175506187 5.832837718960242 0 -1 0
578 0 2 0 8.472575461280702 15.524971974602515 8.03437012413074 0 0 0
611 0 2 0 10.961574060553717 15.396928052121932 7.51079180312015 0 0 0
610 0 1 0 11.806184211755188 15.706385318192199 7.271632917349552 0 0 0
577 0 1 0 9.0417214718091 15.681938660640009 7.282526147185902 0 0 0
278 0 2 0 8.55255054094956 18.55546747883689 7.4530537108598045 0 0 0
277 0 1 0 9.31363274896892 18.36571536284754 6.772398318589774 0 0 0
579 0 2 0 9.144757612273313 16.638336250360815 7.106530473847995 0 0 0
279 0 2 0 10.103484231141154 18.57066879522379 7.287308090095803 0 0 0
612 0 2 0 12.154922084975913 14.990372474646165 6.603788965236498 0 0 0
614 0 2 0 15.736199383895086 15.33393812344976 6.333998315387002 0 0 0
613 0 1 0 15.861093017710214 16.041225449738775 6.9609343724196835 0 0 0
645 0 2 0 14.558405433250682 15.542076276320941 8.309944210750183 0 0 0
299 0 2 0 14.198046478057055 17.55471940892084 4.901967679752762 0 0 0
261 0 2 0 12.50780873394024 17.320432316534607 6.640336037674465 0 0 0
259 0 1 0 12.67103511844311 17.99066864542293 5.93913385023846 0 0 0
260 0 2 0 12.76798611557035 18.867913221377343 6.311078001398025 0 0 0
315 0 2 0 15.12253290021528 18.816727746152026 7.370569082212227 0 0 0
314 0 2 0 15.396188694312103 19.68666167647509 6.168315448362029 0 0 0
313 0 1 0 15.749629548601321 18.865230231881796 6.6286734641968845 0 0 0
615 0 2 0 15.752525141452876 16.871510079497654 6.4169556797419185 0 0 0
647 0 2 0 17.799351777857666 15.6716420776254 7.521251393165131 0 0 0
646 0 1 0 18.706329506494427 15.55480691407953 7.383694634892958 0 0 0
648 0 2 0 19.177041854209627 15.415388485028314 8.240289472275332 0 0 0
305 0 2 0 18.46040319723616 17.635078699129025 4.438969384248541 0 0 0
102 0 2 0 19.349080394142 19.36371305126447 5.711941165275212 0 -1 0
295 0 1 0 19.553993114825168 17.719912827767047 5.883954755453409 0 0 0
296 0 2 0 19.2619710284549 17.01780282389113 6.4417710916178 0 0 0
627 0 2 0 17.358184911013524 19.26622841805638 7.658116231453617 0 0 0
626 0 2 0 18.83618511836889 19.177659729488667 8.258374244249275 0 0 0
355 0 1 0 1.108408693386543 2.024234245767987 8.861817043789276 0 0 0
335 0 2 0 1.5699682920040499 3.0955846040821946 10.256818774130872 0 0 0
346 0 1 0 1.9696196740733838 0.6031005531918902 11.785981888989657 0 0 0
347 0 2 0 2.599365749168055 0.8550840623413762 11.064972186366127 0 0 0
348 0 2 0 1.000811151255442 0.7193371521725923 11.572419017400707 0 0 0
561 0 2 0 0.8207418531507774 0.17457023674114777 8.779939196600708 0 1 0
334 0 1 0 1.638922103733698 4.015211916346296 10.569205346841725 0 0 0
336 0 2 0 2.6467891224803757 4.152330532740459 10.687387192343218 0 0 0
405 0 2 0 0.19003274292671685 4.692535284989218 11.506584732120189 1 0 0
329 0 2 0 4.116982365069279 2.274522058604299 9.827284219614885 0 0 0
328 0 1 0 4.059950149283563 1.3001219087313298 9.889729724414906 0 0 0
554 0 2 0 4.5397165797579895 0.12858344631177096 8.662132336363507 0 1 0
330 0 2 0 4.7094539215152444 1.1563524018636762 10.593624045995385 0 0 0
391 0 1 0 7.327835440025 1.816658132664246 9.163735343047254 0 0 0
353 0 2 0 6.703843733326731 1.0580175288962406 11.969844247214587 0 0 0
393 0 2 0 7.406359779930873 0.8507939166921019 9.159751129867312 0 0 0
352 0 1 0 5.76955218642789 1.0333587120239973 12.226910024762747 0 0 0
340 0 1 0 4.2098542970578965 4.192528365962257 10.365165499607908 0 0 0
342 0 2 0 4.815392059490996 4.394227652282185 11.07863463895269 0 0 0
341 0 2 0 4.352070032590672 4.831859529637814 9.601767046654084 0 0 0
332 0 2 0 6.984438421285994 4.746023510448278 12.015696012044872 0 0 0
392 0 2 0 8.06105614717094 2.1351556190587955 8.685640196077633 0 0 0
372 0 2 0 8.045532424600319 3.111405867816504 10.489769600758079 0 0 0
382 0 1 0 8.656740814709268 0.8107487676566003 11.836002673171558 0 0 0
366 0 2 0 10.097423718656072 1.2595324508371581 10.796643449841 0 0 0
364 0 1 0 10.991572540634825 1.408338221464156 10.410541051110755 0 0 0
378 0 2 0 10.945168802419271 3.047590544801839 10.46284521168198 0 0 0
365 0 2 0 11.49286825586363 1.0979888214644449 11.173963713418807 0 0 0
591 0 2 0 11.035694369933767 0.07107700500033809 9.035704350324648 0 1 0