LAMMPS (23 Jun 2022)
echo both

include		in.partitions
variable        pid world 0
include		in.temp
variable        temperature equal 255
variable        tempDamp equal 0.100 # this is 0.1 ps
include		in.pressure
variable        pressure equal 6079.5
variable        pressureDamp equal 1.0 #this is 1ps
include		in.seed
variable        seed world 745823

units           metal
atom_style	full
include		in.box
read_data       iceIII.data
Reading data file ...
  orthogonal box = (0 0 0) to (19.991053 19.991053 20.800772)
  1 by 1 by 1 MPI processor grid
  reading atoms ...
  972 atoms
Finding 1-2 1-3 1-4 neighbors ...
  special bond factors lj:    0        0        0       
  special bond factors coul:  0        0        0       
     0 = max # of 1-2 neighbors
     0 = max # of 1-3 neighbors
     0 = max # of 1-4 neighbors
     1 = max # of special neighbors
  special bonds CPU = 0.000 seconds
  read_data CPU = 0.004 seconds
include 	in.setup
variable	out_freq equal 500
variable	out_freq2 equal 500

timestep        0.0005

neigh_modify    delay 7 every 1

include         in.deepmd
# This is deepMD model

# create groups ###
#group ox type 2
#group hy type 1

mass 2 15.999
mass 1 1.008

pair_style      deepmd ../graph.pb
Summary of lammps deepmd module ...
  >>> Info of deepmd-kit:
  installed to:       /u/sigbjobo/software/DEEPMD_FROM_SOURCE/deepmd-kit/install
  source:             v2.1.3
  source branch:       master
  source commit:      5a32c49
  source commit at:   2022-07-01 09:52:58 +0800
  surpport model ver.:1.1 
  build float prec:   double
  build with tf inc:  /u/sigbjobo/software/DEEPMD_FROM_SOURCE/tensorflow/install/include;/u/sigbjobo/software/DEEPMD_FROM_SOURCE/tensorflow/install/include
  build with tf lib:  /u/sigbjobo/software/DEEPMD_FROM_SOURCE/tensorflow/install/lib/libtensorflow_cc.so;/u/sigbjobo/software/DEEPMD_FROM_SOURCE/tensorflow/install/lib/libtensorflow_framework.so
  set tf intra_op_parallelism_threads: 0
  set tf inter_op_parallelism_threads: 0
  >>> Info of lammps module:
  use deepmd-kit at:  /u/sigbjobo/software/DEEPMD_FROM_SOURCE/deepmd-kit/install
  source:             v2.1.3
  source branch:      master
  source commit:      5a32c49
  source commit at:   2022-07-01 09:52:58 +0800
  build float prec:   double
  build with tf inc:  /u/sigbjobo/software/DEEPMD_FROM_SOURCE/tensorflow/install/include;/u/sigbjobo/software/DEEPMD_FROM_SOURCE/tensorflow/install/include
  build with tf lib:  /u/sigbjobo/software/DEEPMD_FROM_SOURCE/tensorflow/install/lib/libtensorflow_cc.so;/u/sigbjobo/software/DEEPMD_FROM_SOURCE/tensorflow/install/lib/libtensorflow_framework.so
pair_coeff      * *

bond_style      none
angle_style     none
dihedral_style  none
improper_style  none
neigh_modify exclude none


neighbor        2.0 bin
neigh_modify    every 10 delay 0 check no

thermo          ${out_freq}
thermo          500
thermo_style 	custom step temp pe etotal epair emol press lx ly lz xy xz yz vol pxx pyy pzz pxy pxz pyz cella cellb cellc cellalpha cellbeta cellgamma

restart 	${out_freq} restart.lmp.${pid} restart2.lmp.${pid}
restart 	500 restart.lmp.${pid} restart2.lmp.${pid}
restart 	500 restart.lmp.0 restart2.lmp.${pid}
restart 	500 restart.lmp.0 restart2.lmp.0


include         in.dump
dump            myDump all atom ${out_freq2} dump.water.${pid}
dump            myDump all atom 500 dump.water.${pid}
dump            myDump all atom 500 dump.water.0
dump            myDump2 all dcd ${out_freq2} dump.dcd
dump            myDump2 all dcd 500 dump.dcd
dump_modify     myDump append yes
dump_modify     myDump2 append yes


timer           timeout 04:55:00 every 1000
New timer settings: style=normal  mode=nosync  timeout=04:55:00

fix             2 all nph aniso ${pressure} ${pressure} ${pressureDamp}
fix             2 all nph aniso 6079.5 ${pressure} ${pressureDamp}
fix             2 all nph aniso 6079.5 6079.5 ${pressureDamp}
fix             2 all nph aniso 6079.5 6079.5 1
fix             3 all temp/csvr ${temperature} ${temperature} ${tempDamp} ${seed}
fix             3 all temp/csvr 255 ${temperature} ${tempDamp} ${seed}
fix             3 all temp/csvr 255 255 ${tempDamp} ${seed}
fix             3 all temp/csvr 255 255 0.1 ${seed}
fix             3 all temp/csvr 255 255 0.1 745823
velocity 	all create ${temperature} ${seed} dist gaussian
velocity 	all create 255 ${seed} dist gaussian
velocity 	all create 255 745823 dist gaussian

run             400000

CITE-CITE-CITE-CITE-CITE-CITE-CITE-CITE-CITE-CITE-CITE-CITE-CITE

Your simulation uses code contributions which should be cited:

- USER-DEEPMD package:

@article{Wang_ComputPhysCommun_2018_v228_p178,
  author = {Wang, Han and Zhang, Linfeng and Han, Jiequn and E, Weinan},
  doi = {10.1016/j.cpc.2018.03.016},
  url = {https://doi.org/10.1016/j.cpc.2018.03.016},
  year = 2018,
  month = {jul},
  publisher = {Elsevier {BV}},
  volume = 228,
  journal = {Comput. Phys. Commun.},
  title = {{DeePMD-kit: A deep learning package for many-body potential energy representation and molecular dynamics}},
  pages = {178--184}
}

CITE-CITE-CITE-CITE-CITE-CITE-CITE-CITE-CITE-CITE-CITE-CITE-CITE

Generated 0 of 1 mixed pair_coeff terms from geometric mixing rule
Neighbor list info ...
  update every 10 steps, delay 0 steps, check no
  max neighbors/atom: 2000, page size: 100000
  master list distance cutoff = 8
  ghost atom cutoff = 8
  binsize = 4, bins = 5 5 6
  1 neighbor lists, perpetual/occasional/extra = 1 0 0
  (1) pair deepmd, perpetual
      attributes: full, newton on
      pair build: full/bin
      stencil: full/bin/3d
      bin: standard
Per MPI rank memory allocation (min/avg/max) = 7.648 | 7.648 | 7.648 Mbytes
   Step          Temp          PotEng         TotEng         E_pair         E_mol          Press            Lx             Ly             Lz             Xy             Xz             Yz           Volume          Pxx            Pyy            Pzz            Pxy            Pxz            Pyz           Cella          Cellb          Cellc        CellAlpha       CellBeta      CellGamma   
         0   255           -175.65013     -143.64467     -175.65013      0              37630.855      19.991053      19.991053      20.800772      0              0              0              8312.8663      41406.567      41870.306      29615.69      -62.790736     -1049.5753     -448.09673      19.991053      19.991053      20.800772      90             90             90           
       500   256.33138     -162.85091     -130.67835     -162.85091      0              3691.6368      19.826675      19.739167      20.30567       0              0              0              7946.8687      4209.6477      4636.2346      2229.028      -109.50609     -728.50127     -1379.2589      19.826675      19.739167      20.30567       90             90             90           
      1000   264.13821     -161.8549      -128.70249     -161.8549       0              2365.2651      19.978817      19.893842      20.163952      0              0              0              8014.272       2570.3583      3099.0477      1426.3891     -1323.275       322.22683     -2203.2942      19.978817      19.893842      20.163952      90             90             90           
      1500   246.74494     -161.44271     -130.47336     -161.44271      0              12666.191      20.091395      19.992779      20.145663      0              0              0              8092.1666      10452.693      15532.045      12013.835      696.37257      608.54128      86.572632      20.091395      19.992779      20.145663      90             90             90           
      2000   253.63756     -159.96558     -128.13113     -159.96558      0              630.24416      20.039121      19.957565      20.161614      0              0              0              8063.2758      953.17831      2024.1411     -1086.587      -543.57202      455.58263     -1890.5159      20.039121      19.957565      20.161614      90             90             90           
      2500   259.49196     -159.52347     -126.95422     -159.52347      0              8145.8369      19.823142      19.995645      20.272481      0              0              0              8035.5352      12011.012      4276.7623      8149.7365      1030.2677      785.42902      1069.4894      19.823142      19.995645      20.272481      90             90             90           
      3000   251.50011     -159.03164     -127.46546     -159.03164      0              7577.7598      19.824183      20.01957       20.394752      0              0              0              8094.0984      9426.0291      9109.203       4198.0472     -376.92674      1153.3829      3646.6744      19.824183      20.01957       20.394752      90             90             90           
      3500   246.75185     -158.96613     -127.99591     -158.96613      0              5734.7428      20.052873      19.876558      20.276181      0              0              0              8081.7226      3563.8824      7374.058       6266.2879     -295.44915     -155.15104      588.27472      20.052873      19.876558      20.276181      90             90             90           
      4000   257.33844     -161.15015     -128.85119     -161.15015      0              4613.9454      20.132669      19.849996      20.132552      0              0              0              8045.6403      3168.8642      5886.1423      4786.8298      312.02571     -1260.4161      624.06653      20.132669      19.849996      20.132552      90             90             90           
      4500   252.44117     -160.59599     -128.91169     -160.59599      0              5676.8365      20.023835      19.983593      20.115368      0              0              0              8049.1276      4554.3548      4452.914       8023.2408     -531.50798     -548.07582     -1563.1886      20.023835      19.983593      20.115368      90             90             90           
      5000   245.13292     -159.24144     -128.47441     -159.24144      0              3370.9845      19.939146      20.022647      20.265556      0              0              0              8090.7091      4114.251       6312.2888     -313.58613      1230.7828     -181.89474     -1310.0425      19.939146      20.022647      20.265556      90             90             90           
      5500   243.1651      -160.45719     -129.93714     -160.45719      0              6155.049       19.894719      19.886328      20.448322      0              0              0              8090.0291      8574.7685      6776.5781      3113.8004      98.686355     -617.6606      -162.65842      19.894719      19.886328      20.448322      90             90             90           
      6000   265.23874     -161.85004     -128.5595      -161.85004      0              4812.4696      19.860297      19.797769      20.329412      0              0              0              7993.313       2738.5968      7928.9202      3769.8917     -1466.2556      7.6675704     -2775.3164      19.860297      19.797769      20.329412      90             90             90           
      6500   260.31831     -162.23668     -129.56371     -162.23668      0              3079.9909      20.043081      20.101306      20.145007      0              0              0              8116.2644      3668.6231      1042.8089      4528.5406     -179.59598     -1284.5992      1236.2127      20.043081      20.101306      20.145007      90             90             90           
      7000   268.89655     -160.78145     -127.03181     -160.78145      0              6485.2374      20.075772      20.157794      19.926925      0              0              0              8064.0931      7804.7021      1252.5084      10398.502     -77.90579      -1160.6839     -1796.0183      20.075772      20.157794      19.926925      90             90             90           
      7500   260.80224     -159.8206      -127.08689     -159.8206       0              5281.3724      20.104015      19.993682      20.071043      0              0              0              8067.6213      4726.2507      6240.0229      4877.8435     -82.089784      1710.4973     -3740.6296      20.104015      19.993682      20.071043      90             90             90           
      8000   257.33517     -161.37975     -129.0812      -161.37975      0              6741.4355      20.048792      19.809513      20.402742      0              0              0              8103.0879      3187.8419      8566.458       8470.0065      1641.5145      1494.5609      2050.8217      20.048792      19.809513      20.402742      90             90             90           
      8500   243.401       -159.75235     -129.2027      -159.75235      0              6613.2347      19.877162      19.812237      20.511727      0              0              0              8077.7449      8022.0022      6983.0768      4834.6252     -256.96839     -2742.1373      1450.4736      19.877162      19.812237      20.511727      90             90             90           
      9000   253.84521     -158.93128     -127.07076     -158.93128      0              8864.3162      19.84055       19.962138      20.309442      0              0              0              8043.7532      9556.473       8812.108       8224.3677      860.01583      2144.5913      2662.8457      19.84055       19.962138      20.309442      90             90             90           
      9500   254.22063     -159.24161     -127.33398     -159.24161      0              1905.1071      20.145325      20.130454      20.122968      0              0              0              8160.5586     -1105.2416      3412.7628      3407.8002      1282.8462      1536.0741     -133.08077      20.145325      20.130454      20.122968      90             90             90           
     10000   259.54576     -158.90351     -126.3275      -158.90351      0              6199.0819      20.108509      20.013423      20.034006      0              0              0              8062.4872      4990.8492      8382.9609      5223.4357      1630.105      -550.27269      3810.8261      20.108509      20.013423      20.034006      90             90             90           
     10500   271.47681     -158.93191     -124.85842     -158.93191      0              6125.8407      20.014349      19.959199      20.159397      0              0              0              8053.0819      6606.3473      5771.3388      5999.8362      1139.5659      2251.8044     -656.34575      20.014349      19.959199      20.159397      90             90             90           
     11000   251.96565     -159.07595     -127.45134     -159.07595      0              8845.6294      19.946239      20.030111      20.320725      0              0              0              8118.6455      12457.031      6292.901       7786.9566     -1653.8778     -2774.2715     -1306.739       19.946239      20.030111      20.320725      90             90             90           
     11500   266.61738     -162.11194     -128.64836     -162.11194      0              6682.6535      19.970587      20.052854      20.374428      0              0              0              8159.2914      5180.1988      5691.1387      9176.6231      128.65005     -522.29403     -2509.5775      19.970587      20.052854      20.374428      90             90             90           
     12000   255.99598     -158.83822     -126.70776     -158.83822      0              4439.4038      19.970684      19.847664      20.174715      0              0              0              7996.6804      3917.111       4906.1504      4494.95       -205.98991      2986.4771      725.88143      19.970684      19.847664      20.174715      90             90             90           
     12500   260.14861     -159.82526     -127.17359     -159.82526      0              6517.5542      20.198669      19.952306      20.262622      0              0              0              8166.0396      4531.8673      7772.3307      7248.4645     -361.52937      2672.5451      6.9385541      20.198669      19.952306      20.262622      90             90             90           
     13000   268.45336     -159.75403     -126.06001     -159.75403      0              7273.5252      20.030546      19.931745      20.217299      0              0              0              8071.6298      4907.0665      11934.552      4978.9574      221.42665      2158.795       932.49775      20.030546      19.931745      20.217299      90             90             90           
     13500   248.78105     -159.59544     -128.37053     -159.59544      0              6515.3335      19.938356      20.022189      20.235673      0              0              0              8078.274       3962.8237      7123.6841      8459.4928     -931.91943     -203.50614     -3601.3018      19.938356      20.022189      20.235673      90             90             90           
     14000   241.63896     -159.74259     -129.41409     -159.74259      0              6941.5651      19.872511      20.054325      20.18949       0              0              0              8046.1132      5449.5992      9155.641       6219.455       714.08889      1696.1333      1996.703       19.872511      20.054325      20.18949       90             90             90           
     14500   243.26113     -160.90777     -130.37567     -160.90777      0              3815.3401      20.042008      20.194125      20.283747      0              0              0              8209.4572      4719.9128      2616.4652      4109.6423     -274.86303     -317.40205     -1453.3234      20.042008      20.194125      20.283747      90             90             90           
     15000   258.26665     -159.20503     -126.78957     -159.20503      0              7503.0517      19.949572      19.88311       20.133431      0              0              0              7986.1172      7772.7833      6247.5206      8488.8511      251.72976      772.93707      604.37323      19.949572      19.88311       20.133431      90             90             90           
     15500   258.62463     -160.84027     -128.37988     -160.84027      0              3223.2977      20.18836       19.842434      20.32283       0              0              0              8141.0453      5361.4829      1200.2041      3108.2062      216.42973     -557.35948      122.38784      20.18836       19.842434      20.32283       90             90             90           
     16000   261.50998     -160.39873     -127.5762      -160.39873      0              6459.6198      20.144886      19.84344       20.474981      0              0              0              8184.7477      4741.151       8040.0119      6597.6965      1372.4067      1325.9038     -703.19423      20.144886      19.84344       20.474981      90             90             90           
     16500   268.05185     -160.82289     -127.17928     -160.82289      0              7937.1916      19.878782      19.781053      20.41156       0              0              0              8026.2997      8134.4986      8871.3471      6805.7291      155.32822      494.6896       2995.5138      19.878782      19.781053      20.41156       90             90             90           
     17000   253.92343     -159.39923     -127.5289      -159.39923      0              5375.5642      19.967335      19.934533      20.294822      0              0              0              8078.1409      6441.7889      2008.7776      7676.1262     -114.43675      1134.5593     -70.07349       19.967335      19.934533      20.294822      90             90             90           
     17500   254.67626     -160.08432     -128.1195      -160.08432      0              5121.891       20.007795      20.149446      20.196338      0              0              0              8142.0726      3066.2174      7467.6244      4831.8311     -304.80769     -590.31351      1051.4802      20.007795      20.149446      20.196338      90             90             90           
     18000   244.70689     -159.90843     -129.19488     -159.90843      0              5555.4578      19.941084      20.07539       20.145357      0              0              0              8064.6908      3786.8869      6656.6277      6222.8588     -603.59462     -1277.1601     -75.513506      19.941084      20.07539       20.145357      90             90             90           
     18500   249.14366     -160.53346     -129.26304     -160.53346      0              4784.5608      19.963672      19.971895      20.168351      0              0              0              8041.3713      3987.0459      4650.3123      5716.3242      1505.2348      2594.2557     -817.0024       19.963672      19.971895      20.168351      90             90             90           
     19000   261.0084      -161.61918     -128.8596      -161.61918      0              4343.1497      20.088983      19.993054      20.291129      0              0              0              8149.7314      4681.255       3865.312       4482.8822      986.52573     -2172.1474     -1460.0675      20.088983      19.993054      20.291129      90             90             90           
     19500   255.3055      -159.88752     -127.84372     -159.88752      0              4975.0931      19.972647      19.913556      20.283647      0              0              0              8067.3423      6343.2455      5032.4486      3549.5851     -993.94656     -474.9859       503.08765      19.972647      19.913556      20.283647      90             90             90           
     20000   249.12503     -160.98405     -129.71597     -160.98405      0              4043.9326      19.961834      19.924967      20.298556      0              0              0              8073.5252      3533.7297      4916.3779      3681.6904      1098.46       -2384.7506      3541.5199      19.961834      19.924967      20.298556      90             90             90           
     20500   255.22725     -161.26175     -129.22777     -161.26175      0              3262.8796      20.042894      19.931657      20.30024       0              0              0              8109.704       5642.1519      1394.2293      2752.2576     -2543.2888     -796.4652       49.009161      20.042894      19.931657      20.30024       90             90             90           
     21000   254.22146     -161.13524     -129.2275      -161.13524      0              7326.5658      20.023306      19.953067      20.260577      0              0              0              8094.6349      6706.9074      9056.7815      6216.0085      183.93712      1371.0249      560.14491      20.023306      19.953067      20.260577      90             90             90           
     21500   248.27182     -161.83056     -130.66957     -161.83056      0              2284.5901      19.975439      20.004467      20.21387       0              0              0              8077.4222      3935.9022      3379.7521     -461.88386      612.88859     -1125.298       2014.6894      19.975439      20.004467      20.21387       90             90             90           
     22000   258.0465      -160.83199     -128.44416     -160.83199      0              4509.3445      19.925119      20.028509      20.224789      0              0              0              8071.1147      6360.8321      6152.5039      1014.6974      865.83374      1615.1602      968.43863      19.925119      20.028509      20.224789      90             90             90           
     22500   256.64236     -160.71985     -128.50826     -160.71985      0              3664.6372      20.043718      20.119896      20.383979      0              0              0              8220.4003      6888.9455      2718.9884      1385.9779      9.5242144      2025.3059      2793.8724      20.043718      20.119896      20.383979      90             90             90           
     23000   247.00307     -160.10437     -129.10262     -160.10437      0              4569.1379      19.908135      19.877071      20.180205      0              0              0              7985.618       7300.7755      2616.8526      3789.7854      567.8865       1739.7361     -158.82619      19.908135      19.877071      20.180205      90             90             90           
     23500   244.70166     -159.20767     -128.49478     -159.20767      0              6170.9455      20.120754      19.947678      20.238582      0              0              0              8123.0041      8432.2298      4767.4515      5313.1553     -503.05609      188.49694      504.21902      20.120754      19.947678      20.238582      90             90             90           
     24000   260.79411     -158.89775     -126.16506     -158.89775      0              2862.2329      20.220617      19.967409      20.261418      0              0              0              8180.6147      4933.6937     -239.81556      3892.8207     -326.8457       469.28988      173.94406      20.220617      19.967409      20.261418      90             90             90           
     24500   249.8405      -158.09898     -126.7411      -158.09898      0              7560.0866      20.025508      19.86147       20.077907      0              0              0              7985.7067      7302.4476      9720.2616      5657.5506     -584.86615      169.18498     -2514.7268      20.025508      19.86147       20.077907      90             90             90           
     25000   254.96873     -159.60678     -127.60524     -159.60678      0              5435.559       20.076689      20.050842      20.287773      0              0              0              8166.9351      3985.2518      7371.8704      4949.5546      2875.8491     -31.065853      2496.7261      20.076689      20.050842      20.287773      90             90             90           
     25500   253.63159     -158.63874     -126.80504     -158.63874      0              6841.0668      19.996344      20.049269      20.339034      0              0              0              8154.1647      11035.384      3720.8177      5766.9988      662.17209     -2056.3778     -1117.5378      19.996344      20.049269      20.339034      90             90             90           
     26000   258.37369     -158.80051     -126.37162     -158.80051      0              9401.3531      19.879399      20.075594      20.305626      0              0              0              8103.7874      9406.3385      8909.7374      9887.9834      2781.7957      829.81361      588.69934      19.879399      20.075594      20.305626      90             90             90           
     26500   252.96555     -160.46546     -128.71535     -160.46546      0              6745.5924      19.825073      20.100006      20.261861      0              0              0              8074.0288      9381.2444      4100.0139      6755.519      -279.54713      130.87312      321.17146      19.825073      20.100006      20.261861      90             90             90           
     27000   264.86819     -159.62437     -126.38034     -159.62437      0              5885.0713      19.979877      20.12683       20.278344      0              0              0              8154.5622      3757.8993      7456.9673      6440.3472      371.35357     -342.42144      1645.471       19.979877      20.12683       20.278344      90             90             90           
     27500   257.84805     -159.94421     -127.58129     -159.94421      0              8038.2167      20.197527      19.882275      20.193757      0              0              0              8109.263       7213.3496      9860.1041      7041.1963      14.488704     -2375.2915      1594.7072      20.197527      19.882275      20.193757      90             90             90           
     28000   250.45587     -160.10847     -128.67335     -160.10847      0              6559.2388      20.216445      19.662421      20.11741       0              0              0              7996.7561      8477.0012      6115.6896      5085.0256     -1551.7913      244.9968      -4636.8661      20.216445      19.662421      20.11741       90             90             90           
     28500   252.57651     -159.15594     -127.45466     -159.15594      0              5031.628       20.133783      19.91394       20.385627      0              0              0              8173.4734      5230.9439      7481.6959      2382.2443      1435.7173     -2896.7241     -2589.8079      20.133783      19.91394       20.385627      90             90             90           
     29000   258.09815     -159.91449     -127.52018     -159.91449      0              8810.5204      19.787126      20.075503      20.463957      0              0              0              8129.0306      7271.2916      11025.674      8134.5959     -1056.8734     -2052.7273      1695.2306      19.787126      20.075503      20.463957      90             90             90           
     29500   256.40601     -158.69853     -126.51661     -158.69853      0              5795.3886      19.767504      20.059619      20.36879       0              0              0              8076.8078      11131.125      2375.0811      3879.9594      1555.1047      1040.5134     -919.15771      19.767504      20.059619      20.36879       90             90             90           
     30000   264.46328     -157.68067     -124.48746     -157.68067      0              6390.5141      20.031815      20.069443      20.244471      0              0              0              8138.8317      4930.5432      6444.172       7796.8273     -1704.3575     -2111.86        1886.7013      20.031815      20.069443      20.244471      90             90             90           
     30500   262.06179     -159.83468     -126.94288     -159.83468      0              7249.0734      20.131769      20.047856      20.102454      0              0              0              8113.3265      5989.3294      8529.752       7228.1388     -707.04295      2385.3907      607.05627      20.131769      20.047856      20.102454      90             90             90           
     31000   257.75013     -158.44596     -126.09533     -158.44596      0              2335.7913      20.06805       20.034355      20.150829      0              0              0              8101.65        384.41823      4533.4665      2089.4892      236.89006      615.26294     -1832.4229      20.06805       20.034355      20.150829      90             90             90           
     31500   262.92679     -159.92603     -126.92566     -159.92603      0              6084.6149      19.926463      19.92082       20.298172      0              0              0              8057.3897      7432.0933      7759.474       3062.2773     -165.22255     -901.42774      1224.0449      19.926463      19.92082       20.298172      90             90             90           
     32000   258.32545     -160.8693      -128.44646     -160.8693       0              2400.3754      19.943561      19.933272      20.565619      0              0              0              8175.6648      1801.8457      5223.45        175.83041      96.158013      3347.4587      735.46388      19.943561      19.933272      20.565619      90             90             90           
     32500   267.1105      -160.20682     -126.68135     -160.20682      0              4192.0721      19.87878       19.768673      20.340816      0              0              0              7993.4746      3569.211       4426.665       4580.3404     -1413.1926      561.00206     -1288.6508      19.87878       19.768673      20.340816      90             90             90           
     33000   252.47097     -158.94232     -127.25428     -158.94232      0              5790.0572      20.154714      19.981483      20.166608      0              0              0              8121.518       6692.2829      4340.4665      6337.422      -176.16653     -1626.609      -1239.3231      20.154714      19.981483      20.166608      90             90             90           
     33500   247.70046     -159.33845     -128.24917     -159.33845      0              6440.1156      20.187699      20.081641      20.069811      0              0              0              8136.3441      1862.5038      8838.3361      8619.5068     -2003.2904     -3161.5498     -3036.7678      20.187699      20.081641      20.069811      90             90             90           
     34000   254.94551     -161.97417     -129.97555     -161.97417      0              10204.273      19.968208      20.007217      20.100474      0              0              0              8030.3059      14711.888      7857.1348      8043.7953     -452.7285      -22.566946      597.26625      19.968208      20.007217      20.100474      90             90             90           
     34500   231.47209     -159.74724     -130.69481     -159.74724      0              7767.3808      19.951244      19.949917      20.231202      0              0              0              8052.5377      7979.9708      6454.682       8867.4898      17.179411     -78.446685     -18.269144      19.951244      19.949917      20.231202      90             90             90           
     35000   237.91167     -161.70127     -131.8406      -161.70127      0              3301.5325      20.012073      19.959439      20.310413      0              0              0              8112.5831      3287.6918      2936.511       3680.3947     -392.32047      598.06066      600.74951      20.012073      19.959439      20.310413      90             90             90           
     35500   252.71314     -161.41205     -129.69362     -161.41205      0              8803.9161      19.991942      19.90251       20.275417      0              0              0              8067.3819      10844.475      8522.8382      7044.4355      195.54181     -1361.3814      220.39675      19.991942      19.90251       20.275417      90             90             90           
     36000   252.20456     -160.61525     -128.96065     -160.61525      0              4805.8006      19.972138      19.942712      20.303993      0              0              0              8087.0518      5236.9742      4119.0347      5061.3928     -560.31159      1615.5448     -579.76918      19.972138      19.942712      20.303993      90             90             90           
     36500   258.44529     -160.60477     -128.16689     -160.60477      0              3432.2558      20.001745      19.895923      20.275602      0              0              0              8068.7403      393.86125      6851.5399      3051.3663     -631.37266      683.70141      570.00263      20.001745      19.895923      20.275602      90             90             90           
     37000   264.6394      -161.22047     -128.00516     -161.22047      0              6296.9173      20.045223      19.890493      20.261562      0              0              0              8078.4741      8513.9523      4272.1386      6104.661      -771.20909      1537.2317      2099.103       20.045223      19.890493      20.261562      90             90             90           
     37500   257.90757     -161.15658     -128.78619     -161.15658      0              6767.0159      20.0917        19.963904      20.297778      0              0              0              8141.6168      5983.5107      6269.6715      8047.8654     -129.44039      331.45601     -1725.1865      20.0917        19.963904      20.297778      90             90             90           
     38000   261.40466     -159.37739     -126.56807     -159.37739      0              8199.8109      19.960966      19.916658      20.165527      0              0              0              8016.9208      8559.489       7128.2572      8911.6867     -2026.0827      137.58573     -160.73035      19.960966      19.916658      20.165527      90             90             90           
     38500   257.16022     -160.30419     -128.0276      -160.30419      0              8440.5049      19.970227      20.09923       20.287809      0              0              0              8143.2463      10958.382      5764.2814      8598.8514      185.23133     -737.21403      1017.2018      19.970227      20.09923       20.287809      90             90             90           
     39000   248.1185      -160.1606      -129.01885     -160.1606       0              5430.094       19.903053      20.107381      20.372692      0              0              0              8153.1165      5964.4799      6873.3414      3452.4608     -215.39425      654.77939     -213.49984      19.903053      20.107381      20.372692      90             90             90           
     39500   253.17848     -158.90893     -127.13209     -158.90893      0              13007.532      19.823798      19.781686      20.218424      0              0              0              7928.6175      14667.769      9908.829       14445.999     -216.94105      3883.7794      131.57518      19.823798      19.781686      20.218424      90             90             90           
     40000   253.2126      -161.16132     -129.3802      -161.16132      0              7162.9757      20.244325      19.930969      20.360613      0              0              0              8215.2834      5436.5473      10840.806      5211.5739      593.41571      422.96992     -1322.1375      20.244325      19.930969      20.360613      90             90             90           
     40500   251.9308      -160.4509      -128.83066     -160.4509       0              4072.3086      20.126833      19.984414      20.209781      0              0              0              8128.8383      2943.1377      5079.0357      4194.7523      66.504731      2076.772      -962.20252      20.126833      19.984414      20.209781      90             90             90           
     41000   249.36681     -160.12296     -128.82454     -160.12296      0              7245.8895      19.894054      19.924115      20.126003      0              0              0              7977.3724      10722.907      4229.8703      6784.8913     -861.69862      354.11918     -206.01063      19.894054      19.924115      20.126003      90             90             90           
     41500   270.25796     -161.75981     -127.8393      -161.75981      0              5970.7474      20.043199      19.954874      20.352781      0              0              0              8140.2887      8878.4927      3986.5592      5047.1902      1137.6788     -935.11016      1030.4282      20.043199      19.954874      20.352781      90             90             90           
     42000   256.94859     -160.55292     -128.30289     -160.55292      0              7374.5774      20.039293      19.906743      20.394962      0              0              0              8135.8984      5601.0739      8567.8528      7954.8055      1657.3405      1531.9393     -29.831376      20.039293      19.906743      20.394962      90             90             90           
     42500   265.06937     -160.1094      -126.84012     -160.1094       0              2918.176       19.861503      20.041294      20.264103      0              0              0              8066.1307      3488.9053      1946.0437      3319.5791      1416.8438     -204.26568     -342.59843      19.861503      20.041294      20.264103      90             90             90           
     43000   263.48065     -159.9869      -126.91703     -159.9869       0              8694.6017      19.812784      20.153706      20.183171      0              0              0              8059.1608      8474.5685      10082.335      7526.9012     -322.07643      67.970274      453.38596      19.812784      20.153706      20.183171      90             90             90           
     43500   247.16728     -159.01842     -127.99606     -159.01842      0              4985.8609      20.099027      20.076184      20.206863      0              0              0              8153.7071      5466.7627      3841.4603      5649.3598      1618.4569     -2635.4107     -673.265        20.099027      20.076184      20.206863      90             90             90           
     44000   260.85911     -160.71695     -127.97611     -160.71695      0              6668.6792      20.187862      19.744774      20.145387      0              0              0              8030.0473      5246.6259      9426.1138      5333.2979     -902.869        406.56628     -407.92567      20.187862      19.744774      20.145387      90             90             90           
     44500   257.85323     -160.66291     -128.29933     -160.66291      0              8073.4979      20.122302      19.869661      20.283448      0              0              0              8109.7956      6878.5175      10141.115      7200.8616     -799.60715     -467.52155     -2556.5048      20.122302      19.869661      20.283448      90             90             90           
     45000   245.71482     -161.13127     -130.29121     -161.13127      0              4857.3091      19.910413      20.063023      20.340959      0              0              0              8125.4625      6356.1409      7078.1443      1137.6421     -63.247129      1558.0553     -3230.8679      19.910413      20.063023      20.340959      90             90             90           
     45500   247.32054     -160.71168     -129.67008     -160.71168      0              8893.4851      19.877128      20.030756      20.203366      0              0              0              8044.0489      7218.7967      9379.3617      10082.297      883.3525       1851.9076      1372.5733      19.877128      20.030756      20.203366      90             90             90           
     46000   262.43141     -161.93508     -128.99689     -161.93508      0              3483.0167      20.058324      19.989899      20.193314      0              0              0              8096.7895      3073.2508      4302.0591      3073.7401      213.18874      1288.8335     -827.41528      20.058324      19.989899      20.193314      90             90             90           
     46500   256.44008     -160.78688     -128.60068     -160.78688      0              3949.1051      20.147462      19.948162      20.203287      0              0              0              8119.7991      3230.0866      3485.2469      5131.9817     -368.76576      43.445492     -1409.0471      20.147462      19.948162      20.203287      90             90             90           
     47000   267.85972     -161.66855     -128.04904     -161.66855      0              4681.1077      20.042332      20.005944      20.186826      0              0              0              8094.2262      4461.2854      5866.1629      3715.8748     -1232.2658      583.91347      109.87646      20.042332      20.005944      20.186826      90             90             90           
     47500   263.35148     -159.86873     -126.81506     -159.86873      0              4151.2558      19.935044      20.054652      20.244334      0              0              0              8093.4902      3450.7263      4038.5411      4964.4999      1267.3935     -1315.4331      1320.894       19.935044      20.054652      20.244334      90             90             90           
     48000   266.61928     -161.07353     -127.60972     -161.07353      0              5628.3741      19.960261      19.969914      20.475806      0              0              0              8161.7523      2494.3071      8421.8489      5968.9663      1159.8063     -1354.9851      1828.8309      19.960261      19.969914      20.475806      90             90             90           
     48500   260.16766     -160.04633     -127.39227     -160.04633      0              9815.9439      19.953794      19.755622      20.489196      0              0              0              8076.8334      10378.652      12040.528      7028.6512     -869.72389     -69.423581     -1693.3065      19.953794      19.755622      20.489196      90             90             90           
     49000   262.67288     -158.74372     -125.77522     -158.74372      0              4718.5603      20.091077      19.83912       20.212026      0              0              0              8056.2971      6010.8827      2805.1092      5339.6889     -1045.6982     -3150.1756      1332.4369      20.091077      19.83912       20.212026      90             90             90           
     49500   274.11587     -157.95631     -123.55159     -157.95631      0              4688.0781      20.269087      20.198422      19.968442      0              0              0              8175.1516      524.57834      7244.2961      6295.3598      2051.3576     -2449.6697      1431.3448      20.269087      20.198422      19.968442      90             90             90           
     50000   259.18809     -158.04221     -125.51109     -158.04221      0              6966.3593      20.126828      20.173107      19.92614       0              0              0              8090.4245      7154.9414      5391.3938      8352.7428     -246.35708     -1019.497       1348.2017      20.126828      20.173107      19.92614       90             90             90           
     50500   252.54333     -159.76908     -128.07197     -159.76908      0              5785.3068      19.982448      19.897553      20.331623      0              0              0              8083.8901      3691.0159      8902.9033      4762.0012     -1036.1293     -1246.0641     -1201.2333      19.982448      19.897553      20.331623      90             90             90           
     51000   259.92826     -159.63946     -127.01545     -159.63946      0              7838.795       19.88035       19.79063       20.54183       0              0              0              8082.0733      7043.3624      10628.729      5844.2933      1169.278      -2109.8065      568.29712      19.88035       19.79063       20.54183       90             90             90           
     51500   257.40609     -160.30011     -127.99266     -160.30011      0              5182.5153      19.929563      19.950025      20.482995      0              0              0              8143.9421      5426.1456      3969.0757      6152.3245     -167.45565     -1462.5205      756.80765      19.929563      19.950025      20.482995      90             90             90           
     52000   252.20662     -161.54951     -129.89466     -161.54951      0              5730.2495      19.997968      19.946875      20.222831      0              0              0              8066.826       5171.9409      4904.7022      7114.1054     -1093.5287      1317.0872     -2339.3386      19.997968      19.946875      20.222831      90             90             90           
     52500   255.44373     -159.17951     -127.11836     -159.17951      0              4045.2689      20.08869       19.93167       20.141069      0              0              0              8064.5074      8713.8371     -1123.2763      4545.2459      675.66887      1953.1326      2260.3533      20.08869       19.93167       20.141069      90             90             90           
     53000   248.06929     -159.98146     -128.84589     -159.98146      0              4410.2171      20.11528       19.971659      20.225317      0              0              0              8125.2282      5635.662       2458.3224      5136.6668     -1997.5765     -236.29152      637.54082      20.11528       19.971659      20.225317      90             90             90           
     53500   259.81986     -160.43322     -127.82281     -160.43322      0              5002.519       19.933288      19.993277      20.26423       0              0              0              8075.939       5538.1929      4733.0838      4736.2804     -407.11027     -1009.9911     -181.31535      19.933288      19.993277      20.26423       90             90             90           
     54000   262.26661     -159.94544     -127.02793     -159.94544      0              3663.0223      19.893105      20.068345      20.280738      0              0              0              8096.5107      5813.7956     -620.55057      5795.8219     -280.11201     -1805.8918      1614.2181      19.893105      20.068345      20.280738      90             90             90           
     54500   248.15574     -161.00018     -129.85376     -161.00018      0              6415.0499      20.034384      19.972175      20.2573        0              0              0              8105.5582      7137.8755      5273.1151      6834.1592      411.33989     -1536.9005     -3196.7417      20.034384      19.972175      20.2573        90             90             90           
     55000   256.32654     -160.56401     -128.39206     -160.56401      0              4604.3293      20.145803      19.750788      20.156106      0              0              0              8020.0234      3179.8789      6523.5682      4109.5408      1157.4558     -705.84918      1483.9409      20.145803      19.750788      20.156106      90             90             90           
     55500   243.77892     -160.29157     -129.69449     -160.29157      0              5647.2027      20.162884      19.983674      20.227315      0              0              0              8150.1617      8383.5653      5248.0372      3310.0057      927.42612      131.82532     -1444.9893      20.162884      19.983674      20.227315      90             90             90           
     56000   255.34583     -158.21273     -126.16386     -158.21273      0              10251.114      19.856976      20.03597       20.181984      0              0              0              8029.4786      11864.539      5892.1153      12996.688     -1578.3241     -2495.9739      2018.105       19.856976      20.03597       20.181984      90             90             90           
     56500   256.63919     -159.50119     -127.29        -159.50119      0              3720.8014      19.892831      19.995963      20.370048      0              0              0              8102.7228      7944.6236     -677.39249      3895.1732      794.1785       1884.0158      75.868169      19.892831      19.995963      20.370048      90             90             90           
     57000   254.47361     -159.89884     -127.95945     -159.89884      0              4036.7891      20.125158      19.865867      20.363865      0              0              0              8141.5489     -664.41904      6552.5476      6222.2387     -687.57177     -1268.6324     -1233.3124      20.125158      19.865867      20.363865      90             90             90           
     57500   254.45939     -160.25801     -128.3204      -160.25801      0              8547.6695      20.098934      19.794683      20.194119      0              0              0              8034.2712      5147.9341      12534.806      7960.2684      1408.8328      1016.7487      3692.013       20.098934      19.794683      20.194119      90             90             90           
     58000   249.30918     -159.501       -128.20981     -159.501        0              4930.9732      20.095978      20.118836      20.19016       0              0              0              8163.0371      7060.654       400.78384      7331.4819      885.88501      1860.9486      218.6442       20.095978      20.118836      20.19016       90             90             90           
     58500   261.46823     -160.54878     -127.73149     -160.54878      0              12251.61       19.915698      20.06291       20.156285      0              0              0              8053.7835      12049.504      12768.191      11937.136     -10.507509      924.96882     -376.74042      19.915698      20.06291       20.156285      90             90             90           
     59000   267.67733     -160.5506      -126.95399     -160.5506       0              8107.8693      20.078101      19.883798      20.440272      0              0              0              8160.3475      7633.0154      7624.2772      9066.3153      2239.5533      1233.1888      170.31949      20.078101      19.883798      20.440272      90             90             90           
     59500   259.55132     -159.21749     -126.64078     -159.21749      0              8275.7218      20.014308      19.699873      20.551267      0              0              0              8102.9398      8763.8966      12632.916      3430.3524     -995.44648      1456.7555      1486.3214      20.014308      19.699873      20.551267      90             90             90           
     60000   254.10313     -160.62934     -128.73645     -160.62934      0              10315.248      19.870669      19.895405      20.383213      0              0              0              8058.1976      12340.486      7860.4333      10744.826      1059.8926      189.40482     -877.61606      19.870669      19.895405      20.383213      90             90             90           
     60500   253.85284     -161.15699     -129.29552     -161.15699      0              2256.6251      20.043819      20.226131      20.157246      0              0              0              8171.9274      1326.9101      1302.3784      4140.5868     -1323.1064     -331.92176     -3604.8636      20.043819      20.226131      20.157246      90             90             90           
     61000   256.61003     -159.35491     -127.14737     -159.35491      0              7630.2582      19.999538      20.079805      19.933657      0              0              0              8005.094       7857.5497      9930.4646      5102.7604      651.30183     -1504.4696      3073.2997      19.999538      20.079805      19.933657      90             90             90           
     61500   258.98381     -160.49597     -127.9905      -160.49597      0              8057.3583      20.086561      20.026191      20.190014      0              0              0              8121.5806      7596.5206      7079.4336      9496.1207     -1337.2068      1793.7811     -2929.9024      20.086561      20.026191      20.190014      90             90             90           
     62000   256.69524     -159.32624     -127.10801     -159.32624      0              6930.7477      19.968174      19.960999      20.458497      0              0              0              8154.4435      6608.6741      8763.7201      5419.8487      1003.7205     -2943.0237     -1286.9914      19.968174      19.960999      20.458497      90             90             90           
     62500   256.40493     -160.4206      -128.2388      -160.4206       0              8316.2821      19.924031      19.832956      20.457409      0              0              0              8083.795       10592.472      9466.9675      4889.4068      589.25712     -3108.1091      1964.0026      19.924031      19.832956      20.457409      90             90             90           
     63000   267.18926     -159.18519     -125.64984     -159.18519      0              7182.4564      19.987267      19.856319      20.357622      0              0              0              8079.4014      7492.1281      4803.146       9252.0953     -30.66242       425.47182     -1394.7065      19.987267      19.856319      20.357622      90             90             90           
     63500   249.79817     -159.58656     -128.23399     -159.58656      0              1080.7025      20.089095      19.981285      20.262584      0              0              0              8133.5214     -298.22999      4891.8657     -1351.5281      888.18211     -2372.9331      814.88839      20.089095      19.981285      20.262584      90             90             90           
     64000   262.38713     -159.80017     -126.86754     -159.80017      0              4489.1682      20.038224      20.028643      20.129516      0              0              0              8078.7484      145.2563       6393.093       6929.1553      2408.2871      779.45074     -769.65976      20.038224      20.028643      20.129516      90             90             90           
     64500   256.29503     -159.79082     -127.62282     -159.79082      0              3831.4593      19.983707      20.077139      20.173451      0              0              0              8093.9046      1688.9793      5150.8086      4654.5901     -1753.4067     -592.23465      1238.4259      19.983707      20.077139      20.173451      90             90             90           
     65000   248.21185     -161.38308     -130.22961     -161.38308      0              4198.4016      19.899412      19.960911      20.292705      0              0              0              8060.4732      2999.9345      6949.7061      2645.5642      1376.7523     -350.37918      172.26524      19.899412      19.960911      20.292705      90             90             90           
     65500   245.40451     -159.61775     -128.81664     -159.61775      0              8565.5069      19.954857      19.920815      20.358875      0              0              0              8092.9993      12357.318      6404.7362      6934.4669      110.6423      -225.67368     -1965.4238      19.954857      19.920815      20.358875      90             90             90           
     66000   261.53813     -158.94759     -126.12152     -158.94759      0              8121.6675      20.06169       20.025509      20.19581       0              0              0              8113.577       9741.1311      5044.396       9579.4754     -596.4928      -2824.8288     -327.78115      20.06169       20.025509      20.19581       90             90             90           
     66500   261.13757     -159.72053     -126.94474     -159.72053      0              5871.5991      20.009629      20.052737      20.005627      0              0              0              8027.2143      6368.896       5608.538       5637.3634     -309.3506       1212.4953     -769.07859      20.009629      20.052737      20.005627      90             90             90           
     67000   243.9606      -159.24427     -128.62438     -159.24427      0              8124.0321      20.066553      20.010813      20.268015      0              0              0              8138.5816      5661.7993      8608.8324      10101.465      536.81752     -501.66283     -1566.3403      20.066553      20.010813      20.268015      90             90             90           
     67500   246.58298     -159.63889     -128.68987     -159.63889      0              6668.4605      19.970684      19.725605      20.541313      0              0              0              8091.9179      5672.8487      8693.1415      5639.3914     -539.32228      348.02009     -799.97477      19.970684      19.725605      20.541313      90             90             90           
     68000   246.62412     -159.63331     -128.67912     -159.63331      0              7178.6407      19.981827      19.681952      20.473088      0              0              0              8051.6838      5091.1971      11161.797      5282.9283     -505.966       -704.60899     -792.39878      19.981827      19.681952      20.473088      90             90             90           
     68500   259.02129     -159.75937     -127.24919     -159.75937      0              8745.4222      20.024275      20.051021      20.15314       0              0              0              8091.63        11665.229      7356.0322      7215.0053      1106.5324     -3602.2333     -1355.634       20.024275      20.051021      20.15314       90             90             90           
     69000   247.69395     -160.59371     -129.50524     -160.59371      0              5074.085       19.998668      20.295796      19.991364      0              0              0              8114.2727      3136.0758      4403.9094      7682.2699      2615.8084      1621.4962     -1485.207       19.998668      20.295796      19.991364      90             90             90           
     69500   256.26751     -161.75716     -129.59262     -161.75716      0              5111.7828      20.006575      20.071644      20.125762      0              0              0              8081.7985      4728.8584      7466.4485      3140.0416     -295.96629      1081.6092     -2177.1952      20.006575      20.071644      20.125762      90             90             90           
     70000   257.77235     -161.26355     -128.91013     -161.26355      0              6360.2572      20.035489      19.884806      20.235018      0              0              0              8061.6675      8526.574       5442.0667      5112.1307      761.62587     -385.90571      2129.6404      20.035489      19.884806      20.235018      90             90             90           
     70500   247.89713     -160.36035     -129.24639     -160.36035      0              8483.3239      20.023192      19.909399      20.327565      0              0              0              8103.5779      11653.776      8751.4907      5044.7053     -2411.716       2185.7173     -1469.1926      20.023192      19.909399      20.327565      90             90             90           
     71000   254.91344     -160.78561     -128.79102     -160.78561      0              8061.8644      19.951608      19.914103      20.255723      0              0              0              8047.9712      9743.518       7826.376       6615.6992      1780.6562      2755.5044     -71.197606      19.951608      19.914103      20.255723      90             90             90           
     71500   256.4627      -161.28993     -129.10088     -161.28993      0              6254.5478      20.031879      20.0195        20.209955      0              0              0              8104.7617      6419.5143      7868.0247      4476.1045     -2360.1372      5084.4072      1141.0825      20.031879      20.0195        20.209955      90             90             90           
     72000   257.72886     -158.09566     -125.7477      -158.09566      0              7589.8711      20.055586      19.963151      20.157124      0              0              0              8070.3618      5443.598       8934.8638      8391.1513      623.11372      1244.8225     -644.9415       20.055586      19.963151      20.157124      90             90             90           
     72500   251.57185     -158.9274      -127.35221     -158.9274       0              3841.1213      20.049111      20.033084      20.343041      0              0              0              8170.6914      6212.0849      1367.2798      3943.9993      139.80313      1756.0134     -1068.6629      20.049111      20.033084      20.343041      90             90             90           
     73000   250.37614     -160.35637     -128.93126     -160.35637      0              6976.8163      19.870661      19.950515      20.336568      0              0              0              8062.0241      9266.0198      4928.0395      6736.3895      465.0096      -956.38603      1611.03        19.870661      19.950515      20.336568      90             90             90           
     73500   255.87629     -160.22792     -128.11247     -160.22792      0              5045.361       19.959984      20.016971      20.32124       0              0              0              8119.1165     -966.4877       9013.7241      7088.8466      1179.795      -1427.2493     -622.71138      19.959984      20.016971      20.32124       90             90             90           
     74000   256.91278     -161.09787     -128.85234     -161.09787      0              6556.5502      20.018049      19.993627      20.162632      0              0              0              8069.7585      3888.5837      8232.0971      7548.9699     -26.513877     -76.815163     -213.26258      20.018049      19.993627      20.162632      90             90             90           
     74500   255.28334     -160.28668     -128.24566     -160.28668      0              4027.0605      20.119233      20.012404      20.118733      0              0              0              8100.4905      4030.8759      4155.1535      3895.152       259.69361     -1715.6916      901.86098      20.119233      20.012404      20.118733      90             90             90           
     75000   253.13957     -158.62624     -126.85429     -158.62624      0              7235.1565      20.127232      19.824305      20.194347      0              0              0              8057.7139      3323.7239      8004.9969      10376.749      888.45958      5085.247       647.65372      20.127232      19.824305      20.194347      90             90             90           
     75500   245.80267     -160.08069     -129.2296      -160.08069      0              5543.4293      20.071399      19.774598      20.43701       0              0              0              8111.528       4030.0181      8793.6272      3806.6426     -413.84638     -1821.919       570.66953      20.071399      19.774598      20.43701       90             90             90           
     76000   256.47621     -160.12317     -127.93243     -160.12317      0              7427.8768      19.88176       19.902202      20.448662      0              0              0              8091.3476      4599.3771      9016.493       8667.7601     -1053.2338      2222.9575     -1908.0401      19.88176       19.902202      20.448662      90             90             90           
     76500   242.85922     -161.90143     -131.41978     -161.90143      0              3369.7487      19.898724      20.045144      20.257702      0              0              0              8080.2463      2698.8191      2389.5733      5020.8538      261.3649      -535.94074     -345.47474      19.898724      20.045144      20.257702      90             90             90           
     77000   244.81115     -161.65858     -130.93194     -161.65858      0              5842.3816      20.101447      19.997462      20.083798      0              0              0              8073.2434      4763.6963      6499.0606      6264.3878      376.47594      3325.3528      513.8302       20.101447      19.997462      20.083798      90             90             90           
     77500   257.13129     -160.70198     -128.42902     -160.70198      0              8605.6626      20.266366      19.903596      20.05369       0              0              0              8089.128       7797.1736      7214.6129      10805.201     -271.05649     -2091.6193      1856.455       20.266366      19.903596      20.05369       90             90             90           
     78000   264.55847     -158.8134      -125.60824     -158.8134       0              3786.0906      20.108827      19.989722      20.285571      0              0              0              8154.1886      2911.027       4278.9912      4168.2536      1250.0672      1214.6899      922.70781      20.108827      19.989722      20.285571      90             90             90           
     78500   251.90264     -160.77201     -129.15531     -160.77201      0              1323.0955      19.756336      19.934731      20.376524      0              0              0              8025.0341      5309.4983      658.66809     -1998.8798     -784.35273      599.2109      -147.75279      19.756336      19.934731      20.376524      90             90             90           
     79000   249.65713     -161.03812     -129.70325     -161.03812      0              2922.1464      19.87491       19.97053       20.459998      0              0              0              8120.8286      4058.3886      4019.4878      688.56274     -294.1552      -442.07119      559.86002      19.87491       19.97053       20.459998      90             90             90           
     79500   258.82112     -160.22352     -127.73847     -160.22352      0              7182.7556      20.135582      19.892065      20.231336      0              0              0              8103.425       6774.4886      7163.7064      7610.0719      995.4524       186.2291      -2099.2168      20.135582      19.892065      20.231336      90             90             90           
     80000   250.02893     -158.38505     -127.00352     -158.38505      0              5476.8337      20.195653      19.917554      20.049306      0              0              0              8064.7932      4250.5803      7006.9185      5173.0023     -641.16737      2032.4545      396.97837      20.195653      19.917554      20.049306      90             90             90           
     80500   258.16003     -160.15718     -127.7551      -160.15718      0              6516.3037      20.018139      20.039336      20.150969      0              0              0              8083.5657      2984.622       10386.251      6178.038      -627.60277      676.12686      1688.8716      20.018139      20.039336      20.150969      90             90             90           
     81000   259.35929     -160.51697     -127.96437     -160.51697      0              4234.254       19.920395      19.984107      20.320626      0              0              0              8089.4644      3955.5856      2801.0206      5946.1559      18.845402     -185.54659      683.59684      19.920395      19.984107      20.320626      90             90             90           
     81500   256.11503     -160.87216     -128.72675     -160.87216      0              6172.8266      20.004693      19.861949      20.341355      0              0              0              8082.2753      7439.9595      6464.5966      4613.9237     -1988.1878      1193.7353      1645.3735      20.004693      19.861949      20.341355      90             90             90           
     82000   241.91386     -159.42205     -129.05905     -159.42205      0              6374.0345      20.057656      19.967137      20.223301      0              0              0              8099.3102      4996.9984      5276.8056      8848.2995     -1729.6137     -746.71864      1120.1919      20.057656      19.967137      20.223301      90             90             90           
     82500   265.79        -159.39        -126.03027     -159.39         0              6223.752       19.874         20.161223      20.12782       0              0              0              8064.8983      5806.7361      5823.7888      7040.7311      824.68372      794.4744      -2111.5514      19.874         20.161223      20.12782       90             90             90           
     83000   254.39706     -159.4877      -127.55792     -159.4877       0              7498.2739      19.869435      20.180025      20.205562      0              0              0              8101.7372      6723.257       8216.8766      7554.6882      391.42163      679.10471     -108.2895       19.869435      20.180025      20.205562      90             90             90           
     83500   257.04663     -160.02983     -127.76749     -160.02983      0              7788.7962      20.08413       19.885577      20.360599      0              0              0              8131.7078      9745.6458      6536.549       7084.1937      430.30423     -1320.9621      582.20092      20.08413       19.885577      20.360599      90             90             90           
     84000   261.02292     -158.39629     -125.63488     -158.39629      0              6620.7344      20.116818      19.596047      20.344563      0              0              0              8020.0326      3421.3506      9477.5974      6963.2554     -388.99001      25.148028      2670.8917      20.116818      19.596047      20.344563      90             90             90           
     84500   249.76582     -159.14535     -127.79684     -159.14535      0              3753.5414      20.166324      19.842453      20.335262      0              0              0              8137.1417      1844.1158      4526.9319      4889.5767     -642.21013     -2280.0617      2387.4231      20.166324      19.842453      20.335262      90             90             90           
     85000   252.1866      -160.3085      -128.65616     -160.3085       0              2463.7594      20.032389      19.992185      20.191977      0              0              0              8086.7099      1860.3825      2076.4832      3454.4125     -23.475773     -782.35372      277.77761      20.032389      19.992185      20.191977      90             90             90           
     85500   262.22826     -159.65374     -126.74105     -159.65374      0              10353.558      19.928724      20.062947      20.133698      0              0              0              8050.0348      10866.022      9405.0797      10789.574      1359.3624      416.63049     -1004.8526      19.928724      20.062947      20.133698      90             90             90           
     86000   248.31687     -158.64204     -127.47539     -158.64204      0              5264.7916      19.936684      20.131568      20.265912      0              0              0              8133.8601      5957.0287      3514.3003      6323.0458     -1252.6612      2318.223      -288.37701      19.936684      20.131568      20.265912      90             90             90           
     86500   253.93144     -161.04147     -129.17013     -161.04147      0              6293.2667      19.877583      20.068858      20.292381      0              0              0              8095.0447      4247.6496      7468.0513      7164.0992      1514.2918      1945.2234     -1253.176       19.877583      20.068858      20.292381      90             90             90           
     87000   252.1253      -161.29567     -129.65102     -161.29567      0              2716.5733      19.986942      19.964748      20.230735      0              0              0              8072.7567      3716.0362     -1410.3321      5844.0157      133.19847      972.74728     -717.53629      19.986942      19.964748      20.230735      90             90             90           
     87500   257.65582     -161.38533     -129.04654     -161.38533      0              5488.0616      20.228315      19.85037       20.198579      0              0              0              8110.5281      4555.2466      10131.754      1777.1844     -7.9643601     -1287.8887     -3583.1184      20.228315      19.85037       20.198579      90             90             90           
     88000   252.9925      -159.09838     -127.34488     -159.09838      0              6640.2007      20.134055      19.789452      20.203209      0              0              0              8049.8051      4391.7516      6455.8718      9072.9788     -2600.9204     -1213.5886     -2374.6126      20.134055      19.789452      20.203209      90             90             90           
     88500   257.16728     -161.16707     -128.88959     -161.16707      0              6334.4328      19.994031      19.880607      20.368951      0              0              0              8096.525       9051.5236      4793.2454      5158.5293     -864.5445      -1765.879      -18.206664      19.994031      19.880607      20.368951      90             90             90           
     89000   252.12028     -162.51872     -130.8747      -162.51872      0              6392.211       19.826452      20.047509      20.392451      0              0              0              8105.4076      7638.0909      5255.4678      6283.0744      136.49889     -577.49959     -1601.7135      19.826452      20.047509      20.392451      90             90             90           
     89500   242.77602     -161.05771     -130.5865      -161.05771      0              6069.6124      19.816206      20.020083      20.15863       0              0              0              7997.3736      9655.7263      3165.9768      5387.134       244.98242      1059.6834      1293.2018      19.816206      20.020083      20.15863       90             90             90           
     90000   249.11736     -161.9932      -130.72608     -161.9932       0              8309.8357      20.131979      20.136697      20.085456      0              0              0              8142.4743      8818.9045      5944.3909      10166.212     -428.38492     -2619.3706      293.99215      20.131979      20.136697      20.085456      90             90             90           
     90500   264.86774     -161.144       -127.90003     -161.144        0              6716.6861      20.190227      20.03139       20.077619      0              0              0              8120.1582      7111.8132      4657.9064      8380.3387     -1101.6896      757.6379       743.27206      20.190227      20.03139       20.077619      90             90             90           
     91000   251.59628     -159.99692     -128.41867     -159.99692      0              2547.0807      20.034165      19.850252      20.219566      0              0              0              8040.9821     -1557.22        7225.1989      1973.2633      706.7631       1030.1153     -947.6621       20.034165      19.850252      20.219566      90             90             90           
     91500   242.4556      -162.02849     -131.5975      -162.02849      0              6473.2986      19.954529      19.876865      20.512603      0              0              0              8135.9848      3323.5106      8937.9838      7158.4013     -1473.7582      56.899417     -562.11076      19.954529      19.876865      20.512603      90             90             90           
     92000   247.51294     -160.21906     -129.15332     -160.21906      0              8512.2302      19.881343      19.815726      20.39055       0              0              0              8033.1274      10804.159      8118.7428      6613.7884      2217.75        3049.9128      10.352999      19.881343      19.815726      20.39055       90             90             90           
     92500   246.70976     -160.30535     -129.34041     -160.30535      0              4314.4055      20.094504      20.05443       20.183138      0              0              0              8133.4781      2297.3243      5356.1129      5289.7791     -1165.3447     -1437.0581      663.12528      20.094504      20.05443       20.183138      90             90             90           
     93000   250.62132     -159.80204     -128.34615     -159.80204      0              10891.881      20.052976      20.160038      19.99023       0              0              0              8081.4253      8890.8917      12625.664      11159.086      1901.3681      1401.1461     -447.4003       20.052976      20.160038      19.99023       90             90             90           
     93500   247.6774      -160.66645     -129.58006     -160.66645      0              1942.5568      20.021551      20.099257      20.138267      0              0              0              8104.0071      3193.9777     -417.22416      3050.9169     -2301.0473     -409.89406      2034.713       20.021551      20.099257      20.138267      90             90             90           
     94000   253.73917     -161.2041      -129.3569      -161.2041       0              4828.3125      19.860861      19.880476      20.372498      0              0              0              8043.9456      3963.6547      6849.3758      3671.907       132.41768      1038.4174     -985.80886      19.860861      19.880476      20.372498      90             90             90           
     94500   253.28035     -161.18014     -129.39052     -161.18014      0              5270.5745      19.983894      19.938714      20.606465      0              0              0              8210.711       3140.7095      8361.4158      4309.5982     -935.90011      1778.2601      3647.1839      19.983894      19.938714      20.606465      90             90             90           
     95000   243.57545     -161.47674     -130.9052      -161.47674      0              7084.1004      19.982003      19.87128       20.290389      0              0              0              8056.6639      8041.6192      9111.2899      4099.3922     -926.27138     -114.94812     -3817.0671      19.982003      19.87128       20.290389      90             90             90           
[...]
    377000   246.52195     -160.64469     -129.70333     -160.64469      0              8126.5206      19.935666      20.044759      20.212934      0              0              0              8077.202       13236.324      6414.8646      4728.3736      409.69282      2083.7231      3071.042       19.935666      20.044759      20.212934      90             90             90           
    377500   249.52115     -160.47402     -129.15622     -160.47402      0              8048.8615      20.088999      19.912459      20.021542      0              0              0              8009.0448      5284.9813      10587.727      8273.8763     -59.774137     -1336.6501      2117.6916      20.088999      19.912459      20.021542      90             90             90           
    378000   246.9723      -159.71465     -128.71677     -159.71465      0              3441.5127      20.250052      19.970447      20.198826      0              0              0              8168.4574      2939.7193      5763.4244      1621.3944     -766.22655      295.06418      153.91529      20.250052      19.970447      20.198826      90             90             90           
    378500   250.61496     -160.77305     -129.31797     -160.77305      0              8342.2319      19.973155      19.805428      20.237304      0              0              0              8005.4096      9292.2481      8297.6503      7436.7974     -1099.4355      57.733953     -796.30798      19.973155      19.805428      20.237304      90             90             90           
    379000   260.98933     -161.43372     -128.67653     -161.43372      0              7412.0349      19.882474      20.001306      20.395789      0              0              0              8110.9043      8518.5939      9597.2652      4120.2455      250.04808     -537.00389     -3502.1805      19.882474      20.001306      20.395789      90             90             90           
    379500   250.22282     -160.5701      -129.16424     -160.5701       0              2164.3483      19.936463      20.095025      20.359596      0              0              0              8156.5368      2929.5392      1288.8196      2274.686      -1110.4102      1673.7589     -323.845        19.936463      20.095025      20.359596      90             90             90           
    380000   242.49434     -159.57773     -129.14187     -159.57773      0              6707.3728      19.932747      19.961694      20.144036      0              0              0              8015.139       4636.8344      9622.3013      5862.9826      1889.305      -1096.032      -1369.9809      19.932747      19.961694      20.144036      90             90             90           
    380500   253.47968     -161.63821     -129.82357     -161.63821      0              5560.1845      20.078077      19.919232      20.177764      0              0              0              8069.8925      2894.6299      6967.4237      6818.4999      1344.1305      619.60398      35.179451      20.078077      19.919232      20.177764      90             90             90           
    381000   242.18956     -159.79833     -129.40073     -159.79833      0              5979.5095      20.079173      19.935313      20.210654      0              0              0              8090.0137      6097.7522      5929.1665      5911.6098      1246.361       1227.1505     -2424.383       20.079173      19.935313      20.210654      90             90             90           
    381500   261.10655     -158.52366     -125.75176     -158.52366      0              8579.3117      20.042031      19.998731      20.264824      0              0              0              8122.4495      7390.3874      9439.1695      8908.3782     -379.90132     -1614.5068     -947.37216      20.042031      19.998731      20.264824      90             90             90           
    382000   253.56867     -160.05526     -128.22945     -160.05526      0              5174.1365      19.946879      20.032166      20.242552      0              0              0              8088.5025      8373.772       2616.7258      4531.9117      221.75367     -2450.3256      2802.6519      19.946879      20.032166      20.242552      90             90             90           
    382500   265.51144     -159.28426     -125.95949     -159.28426      0              4351.9902      19.961945      20.025723      20.219664      0              0              0              8082.8589      6280.6422      2029.7876      4745.5406     -257.76149      659.15845     -645.89078      19.961945      20.025723      20.219664      90             90             90           
    383000   255.16506     -159.21014     -127.18397     -159.21014      0              5938.5804      20.040476      19.982462      20.225596      0              0              0              8099.5024      8135.9728      4402.6043      5277.164      -1349.0816      4570.1208     -984.62395      20.040476      19.982462      20.225596      90             90             90           
    383500   268.47352     -158.98147     -125.28492     -158.98147      0              7367.4194      20.080604      19.919216      20.275654      0              0              0              8110.0567      3253.6459      11084.225      7764.3868      2376.3951      229.79506     -1325.2619      20.080604      19.919216      20.275654      90             90             90           
    384000   241.71252     -158.55937     -128.22164     -158.55937      0              10990.427      19.921954      19.93911       20.336009      0              0              0              8077.992       13179.915      10148.531      9642.8359     -771.6087      -617.14897      2868.4966      19.921954      19.93911       20.336009      90             90             90           
    384500   253.34469     -161.10633     -129.30863     -161.10633      0              5311.5581      19.989344      20.044564      20.321338      0              0              0              8142.3063      5483.7583      3353.9817      7096.9345      923.98956      920.15732      629.59853      19.989344      20.044564      20.321338      90             90             90           
    385000   247.50973     -160.94157     -129.87623     -160.94157      0              7030.1346      20.11659       19.934253      20.081895      0              0              0              8053.0246      5568.1302      7017.7842      8504.4894     -1334.0104      237.92907     -1778.673       20.11659       19.934253      20.081895      90             90             90           
    385500   251.55675     -160.96895     -129.39565     -160.96895      0              7539.3558      20.129234      19.924496      20.00656       0              0              0              8023.9279      7438.4058      5918.6028      9261.0588     -484.35066     -2641.9837      1240.8222      20.129234      19.924496      20.00656       90             90             90           
    386000   250.80385     -160.1459      -128.6671      -160.1459       0              4710.3566      19.973307      20.07417       20.251808      0              0              0              8119.913       7271.2783      3769.9591      3089.8323      909.1738       829.13331      1486.7996      19.973307      20.07417       20.251808      90             90             90           
    386500   256.93949     -159.9235      -127.67461     -159.9235       0              3795.8978      19.853523      20.080185      20.451237      0              0              0              8153.1395      9381.591       1992.2436      13.858747     -276.52791      1129.7404      77.147805      19.853523      20.080185      20.451237      90             90             90           
    387000   257.98818     -160.83801     -128.4575      -160.83801      0              6969.0175      19.873438      19.840696      20.331111      0              0              0              8016.6148      6842.3505      9255.2639      4809.4381     -625.33467     -2554.2058     -305.00344      19.873438      19.840696      20.331111      90             90             90           
    387500   255.9841      -160.49156     -128.36259     -160.49156      0              1292.7072      20.206378      19.905925      20.23342       0              0              0              8138.4208     -2204.7603      4980.8768      1102.0052     -2456.6206     -256.525        1071.6998      20.206378      19.905925      20.23342       90             90             90           
    388000   247.31632     -161.14223     -130.10116     -161.14223      0              7369.0786      20.16655       19.989666      20.013797      0              0              0              8068.0141      5961.3019      10318.504      5827.4304      616.97273     -971.16753     -2184.5972      20.16655       19.989666      20.013797      90             90             90           
    388500   239.03454     -160.45209     -130.45048     -160.45209      0              5523.1156      19.988607      20.091753      20.008226      0              0              0              8035.4265      4617.2862      5217.4589      6734.6017     -117.66847     -425.78536      3114.2302      19.988607      20.091753      20.008226      90             90             90           
    389000   248.8157      -161.41503     -130.18577     -161.41503      0              3031.1096      19.967886      20.073686      20.200777      0              0              0              8097.0587      2704.047       2752.7999      3636.4819     -1323.5681      1865.1051      759.3525       19.967886      20.073686      20.200777      90             90             90           
    389500   252.64082     -161.44051     -129.73115     -161.44051      0              5534.1141      19.905146      19.897382      20.298735      0              0              0              8039.5227      5704.9496      7588.3593      3309.0334      60.867854     -620.82984      449.78431      19.905146      19.897382      20.298735      90             90             90           
    390000   238.46015     -160.37149     -130.44198     -160.37149      0              8538.7701      19.963856      19.88474       20.357647      0              0              0              8081.4995      7086.5783      10978.173      7551.559       885.91137      36.810492     -858.14992      19.963856      19.88474       20.357647      90             90             90           
    390500   250.76134     -159.42814     -127.95469     -159.42814      0              7636.8337      19.981596      19.995795      20.233574      0              0              0              8084.282       7314.8904      6021.4114      9574.1994     -371.34455     -1602.8298      662.99446      19.981596      19.995795      20.233574      90             90             90           
    391000   255.32508     -159.0199      -126.97364     -159.0199       0              7912.9254      20.043194      20.170014      20.090335      0              0              0              8121.9496      11255.003      4042.9161      8440.8576     -1192.3486     -2036.5666     -1467.591       20.043194      20.170014      20.090335      90             90             90           
    391500   265.04821     -157.72529     -124.45867     -157.72529      0              8179.1607      20.109726      19.997225      20.05807       0              0              0              8066.1263      4824.667       9588.8458      10123.969     -379.45832      2313.0388     -629.93697      20.109726      19.997225      20.05807       90             90             90           
    392000   241.24228     -161.13739     -130.85868     -161.13739      0              4870.3583      20.103181      19.693156      20.33658       0              0              0              8051.152       5148.3005      5764.2838      3698.4906      644.51626      1217.729      -986.97079      20.103181      19.693156      20.33658       90             90             90           
    392500   248.42298     -161.15901     -129.97904     -161.15901      0              6209.7949      19.962927      19.719718      20.571712      0              0              0              8098.3278      8716.0864      5627.1496      4286.1489      1348.2287      170.46645      136.9076       19.962927      19.719718      20.571712      90             90             90           
    393000   259.46889     -159.89111     -127.32476     -159.89111      0              7998.7929      19.833931      20.022909      20.360298      0              0              0              8085.7462      10322.119      5664.8675      8009.3924     -178.35331      1420.6168      1419.8153      19.833931      20.022909      20.360298      90             90             90           
    393500   263.59539     -158.55269     -125.46841     -158.55269      0              4705.2354      19.991609      20.193825      20.153415      0              0              0              8136.0757      8193.2258      134.54866      5787.9317      2002.3345     -678.66561     -1121.8491      19.991609      20.193825      20.153415      90             90             90           
    394000   248.63196     -159.8507      -128.64451     -159.8507       0              6820.0328      20.137252      20.057784      20.075856      0              0              0              8108.8117      5301.8937      5813.4599      9344.7448      582.39046      29.677646      141.87443      20.137252      20.057784      20.075856      90             90             90           
    394500   245.44084     -160.33067     -129.52499     -160.33067      0              5237.573       20.05913       19.867587      20.154501      0              0              0              8032.1028      4179.2088      7906.9404      3626.5698     -920.30532      2551.9045      568.44174      20.05913       19.867587      20.154501      90             90             90           
    395000   257.00374     -160.41237     -128.15542     -160.41237      0              4479.3919      20.040988      19.97676       20.343393      0              0              0              8144.5592      2106.9831      6036.8354      5294.3572     -911.8326       522.05281     -2285.9939      20.040988      19.97676       20.343393      90             90             90           
    395500   248.40303     -160.93877     -129.76131     -160.93877      0              7903.5273      19.892604      19.971267      20.317655      0              0              0              8071.8081      10663.161      7857.0904      5190.3302     -882.78078     -1215.3455      360.44021      19.892604      19.971267      20.317655      90             90             90           
    396000   244.36711     -160.35041     -129.6795      -160.35041      0              5170.5637      19.923347      19.981972      20.257622      0              0              0              8064.7165      8263.5618      2202.7007      5045.4286      285.64439      1562.9004     -1921.0025      19.923347      19.981972      20.257622      90             90             90           
    396500   243.7913      -161.33999     -130.74135     -161.33999      0              5864.6043      20.130307      20.001863      20.18659       0              0              0              8128.002       3541.1131      8267.7694      5784.9306      215.66253     -429.50039     -730.2024       20.130307      20.001863      20.18659       90             90             90           
    397000   253.33613     -160.28706     -128.49043     -160.28706      0              6705.7021      20.142087      19.861292      20.115106      0              0              0              8047.0052      3899.2462      9900.3276      6317.5324     -285.97894      1047.2706     -1346.0657      20.142087      19.861292      20.115106      90             90             90           
    397500   250.74315     -159.5585      -128.08732     -159.5585       0              5836.4344      20.107201      19.89551       20.235305      0              0              0              8094.9925      6514.9171      3817.2712      7177.1148      54.550898     -1464.8658     -2087.6069      20.107201      19.89551       20.235305      90             90             90           
    398000   253.572       -159.80866     -127.98243     -159.80866      0              8451.9277      19.915515      19.982064      20.365291      0              0              0              8104.4303      14301.453      6253.6808      4800.6489     -137.23336      837.87916      983.86893      19.915515      19.982064      20.365291      90             90             90           
    398500   255.31216     -159.38194     -127.3373      -159.38194      0              6630.7477      19.811972      19.895657      20.323402      0              0              0              8010.9203      8090.7207      5958.1781      5843.3443      1564.2296     -92.516497     -1215.4553      19.811972      19.895657      20.323402      90             90             90           
    399000   239.25308     -162.14513     -132.1161      -162.14513      0              5167.7843      20.045938      20.027921      20.323003      0              0              0              8159.2483      5281.8741      6353.4284      3868.0503     -300.54058      1345.5884      1896.8442      20.045938      20.027921      20.323003      90             90             90           
    399500   250.38458     -160.32265     -128.89648     -160.32265      0              7331.677       20.036413      19.978014      20.074996      0              0              0              8035.775       6434.1714      7583.7745      7977.0852      214.85505     -1353.1058      522.70422      20.036413      19.978014      20.074996      90             90             90           
    400000   242.95325     -160.74075     -130.2473      -160.74075      0              9414.4688      20.015531      19.956414      20.116944      0              0              0              8035.4767      6060.8553      12370.615      9811.936      -765.4064       1492.6848     -1349.2495      20.015531      19.956414      20.116944      90             90             90           
Loop time of 1476.27 on 1 procs for 400000 steps with 972 atoms

Performance: 11.705 ns/day, 2.050 hours/ns, 270.952 timesteps/s
99.3% CPU use with 1 MPI tasks x no OpenMP threads

MPI task timing breakdown:
Section |  min time  |  avg time  |  max time  |%varavg| %total
---------------------------------------------------------------
Pair    | 1057.3     | 1057.3     | 1057.3     |   0.0 | 71.62
Bond    | 0.023919   | 0.023919   | 0.023919   |   0.0 |  0.00
Neigh   | 238.28     | 238.28     | 238.28     |   0.0 | 16.14
Comm    | 10.121     | 10.121     | 10.121     |   0.0 |  0.69
Output  | 149.5      | 149.5      | 149.5      |   0.0 | 10.13
Modify  | 19.901     | 19.901     | 19.901     |   0.0 |  1.35
Other   |            | 1.186      |            |       |  0.08

Nlocal:            972 ave         972 max         972 min
Histogram: 1 0 0 0 0 0 0 0 0 0
Nghost:           4692 ave        4692 max        4692 min
Histogram: 1 0 0 0 0 0 0 0 0 0
Neighs:              0 ave           0 max           0 min
Histogram: 1 0 0 0 0 0 0 0 0 0
FullNghs:       252054 ave      252054 max      252054 min
Histogram: 1 0 0 0 0 0 0 0 0 0

Total # of neighbors = 252054
Ave neighs/atom = 259.31481
Ave special neighs/atom = 0
Neighbor list builds = 40000
Dangerous builds not checked

unfix		3
unfix		2

write_data	data.final.${pid}
write_data	data.final.0
System init for write_data ...
Generated 0 of 1 mixed pair_coeff terms from geometric mixing rule

write_restart   restart.lmp.${pid}
write_restart   restart.lmp.0
System init for write_restart ...
Generated 0 of 1 mixed pair_coeff terms from geometric mixing rule
Total wall time: 0:24:54
