LAMMPS data file via write_data, version 23 Jun 2022, timestep = 400000

972 atoms
2 atom types

-0.05122466355556199 20.04227766355669 xlo xhi
0.0010334442713304526 19.99001955572911 ylo yhi
0.261503977629566 20.53926802237095 zlo zhi

Masses

1 1.008
2 15.999

Atoms # full

2 0 2 0 2.381609976941303 2.1170944650272054 0.8321440826447197 0 0 0
31 0 1 0 1.1692933405638766 1.9020393342925461 2.11725653552418 0 0 0
32 0 2 0 1.2228081452397992 0.9883990995182428 2.4613826272311736 0 0 0
33 0 2 0 1.034337889485888 2.497595819925334 2.8528608533097337 0 0 0
5 0 2 0 3.3760355282555707 1.0726208190726496 4.1812115904852565 0 0 0
10 0 1 0 1.0096739379716297 4.009826534869822 4.108545809673087 0 0 0
18 0 2 0 4.083339488390092 3.406189189597291 3.8288761761268666 0 0 0
4 0 1 0 4.118001173927191 1.4053640698316896 3.708851480353182 0 0 0
16 0 1 0 4.014224328547362 4.3508114567140845 3.8826143971672518 0 0 0
17 0 2 0 4.2191567273769195 4.81609632858332 3.0928605841458428 0 0 0
230 0 2 0 4.44617559081625 0.339298088278064 2.3086314352707253 0 1 0
6 0 2 0 4.961709950971708 1.0844566753821538 4.121826922395387 0 0 0
36 0 2 0 6.271373037202465 2.0875234297031455 1.1021750758473219 0 0 0
67 0 1 0 7.660430827113051 1.8517026743501148 2.2223135525608155 0 0 0
68 0 2 0 7.530711669089506 2.4556814169383836 2.9894214217922728 0 0 0
272 0 2 0 7.493083905641651 0.06208926690528177 2.5088732436778236 0 1 0
34 0 1 0 5.76534551016331 2.5417492974499556 0.40225876704615193 0 0 0
46 0 1 0 7.668266692022211 3.471581044986533 4.266243710910086 0 0 0
56 0 2 0 7.531482777961775 4.950429387758232 3.228139405700433 0 0 0
69 0 2 0 8.294516432458034 2.345739661686694 1.6917600655771965 0 0 0
41 0 2 0 10.525509138764395 1.3289939824202242 3.995975436012105 0 0 0
40 0 1 0 11.33615561725056 1.5699263739195326 3.377983720088644 0 0 0
54 0 2 0 10.821855280794546 3.406378009025573 3.632093376896737 0 0 0
52 0 1 0 10.335337577577203 4.145429491313854 4.068134551649005 0 0 0
39 0 2 0 10.361588177628498 2.6895931361152066 0.4915650884431645 0 0 0
70 0 1 0 12.00886636146485 2.472440906048605 0.8452354205471923 0 0 0
72 0 2 0 12.41525060866252 2.6362695531966414 1.676384082386391 0 0 0
84 0 2 0 14.174113669706914 3.5203149421897524 3.836042792184248 0 0 0
103 0 1 0 14.378214764961417 2.203612468263794 2.6641300595134663 0 0 0
105 0 2 0 14.266252419850197 1.2814731748600092 2.551774022908193 0 0 0
42 0 2 0 12.079447383065244 1.3762092319260935 4.032994281984091 0 0 0
104 0 2 0 14.93451676068128 2.4525186456357786 1.9313807459102044 0 0 0
73 0 1 0 15.994544694049338 2.7079669708312775 0.4888598394542658 0 0 0
83 0 2 0 14.25034949045776 4.943888001157838 3.5722728865965916 0 0 0
108 0 2 0 19.28253668439308 2.3181091114434276 1.2394205919965824 0 0 0
76 0 1 0 17.7937593993868 1.3956723430109856 2.884121363225193 0 0 0
77 0 2 0 17.557776641485574 0.6010029403469282 2.367777541861495 0 0 0
89 0 2 0 17.287511405376843 2.8575092724141977 3.1971944144312268 0 0 0
107 0 2 0 17.837596274309117 2.351201743616654 0.6513706339017014 0 0 0
106 0 1 0 18.79556127326827 2.3671418058938256 0.3900921599143282 0 0 0
88 0 1 0 17.19125805370546 3.705004565452628 3.736336034873135 0 0 0
90 0 2 0 16.282022238565162 3.742525401574785 4.068632861098356 0 0 0
86 0 2 0 17.47561600361883 4.872570167237817 2.593544699227077 0 0 0
78 0 2 0 18.289273727658596 1.0943129933406681 3.663102406597118 0 0 0
20 0 2 0 1.0541597716759723 5.189223901533796 2.8016155646707595 0 0 0
19 0 1 0 0.7048765071208704 5.699196808913437 2.0821187608634713 0 0 0
21 0 2 0 0.7635243045550983 6.589080343328279 2.446298066968379 0 0 0
675 0 2 0 2.060348963181201 5.374215948705103 0.5667346855571744 0 0 1
112 0 1 0 3.842974302179357 8.119513168202802 3.655957805198849 0 0 0
139 0 1 0 0.6754873822138834 8.651816075895084 2.258909230220903 0 0 0
141 0 2 0 1.3422676091416665 8.74842758784948 1.5494177353540273 0 0 0
119 0 2 0 0.9842914277309125 9.810104065425355 3.807542825406206 0 0 0
110 0 2 0 3.473021944601094 8.980995847887394 0.5580023414444228 0 0 0
126 0 2 0 3.8561081637851045 9.78169478952785 3.4868322408893038 0 0 0
109 0 1 0 2.5473889570210306 9.035526854810223 0.286089934824986 0 0 0
14 0 2 0 4.78564070710117 5.862671225383273 1.0083388181460449 0 0 0
114 0 2 0 4.117602483378226 7.547934735949513 2.9182121194630906 0 0 0
13 0 1 0 5.035926106383215 6.0929604787193865 1.9488552554644185 0 0 0
15 0 2 0 5.98330848899746 5.749603512627657 2.052912807222378 0 0 0
55 0 1 0 7.513734559732029 5.742525346233569 2.689321596288832 0 0 0
177 0 2 0 7.144273789719008 7.695787641427777 2.5006844061225983 0 0 0
175 0 1 0 7.249131844998087 8.663566449334219 2.3850808727438513 0 0 0
176 0 2 0 6.400249183139114 8.935797293912522 1.9887231383364723 0 0 0
142 0 1 0 5.175611113397233 9.275795593338767 0.7214040363224757 0 0 0
155 0 2 0 7.546848928358736 9.992696969615455 3.533218546268206 0 0 0
57 0 2 0 7.988973839251157 5.42997748951933 1.8911143925869418 0 0 0
147 0 2 0 8.845941672727278 8.882433322080583 1.225872524767558 0 0 0
51 0 2 0 10.95782027541695 5.200518833086842 2.6406024105853736 0 0 0
149 0 2 0 9.857317302841532 7.829391615571249 3.9756646237954407 0 0 0
50 0 2 0 10.647285930873199 5.772768057996117 1.3266812384434719 0 0 0
49 0 1 0 11.333031874330326 5.828368754185578 2.028731333793942 0 0 0
150 0 2 0 10.936200063528645 7.471980027877769 2.770422470350783 0 0 0
148 0 1 0 10.672426679833807 8.071972420397069 3.5083442966049496 0 0 0
162 0 2 0 10.770881544862906 9.74409607749315 3.6225347045775798 0 0 0
179 0 2 0 11.039861897081863 9.270415807341127 0.7184856163444113 0 0 0
145 0 1 0 9.352684135704516 9.316918291149115 0.5331101890192271 0 0 0
709 0 1 0 9.237993482923514 5.428177491310854 0.32161353498223555 0 0 1
91 0 1 0 13.890066065026817 5.811445127620036 2.1110338793843813 0 0 0
92 0 2 0 13.954815621484727 6.779678552378666 2.1898804285997135 0 0 0
93 0 2 0 12.938257651432922 5.676773935322866 1.8811519836257264 0 0 0
178 0 1 0 12.02381262509961 9.262526529832574 0.6634244332918326 0 0 0
211 0 1 0 13.534953877411168 8.589501666616503 2.7417411860139125 0 0 0
212 0 2 0 13.65703391227852 9.316576337352739 3.3100363583118315 0 0 0
213 0 2 0 12.844223162304328 8.939649318779846 2.106493364426372 0 0 0
747 0 2 0 15.17428321613327 5.5314258485787 0.6181413296882221 0 0 1
183 0 2 0 14.941905641070143 8.883482821979111 1.3653462632446205 0 0 0
181 0 1 0 15.629714289064218 9.12259984838837 0.6824857788504664 0 0 0
204 0 2 0 16.00897140548501 7.590152393242931 4.315492896287938 0 0 0
85 0 1 0 17.817536001019597 5.520425899772349 1.9343963884388593 0 0 0
87 0 2 0 18.796340469667737 5.454826592299189 1.849573168117034 0 0 0
185 0 2 0 17.704613514857687 7.187351204187029 2.7551356689860786 0 0 0
184 0 1 0 17.62566116730481 7.905853960030846 3.402782632596851 0 0 0
746 0 2 0 16.707351822887176 5.629448376461764 0.3565984092725618 0 0 1
140 0 2 0 19.920108813499635 9.00786200308712 1.829037825845586 -1 0 0
186 0 2 0 17.645157962193657 8.778022062433218 2.978487851751076 0 0 0
214 0 1 0 18.41201751804917 9.390831719252418 0.49799197767150566 0 0 0
216 0 2 0 17.528591213393604 9.235394104289302 0.8864422855930743 0 0 0
118 0 1 0 1.0696398474391082 10.683083544018226 4.260612646189838 0 0 0
124 0 1 0 3.7712870110064567 10.75496329768291 3.716243273079758 0 0 0
129 0 2 0 0.7597879518776042 11.998155674217559 2.6746193096503803 0 0 0
782 0 2 0 1.7269095188390051 12.272657518720829 0.6013527181143277 0 0 1
127 0 1 0 0.6284781733042468 12.476101879293093 1.8443908777826579 0 0 0
221 0 2 0 3.2533105624627567 14.190823188978587 3.6954466034780333 0 0 0
249 0 2 0 0.7666149858619281 14.269419136794857 2.6267986899766997 0 0 0
122 0 2 0 4.173784478240696 11.775647473690203 2.356918328983129 0 0 0
220 0 1 0 4.060600516923544 14.571112979545711 3.3673735217644736 0 0 0
123 0 2 0 4.0644712544307735 12.385602746407246 0.9125271666930705 0 0 0
222 0 2 0 4.333796194306314 13.955018467064408 2.708888030108475 0 0 0
121 0 1 0 4.555202261651877 12.37855847393422 1.7314363974086986 0 0 0
156 0 2 0 7.89482566403867 11.48248570058741 3.3479396884285775 0 0 0
154 0 1 0 7.739460173801531 10.812832743545995 4.075043921442116 0 0 0
165 0 2 0 6.4332930907578225 12.45333086837397 2.0929570267224538 0 0 0
163 0 1 0 7.378752560139801 12.67063577063039 2.101966964171512 0 0 0
164 0 2 0 7.458427881732042 13.623133795236484 2.2407332064214662 0 0 0
143 0 2 0 5.36496867605397 10.158773466805858 0.3691967735259146 0 0 0
819 0 2 0 8.317209365590175 12.183994572422998 0.8350514155231972 0 0 1
258 0 2 0 9.807187880538446 14.759056873466104 3.8975829412805356 0 0 0
160 0 1 0 10.740339113299742 10.709689258310028 3.9141155744663 0 0 0
158 0 2 0 10.675512551284067 11.946589720998656 2.8655961086668866 0 0 0
157 0 1 0 11.127075600927753 12.497457107976814 2.1640717650251036 0 0 0
159 0 2 0 10.98686671508738 13.412063271356612 2.407056295310042 0 0 0
146 0 2 0 9.121579479465476 10.260373169055631 0.4349080480202959 0 0 0
191 0 2 0 14.362056430934041 11.554806413067768 3.2686502370335 0 0 0
190 0 1 0 14.730123287852427 10.876482894160347 3.8789823058765007 0 0 0
199 0 1 0 13.838730913611878 12.740470610870885 1.759463204835521 0 0 0
200 0 2 0 12.860959223022938 12.671647135879567 1.75619924983106 0 0 0
201 0 2 0 13.992612725068101 13.617598132373699 2.096815629522952 0 0 0
855 0 2 0 15.062498150677396 12.272691522811748 0.5226811187357695 0 0 1
192 0 2 0 15.617277913618691 10.741544256951826 3.5892314735474873 0 0 0
128 0 2 0 19.784335983752495 12.62158369287929 1.6597453078037736 -1 0 0
196 0 1 0 17.613840848943266 10.475143494506126 3.4770222953310874 0 0 0
197 0 2 0 17.856235024931205 11.25898981901379 2.938366233886305 0 0 0
193 0 1 0 18.041628067938806 12.625416195499636 1.4220829129407753 0 0 0
194 0 2 0 17.85711767835088 13.572673711687381 1.6894623021339614 0 0 0
195 0 2 0 17.328823021273358 12.36275563329043 0.762772567104898 0 0 0
294 0 2 0 16.67882955823204 14.569902515297205 3.837283131130182 0 0 0
292 0 1 0 17.449091798370567 14.596403677543941 3.223146146047015 0 0 0
247 0 1 0 0.6359612035703428 15.23968620509231 2.556606684641234 0 0 0
218 0 2 0 1.6647515309268135 15.677022324595342 1.0739167828252871 0 0 0
217 0 1 0 2.3551364371700663 15.87951904118247 0.4658027740107369 0 0 0
227 0 2 0 0.9387232233779796 16.46912337287818 3.61464666809667 0 0 0
235 0 1 0 0.6067675245808399 19.200091612259293 1.9108681403237608 0 0 0
236 0 2 0 0.7041866473395406 18.59221318624892 2.6162826301836755 0 0 0
237 0 2 0 1.19742587136988 18.890693019995382 1.177513393814996 0 0 0
228 0 2 0 2.2183660464627986 17.104331071074604 4.040811235402861 0 0 0
232 0 1 0 3.935268133515536 17.192976021894225 3.192462170043655 0 0 0
891 0 2 0 3.2574901862719523 18.747203054957048 0.6554126410620762 0 0 1
226 0 1 0 1.2428192174364763 17.30078702092169 4.046957112481717 0 0 0
251 0 2 0 4.220709910152114 16.10794816962499 0.5682878439635439 0 0 0
233 0 2 0 4.184664021035609 16.30082472753297 2.911512663432948 0 0 0
234 0 2 0 4.127247721688594 17.925732810727162 2.5686368944117364 0 0 0
229 0 1 0 4.548473086514344 19.537378772400785 1.7312107426719585 0 0 0
283 0 1 0 7.387491073325195 15.380927990851754 2.3485360960839783 0 0 0
284 0 2 0 6.598264569710902 15.754053282055596 1.892468171310403 0 0 0
250 0 1 0 5.229461525572815 16.219978113384528 0.6006189719823329 0 0 0
231 0 2 0 5.451192773624445 19.200097496772436 1.6642913733991993 0 0 0
271 0 1 0 7.345341241003051 19.14018760551435 2.225065464132781 0 0 0
273 0 2 0 7.699385952624228 18.508323029291702 2.876168991611372 0 0 0
266 0 2 0 11.360000715213568 19.886393914136647 2.023166998867408 0 0 0
256 0 1 0 10.59910483857849 15.01350984359707 3.3856778267196384 0 0 0
285 0 2 0 8.078673705436303 15.34988436351015 1.6145821070768587 0 0 0
263 0 2 0 8.37791832813755 16.576621152796505 3.464520683344016 0 0 0
262 0 1 0 8.391607210117437 17.300244755756026 4.028727459645496 0 0 0
927 0 2 0 8.56114365138462 18.65893044582807 1.0417430563347334 0 0 1
264 0 2 0 9.299859810312777 17.44089124079199 4.250620996987385 0 0 0
257 0 2 0 10.892981841436441 15.906922040146107 3.6694119102941034 0 0 0
286 0 1 0 11.725638924233328 16.04883933587221 0.6258086915362151 0 0 0
255 0 2 0 10.155624636008245 15.535315268986379 0.5122070598696411 0 0 0
267 0 2 0 10.718894950685282 18.852285817466196 1.0689751407534502 0 0 0
268 0 1 0 11.276571883818818 17.709297878785137 3.8818412686782926 0 0 0
269 0 2 0 11.409476596109794 17.980950557022204 2.964242350974965 0 0 0
265 0 1 0 11.55979914375095 19.050574843469832 1.6486317266819022 0 0 0
253 0 1 0 9.199015115539986 15.453905511145999 0.26386901918190725 0 0 0
925 0 1 0 9.129336071875594 18.27379890546309 0.3798010617463651 0 0 1
287 0 2 0 11.826299539326353 17.012810343050866 0.39274771579690526 0 0 0
319 0 1 0 14.066444973372196 15.280174344714736 2.3235332266534616 0 0 0
320 0 2 0 13.357491369919737 15.757849492978766 1.8100774806908708 0 0 0
321 0 2 0 14.367838528519648 15.856202024250313 2.998785261018072 0 0 0
307 0 1 0 13.983285932330022 19.583001279050038 2.1752265876983703 0 0 0
308 0 2 0 13.153109193285847 19.166241087025554 1.8496615412893425 0 0 0
309 0 2 0 14.359693618131217 18.912829827863874 2.7970055553809083 0 0 0
298 0 1 0 14.704950775502036 17.514674411840026 3.7898528546699484 0 0 0
291 0 2 0 15.335042897580689 15.339942878050774 0.8164180123153848 0 0 0
963 0 2 0 15.21849886953627 18.869908441570225 0.9849100698851799 0 0 1
300 0 2 0 15.707389907280215 17.491890570390822 3.8744761389226845 0 0 0
961 0 1 0 15.75578372898804 18.36376521094688 0.4123339650038096 0 0 1
248 0 2 0 19.886404955182606 15.43525644041884 2.0520244047109983 -1 0 0
322 0 1 0 18.76115870899564 15.62804109000509 0.4477034862899959 0 0 0
293 0 2 0 17.66959074383386 15.546908148175241 3.2063633367140167 0 0 0
301 0 1 0 18.095300120690595 19.111575548910338 1.4987833293633233 0 0 0
302 0 2 0 17.7347225943163 18.68489312170341 0.7101272252182156 0 0 0
303 0 2 0 19.03346412395882 19.007204544934737 1.3925518475406427 0 0 0
306 0 2 0 17.566268428600278 18.00199829954707 2.743184349881095 0 0 0
304 0 1 0 17.379992935739814 17.36230883151979 3.454609523061139 0 0 0
305 0 2 0 17.9437208678757 17.55850351716893 4.232986616004226 0 0 0
290 0 2 0 16.851587606083285 15.668956048344423 0.2790745042897278 0 0 0
12 0 2 0 1.894213121109152 4.2019456475088965 4.4561273049252605 0 0 0
22 0 1 0 1.8647281148478305 0.6285503961691385 5.187185287703465 0 0 0
23 0 2 0 2.135801599337717 1.2500498327968304 5.899977320436599 0 0 0
325 0 1 0 2.908601124964864 2.208577720120163 7.062034857054468 0 0 0
326 0 2 0 3.85685857858902 2.0830515124488427 7.2479484632489255 0 0 0
327 0 2 0 2.848739259523 3.175522303204993 6.797292826294308 0 0 0
101 0 2 0 0.125462303993397 0.9008852022374559 4.7867722740619945 1 0 0
11 0 2 0 0.3047987507137663 4.071889743983125 4.761324153910905 0 0 0
356 0 2 0 1.5654295783098713 2.1151485739543934 8.21102532332454 0 0 0
25 0 1 0 2.4714621719463525 4.921993357021233 6.876333286750691 0 0 0
357 0 2 0 -0.007352952544353954 2.008196845509008 8.157456004288377 0 0 0
9 0 2 0 5.098466086862407 4.5937015003780814 5.153893729187455 0 0 0
29 0 2 0 7.288796707980104 0.7365422457472812 4.932464860507126 0 0 0
28 0 1 0 6.379841246337468 0.5072740607760596 5.110983632156425 0 0 0
358 0 1 0 5.597132850577534 2.0176921281890743 7.155249287184714 0 0 0
359 0 2 0 5.952545653963222 1.4160759902213138 6.529973962013223 0 0 0
360 0 2 0 6.291568795635778 2.09889455516372 7.799802661966363 0 0 0
8 0 2 0 5.684922351328216 3.9837301777076615 6.505834291330384 0 0 0
48 0 2 0 6.930308849516557 3.845532367428525 4.888847300439929 0 0 0
7 0 1 0 5.874963419536055 4.562785619134558 5.78385616141236 0 0 0
47 0 2 0 8.570602728546291 3.875657115221115 4.390799446101221 0 0 0
58 0 1 0 9.02825196251788 0.6148680166304706 4.822877883965924 0 0 0
59 0 2 0 9.032324884863591 1.4867472511302058 5.356199003006357 0 0 0
363 0 2 0 9.50103679762863 3.590683794181485 6.503878578160008 0 0 0
361 0 1 0 9.643294883000713 2.6110845999893955 6.712044070865666 0 0 0
362 0 2 0 10.515615013038575 2.5707084827275173 7.13361405496626 0 0 0
53 0 2 0 10.98072058346306 4.46859957834422 4.6875496619361146 0 0 0
392 0 2 0 8.563074004808563 1.9846060325283115 8.15788323715563 0 0 0
82 0 1 0 14.455282503964701 4.3224646680278935 4.318135800121285 0 0 0
394 0 1 0 12.216776426124962 2.6731175689382325 7.572463819747252 0 0 0
396 0 2 0 12.309700851291739 3.550742267167792 7.189935880808548 0 0 0
65 0 2 0 14.258522736274141 1.0433839155917257 5.448272847120143 0 0 0
64 0 1 0 13.303239053644079 1.1800898060082905 5.4684688103727535 0 0 0
66 0 2 0 13.0916666645476 1.6256078609450164 6.275611321304967 0 0 0
395 0 2 0 12.909012976437491 2.6544666848593352 8.274535269419209 0 0 0
44 0 2 0 13.107623031539374 4.792735137947528 5.4701032834905945 0 0 0
399 0 2 0 15.894942469833051 3.7655218333885263 6.933446629193516 0 0 0
94 0 1 0 16.070704696236746 0.8297795609475305 5.329958998582383 0 0 0
95 0 2 0 16.11508706709477 1.5520274142474053 6.029869094106854 0 0 0
96 0 2 0 16.348610742380703 1.1591042302582324 4.50812986026021 0 0 0
397 0 1 0 16.109607085380958 2.8000316984327003 7.182534065973777 0 0 0
100 0 1 0 19.221706069353402 0.7634688261229657 4.885391497032473 0 0 0
398 0 2 0 17.069220439669557 2.743738170464378 7.413340668084062 0 0 0
430 0 1 0 18.818245341053455 2.4667918529939263 7.10438736672387 0 0 0
431 0 2 0 18.792601888033566 1.8567485986217565 6.329917083128871 0 0 0
432 0 2 0 19.00147111943721 3.392586974589858 6.7847004549901 0 0 0
81 0 2 0 18.359247567524847 4.332892565010487 5.0434785228678285 0 0 0
79 0 1 0 19.08519795591154 4.704993796059401 5.580157709149581 0 0 0
131 0 2 0 2.24603012962567 7.394375860937958 4.3878255157281325 0 0 0
132 0 2 0 0.977783082421618 7.1426699436547905 5.123620601013814 0 0 0
130 0 1 0 1.9409722330832193 7.110002897042642 5.284688430290454 0 0 0
27 0 2 0 3.35834577712969 5.098765149705401 7.167526550027833 0 0 0
26 0 2 0 2.369168003043699 5.599677553299433 6.254536427686651 0 0 0
344 0 2 0 1.376594985500282 5.847227344751456 8.023530598640384 0 0 0
433 0 1 0 2.6757721792086526 9.274756522412128 7.059008662273669 0 0 0
435 0 2 0 2.7232922866446234 8.567035741980414 6.4299060286502545 0 0 0
434 0 2 0 3.598365619705183 9.23440602797246 7.447009906006906 0 0 0
113 0 2 0 4.491603565755531 7.937871308824906 4.373209754416881 0 0 0
138 0 2 0 6.825589414719845 7.3333130194108485 5.513076478578295 0 0 0
136 0 1 0 5.88742059707748 7.299299939522842 5.76587588072161 0 0 0
137 0 2 0 5.6893923501687444 6.39542433363744 5.976695518733102 0 0 0
468 0 2 0 5.69573698710746 8.498319039507974 7.084861054425609 0 0 0
466 0 1 0 5.338427574525195 9.234991547499183 7.642757585567335 0 0 0
337 0 1 0 4.643951505510648 5.615447516500175 8.276154008907875 0 0 0
166 0 1 0 8.571993621010288 7.460536214542687 5.22569514479028 0 0 0
61 0 1 0 9.391536937099694 5.261860672766607 6.8206367425165855 0 0 0
63 0 2 0 8.616719918739344 5.348144339049485 7.479805469177293 0 0 0
167 0 2 0 8.947599044385857 6.666065032518986 5.708656215663656 0 0 0
62 0 2 0 10.226420237420632 5.534377798493981 7.28909723410426 0 0 0
168 0 2 0 8.734105989945395 8.165842467294905 5.836242288875969 0 0 0
469 0 1 0 9.027842178988157 9.266255053225638 7.178808168603768 0 0 0
471 0 2 0 9.982666465271922 9.158785550211052 7.359703296015078 0 0 0
502 0 1 0 11.777611699913354 9.522980813025688 7.538366888292269 0 0 0
43 0 1 0 12.257924446491971 5.012037839754964 5.913778272228296 0 0 0
173 0 2 0 12.029086390937337 7.8324317064828515 4.780807260892443 0 0 0
174 0 2 0 13.440765388366534 7.782316146596055 5.247481974052209 0 0 0
172 0 1 0 12.536233944879312 7.643892551632012 5.535303914705208 0 0 0
45 0 2 0 12.299162117978995 5.9862975361164255 5.934580504224507 0 0 0
416 0 2 0 14.634007128361956 5.973101771224181 8.0478774652669 0 0 0
503 0 2 0 12.156138362597664 8.894767363682394 6.857268104251828 0 0 0
99 0 2 0 15.50652498198032 6.221695233937823 6.179880535926445 0 0 0
97 0 1 0 15.795088258699208 5.68887261699834 6.950888822631859 0 0 0
202 0 1 0 15.323092632561503 7.556764839498861 5.016307260030645 0 0 0
507 0 2 0 15.808957858493972 8.96040070649412 7.830850048548426 0 0 0
203 0 2 0 15.691043919678467 8.085511511659275 5.792627470323693 0 0 0
208 0 1 0 19.33287458849542 7.3191664288638005 5.200775243203535 0 0 0
80 0 2 0 19.13042139999823 5.685272687499073 5.553720225577591 0 0 0
98 0 2 0 16.64075864331947 6.045968646260714 7.3121615757418095 0 0 0
209 0 2 0 18.667262649624412 7.582652964393752 4.506693248384415 0 0 0
210 0 2 0 19.274079057720698 7.877816990244703 6.003006867361941 0 0 0
505 0 1 0 16.284511992305312 9.009895947028712 7.000718211745064 0 0 0
506 0 2 0 17.195607137094967 8.81883280372035 7.232002250039404 0 0 0
538 0 1 0 19.118937817047364 9.0553636096021 7.533212754792916 0 0 0
540 0 2 0 19.121609009461356 9.942616872247314 7.210925037925273 0 0 0
539 0 2 0 19.809449670142225 8.976200940891491 8.20062333017774 0 0 0
120 0 2 0 1.9973555417335516 10.751900355921288 4.399796295178089 0 0 0
135 0 2 0 2.4330033067774024 11.179942583589495 6.566556917497312 0 0 0
133 0 1 0 2.2013758772754155 12.143912704544528 6.520546751055286 0 0 0
134 0 2 0 2.7891320745313086 12.57431075250434 7.127698455833384 0 0 0
453 0 2 0 0.8187717365407728 12.506221694227403 7.527672168159422 0 0 0
239 0 2 0 0.6826908916081338 14.161843406636736 4.839528732194473 0 0 0
238 0 1 0 1.6434960535985554 14.166096673535275 4.757123635608601 0 0 0
240 0 2 0 1.8605330253151877 13.407179837148934 5.3257900211837415 0 0 0
451 0 1 0 0.2716265964314515 12.761654184615216 8.328319487078927 0 0 0
125 0 2 0 4.428157690811 10.86343788121621 4.422314829135046 0 0 0
467 0 2 0 5.536709051591363 10.067467522758784 7.140750261798617 0 0 0
116 0 2 0 6.565966184534291 11.177994307439555 5.267276254869644 0 0 0
115 0 1 0 5.754561306588332 11.267055810406754 5.8091867880002725 0 0 0
246 0 2 0 5.119396812016926 14.327427076153324 4.892771212092171 0 0 0
244 0 1 0 5.776011431700326 14.054001231265573 5.4867950037550575 0 0 0
117 0 2 0 5.599691730933899 12.211763152819408 5.766187976271769 0 0 0
276 0 2 0 7.776250070779325 14.088797549965323 4.865588730997349 0 0 0
489 0 2 0 7.762281585249253 12.386238958985057 7.661207938812992 0 0 0
245 0 2 0 5.873132615681653 14.74253156267854 6.143661542986624 0 0 0
445 0 1 0 4.244576298720492 13.087592939011488 8.237248492510581 0 0 0
447 0 2 0 5.247843763842364 13.006085658457964 8.19906966811542 0 0 0
161 0 2 0 9.982642137042163 10.70957583192582 4.583131910556469 0 0 0
470 0 2 0 8.964912793059419 10.213123837278031 6.923614888322645 0 0 0
169 0 1 0 9.227250230475217 11.887732109367073 6.536269859931762 0 0 0
274 0 1 0 8.714069701456754 14.017620576456244 4.9701582993564655 0 0 0
170 0 2 0 9.017575595802825 12.432670017079912 5.763851275198764 0 0 0
275 0 2 0 8.796143876092508 14.643579743767907 5.741647180004801 0 0 0
152 0 2 0 11.996111563543522 11.131507666921514 5.011693736907536 0 0 0
171 0 2 0 9.962209809729657 12.3710461865066 6.971256941159827 0 0 0
481 0 1 0 11.157743374789199 12.537932173254253 8.139373052655992 0 0 0
504 0 2 0 12.057875111952834 10.370409451068728 7.217844585339046 0 0 0
151 0 1 0 12.674935785704102 11.419535429550598 5.627507012087121 0 0 0
153 0 2 0 13.45716253083318 11.115292752023949 5.151467409002461 0 0 0
281 0 2 0 12.110834851392903 13.949071160124722 4.376093246645284 0 0 0
311 0 2 0 14.430594629681105 14.81947417388246 5.1802032767223425 0 0 0
280 0 1 0 12.713870871611416 13.996254071434688 5.12672856427211 0 0 0
282 0 2 0 12.708604743031769 13.074045105509494 5.490036106310985 0 0 0
206 0 2 0 15.11706018365694 12.167446337338593 7.183223551695979 0 0 0
205 0 1 0 15.844403050950383 12.108998424710515 6.568867521188046 0 0 0
310 0 1 0 15.331979531276662 14.538767805740278 5.2299387785097435 0 0 0
312 0 2 0 15.300822641123498 13.652144703306138 5.600999966229454 0 0 0
524 0 2 0 13.252235514938869 12.41950278577323 8.180260336542835 0 0 0
189 0 2 0 19.999972989993825 11.07394595814648 5.334937661095647 0 0 0
198 0 2 0 17.9620050092895 10.60854931970489 4.357443853359394 0 0 0
207 0 2 0 16.061669450588166 11.193136859344154 6.472416864183764 0 0 0
187 0 1 0 19.111378203997024 11.196783841884072 5.788452482634752 0 0 0
318 0 2 0 18.776772788548485 14.026854102138813 4.512938356537601 0 0 0
188 0 2 0 18.88641173735764 12.144916708516732 5.807359501028942 0 0 0
316 0 1 0 19.18816751256117 13.92399440739428 5.386068128510248 0 0 0
518 0 2 0 17.108000032103977 12.832079922266526 7.808999467920256 0 0 0
317 0 2 0 19.089237605018173 14.657487790231304 5.970064538204171 0 0 0
519 0 2 0 18.575859994740405 12.785373040208318 8.31409513618912 0 0 0
24 0 2 0 2.1601373425354464 19.739004639262717 5.46903584002053 0 -1 0
542 0 2 0 2.4860298134770886 15.28337955491278 5.958232571853162 0 0 0
543 0 2 0 3.7060116702699855 15.510539116837034 6.945677207238787 0 0 0
541 0 1 0 2.756150784096839 15.728762030165221 6.778547243805035 0 0 0
241 0 1 0 2.6126681367490674 18.62342906399445 6.568219295700197 0 0 0
242 0 2 0 2.6389040275120985 17.666982307402684 6.372778984742924 0 0 0
243 0 2 0 3.401860918977536 18.776369260649886 7.115396066927288 0 0 0
560 0 2 0 1.0732946514569828 18.94688549367479 7.692898568869154 0 0 0
573 0 2 0 1.6719461298172764 15.631911385913948 8.075553965541616 0 0 0
30 0 2 0 6.332003963008809 19.5428099133917 5.324848883942843 0 -1 0
575 0 2 0 6.223844742445025 15.81216495434079 8.035641604643736 0 0 0
574 0 1 0 5.622672818495168 15.93981257154461 7.319461133550813 0 0 0
224 0 2 0 5.247436440754957 17.66661384264703 4.605390341741002 0 0 0
225 0 2 0 6.8436120047518125 17.489326377023687 4.723171201036107 0 0 0
223 0 1 0 6.043045077748602 17.849653861857163 5.127721730561356 0 0 0
576 0 2 0 5.9716064799756 16.65961801618819 6.779915473297739 0 0 0
553 0 1 0 4.886123863142414 18.916047020169984 8.06830889390756 0 0 0
270 0 2 0 11.963779598361024 18.13467168905872 4.429229381239598 0 0 0
60 0 2 0 9.459019877339912 19.921387361630323 5.341971187605441 0 -1 0
578 0 2 0 8.854122188802341 15.611734323537311 7.677802734235889 0 0 0
577 0 1 0 9.241709962097085 15.970563193063189 6.819232763123178 0 0 0
278 0 2 0 8.890790149169495 18.87822711168637 7.355814515400552 0 0 0
277 0 1 0 9.641011552741206 18.678495026136744 6.740228377586773 0 0 0
579 0 2 0 9.119765239903487 16.974159897554998 6.804052229338465 0 0 0
279 0 2 0 10.385282403247212 18.98975669338263 7.317086937040153 0 0 0
611 0 2 0 11.264668799852073 16.35889522191814 6.999389162662248 0 0 0
612 0 2 0 12.2653496248509 15.424390390888286 6.386749518090997 0 0 0
610 0 1 0 12.207047882861117 16.220032877273134 6.967162560244692 0 0 0
299 0 2 0 14.298490271264466 17.819222339112464 4.635123060844026 0 0 0
260 0 2 0 13.020154292648618 19.547779438825707 5.668355445785684 0 0 0
261 0 2 0 12.680140565185903 18.242793653563773 6.4665529433008055 0 0 0
259 0 1 0 13.13765250853009 18.57991173692639 5.675210836634369 0 0 0
315 0 2 0 15.308144379733847 19.039532173754225 7.6677121091843325 0 0 0
614 0 2 0 15.81825855483838 15.844231842275818 6.576566019328172 0 0 0
645 0 2 0 14.867521408629653 15.545152902051385 8.322779145370943 0 0 0
644 0 2 0 13.370818463254798 15.686798916309792 8.294974705702215 0 0 0
648 0 2 0 19.405412488878945 15.816882121107696 7.890014231246858 0 0 0
646 0 1 0 18.852298090714832 15.867588895134615 7.110127524420225 0 0 0
647 0 2 0 17.873151997660212 15.7467770499403 7.29385295952024 0 0 0
297 0 2 0 19.975960329649443 17.744707313644845 5.216915691554448 0 0 0
615 0 2 0 16.185247087104283 17.03176243388932 7.468975960790584 0 0 0
613 0 1 0 16.177973796455532 16.05903450443804 7.420580776907841 0 0 0
313 0 1 0 16.089556817161363 18.742833864847817 7.182753735972171 0 0 0
314 0 2 0 16.12183894837275 19.230653467806526 6.378941066177579 0 0 0
102 0 2 0 19.145357267991596 19.84791740230461 5.299062609670451 0 -1 0
295 0 1 0 19.184578900368994 18.10283994944585 5.63954470821436 0 0 0
296 0 2 0 18.9004238102998 17.324007197955233 6.294329796161803 0 0 0
627 0 2 0 17.43483963323872 19.21219959108962 7.974115080375933 0 0 0
626 0 2 0 19.079685889207934 19.177699205917854 8.243570574021776 0 0 0
355 0 1 0 0.7913338710617793 1.8983958573222588 8.757285952755966 0 0 0
335 0 2 0 0.9966828324049828 3.378244667392359 9.940140400214384 0 0 0
346 0 1 0 1.461675159078532 0.9069266419711809 11.800797803707594 0 0 0
347 0 2 0 2.005004058987156 1.0478973807519787 10.969506307664641 0 0 0
348 0 2 0 0.5126827203965223 0.8967123442671733 11.51953886386063 0 0 0
561 0 2 0 0.7388312886056317 0.14255009114753536 8.564252845111302 0 1 0
336 0 2 0 2.1490310738902694 4.153813284750944 10.646144646047583 0 0 0
328 0 1 0 3.92843484169166 1.2318977404673095 10.404266371702668 0 0 0
329 0 2 0 3.929483067750485 2.2443779522778198 10.466214332490672 0 0 0
334 0 1 0 1.1913766899863136 4.218609476623241 10.457981760098889 0 0 0
340 0 1 0 3.8898980459128305 4.079592577654691 10.59763751671734 0 0 0
405 0 2 0 0.12699318631142303 4.557121269138135 11.71473259582843 1 0 0
341 0 2 0 4.171925668988401 4.406451802108794 9.7194813010831 0 0 0
342 0 2 0 4.730598609436607 4.187028549942992 11.154948173554928 0 0 0
330 0 2 0 4.573715204257658 0.9707298931555518 11.058243061003136 0 0 0
353 0 2 0 6.8073625331733485 0.8156301046738693 12.100102504249548 0 0 0
391 0 1 0 7.805333485211311 1.7490234897668513 8.701366252200316 0 0 0
393 0 2 0 7.84829779343186 0.7894816143952701 8.885216214851493 0 0 0
372 0 2 0 7.9643075438950675 2.911631919563547 10.400801243172852 0 0 0
352 0 1 0 5.84265150776067 0.7701919413342739 12.241801220350037 0 0 0
332 0 2 0 6.588451640945784 4.31388159223684 12.081501633237458 0 0 0
382 0 1 0 8.799041757686544 0.5390323216111017 11.686497036017041 0 0 0
371 0 2 0 8.996196192865343 3.57342573313083 11.39822142325681 0 0 0
366 0 2 0 10.127002695742918 0.7879974588970777 10.554511345228546 0 0 0
370 0 1 0 8.083584389300608 3.694496404432718 10.988460937736098 0 0 0
384 0 2 0 9.052099517878817 1.1546353907545166 12.411341842692694 0 0 0