LAMMPS (23 Jun 2022)
echo both

include		in.partitions
variable        pid world 0
include		in.temp
variable        temperature equal 250
variable        tempDamp equal 0.100 # this is 0.1 ps
include		in.pressure
variable        pressure equal 6079.5
variable        pressureDamp equal 1.0 #this is 1ps
include		in.seed
variable        seed world 745823

units           metal
atom_style	full
include		in.box
read_data       iceIII.data
Reading data file ...
  orthogonal box = (0 0 0) to (19.991053 19.991053 20.800772)
  1 by 1 by 1 MPI processor grid
  reading atoms ...
  972 atoms
Finding 1-2 1-3 1-4 neighbors ...
  special bond factors lj:    0        0        0       
  special bond factors coul:  0        0        0       
     0 = max # of 1-2 neighbors
     0 = max # of 1-3 neighbors
     0 = max # of 1-4 neighbors
     1 = max # of special neighbors
  special bonds CPU = 0.001 seconds
  read_data CPU = 0.011 seconds
include 	in.setup
variable	out_freq equal 500
variable	out_freq2 equal 500

timestep        0.0005

neigh_modify    delay 7 every 1

include         in.deepmd
# This is deepMD model

# create groups ###
#group ox type 2
#group hy type 1

mass 2 15.999
mass 1 1.008

pair_style      deepmd ../graph.pb
Summary of lammps deepmd module ...
  >>> Info of deepmd-kit:
  installed to:       /u/sigbjobo/software/DEEPMD_FROM_SOURCE/deepmd-kit/install
  source:             v2.1.3
  source branch:       master
  source commit:      5a32c49
  source commit at:   2022-07-01 09:52:58 +0800
  surpport model ver.:1.1 
  build float prec:   double
  build with tf inc:  /u/sigbjobo/software/DEEPMD_FROM_SOURCE/tensorflow/install/include;/u/sigbjobo/software/DEEPMD_FROM_SOURCE/tensorflow/install/include
  build with tf lib:  /u/sigbjobo/software/DEEPMD_FROM_SOURCE/tensorflow/install/lib/libtensorflow_cc.so;/u/sigbjobo/software/DEEPMD_FROM_SOURCE/tensorflow/install/lib/libtensorflow_framework.so
  set tf intra_op_parallelism_threads: 0
  set tf inter_op_parallelism_threads: 0
  >>> Info of lammps module:
  use deepmd-kit at:  /u/sigbjobo/software/DEEPMD_FROM_SOURCE/deepmd-kit/install
  source:             v2.1.3
  source branch:      master
  source commit:      5a32c49
  source commit at:   2022-07-01 09:52:58 +0800
  build float prec:   double
  build with tf inc:  /u/sigbjobo/software/DEEPMD_FROM_SOURCE/tensorflow/install/include;/u/sigbjobo/software/DEEPMD_FROM_SOURCE/tensorflow/install/include
  build with tf lib:  /u/sigbjobo/software/DEEPMD_FROM_SOURCE/tensorflow/install/lib/libtensorflow_cc.so;/u/sigbjobo/software/DEEPMD_FROM_SOURCE/tensorflow/install/lib/libtensorflow_framework.so
pair_coeff      * *

bond_style      none
angle_style     none
dihedral_style  none
improper_style  none
neigh_modify exclude none


neighbor        2.0 bin
neigh_modify    every 10 delay 0 check no

thermo          ${out_freq}
thermo          500
thermo_style 	custom step temp pe etotal epair emol press lx ly lz xy xz yz vol pxx pyy pzz pxy pxz pyz cella cellb cellc cellalpha cellbeta cellgamma

restart 	${out_freq} restart.lmp.${pid} restart2.lmp.${pid}
restart 	500 restart.lmp.${pid} restart2.lmp.${pid}
restart 	500 restart.lmp.0 restart2.lmp.${pid}
restart 	500 restart.lmp.0 restart2.lmp.0


include         in.dump
dump            myDump all atom ${out_freq2} dump.water.${pid}
dump            myDump all atom 500 dump.water.${pid}
dump            myDump all atom 500 dump.water.0
dump            myDump2 all dcd ${out_freq2} dump.dcd
dump            myDump2 all dcd 500 dump.dcd
dump_modify     myDump append yes
dump_modify     myDump2 append yes


timer           timeout 04:55:00 every 1000
New timer settings: style=normal  mode=nosync  timeout=04:55:00

fix             2 all nph aniso ${pressure} ${pressure} ${pressureDamp}
fix             2 all nph aniso 6079.5 ${pressure} ${pressureDamp}
fix             2 all nph aniso 6079.5 6079.5 ${pressureDamp}
fix             2 all nph aniso 6079.5 6079.5 1
fix             3 all temp/csvr ${temperature} ${temperature} ${tempDamp} ${seed}
fix             3 all temp/csvr 250 ${temperature} ${tempDamp} ${seed}
fix             3 all temp/csvr 250 250 ${tempDamp} ${seed}
fix             3 all temp/csvr 250 250 0.1 ${seed}
fix             3 all temp/csvr 250 250 0.1 745823
velocity 	all create ${temperature} ${seed} dist gaussian
velocity 	all create 250 ${seed} dist gaussian
velocity 	all create 250 745823 dist gaussian

run             400000

CITE-CITE-CITE-CITE-CITE-CITE-CITE-CITE-CITE-CITE-CITE-CITE-CITE

Your simulation uses code contributions which should be cited:

- USER-DEEPMD package:

@article{Wang_ComputPhysCommun_2018_v228_p178,
  author = {Wang, Han and Zhang, Linfeng and Han, Jiequn and E, Weinan},
  doi = {10.1016/j.cpc.2018.03.016},
  url = {https://doi.org/10.1016/j.cpc.2018.03.016},
  year = 2018,
  month = {jul},
  publisher = {Elsevier {BV}},
  volume = 228,
  journal = {Comput. Phys. Commun.},
  title = {{DeePMD-kit: A deep learning package for many-body potential energy representation and molecular dynamics}},
  pages = {178--184}
}

CITE-CITE-CITE-CITE-CITE-CITE-CITE-CITE-CITE-CITE-CITE-CITE-CITE

Generated 0 of 1 mixed pair_coeff terms from geometric mixing rule
Neighbor list info ...
  update every 10 steps, delay 0 steps, check no
  max neighbors/atom: 2000, page size: 100000
  master list distance cutoff = 8
  ghost atom cutoff = 8
  binsize = 4, bins = 5 5 6
  1 neighbor lists, perpetual/occasional/extra = 1 0 0
  (1) pair deepmd, perpetual
      attributes: full, newton on
      pair build: full/bin
      stencil: full/bin/3d
      bin: standard
Per MPI rank memory allocation (min/avg/max) = 7.648 | 7.648 | 7.648 Mbytes
   Step          Temp          PotEng         TotEng         E_pair         E_mol          Press            Lx             Ly             Lz             Xy             Xz             Yz           Volume          Pxx            Pyy            Pzz            Pxy            Pxz            Pyz           Cella          Cellb          Cellc        CellAlpha       CellBeta      CellGamma   
         0   250           -175.65013     -144.27223     -175.65013      0              37550.22       19.991053      19.991053      20.800772      0              0              0              8312.8663      41329.716      41781.31       29539.634     -62.74363      -1049.3293     -446.25346      19.991053      19.991053      20.800772      90             90             90           
       500   252.69489     -163.53499     -131.81885     -163.53499      0              3789.0702      19.81929       19.732358      20.293678      0              0              0              7936.4782      4260.4149      4708.171       2398.6247     -77.357157     -730.52723     -1401.0516      19.81929       19.732358      20.293678      90             90             90           
      1000   259.17836     -162.55975     -130.02986     -162.55975      0              2381.9234      19.97826       19.896639      20.158536      0              0              0              8013.0226      2873.3889      3179.916       1092.4655     -999.31588      415.63863     -2261.0213      19.97826       19.896639      20.158536      90             90             90           
      1500   242.00845     -162.11084     -131.73597     -162.11084      0              12595.203      20.078935      19.987553      20.132551      0              0              0              8079.7722      10658.467      14912.298      12214.844      656.22239     -45.496243      151.69614      20.078935      19.987553      20.132551      90             90             90           
      2000   244.83808     -160.20633     -129.47631     -160.20633      0             -915.48135      20.03148       19.954421      20.162241      0              0              0              8059.1822     -1470.1302     -980.0844      -296.2295      -1326.0992     -55.813649     -1451.352       20.03148       19.954421      20.162241      90             90             90           
      2500   255.62172     -160.34674     -128.26325     -160.34674      0              7619.0158      19.831223      19.98095       20.263988      0              0              0              8029.5378      9387.6528      3314.8194      10154.575      1049.3156      1405.2522      1958.2935      19.831223      19.98095       20.263988      90             90             90           
      3000   251.62802     -160.43064     -128.84841     -160.43064      0              7247.576       19.826445      20.030929      20.379991      0              0              0              8093.7527      9263.837       7679.0056      4799.8854     -535.92585     -535.44118     -291.47554      19.826445      20.030929      20.379991      90             90             90           
      3500   246.57925     -160.21131     -129.26275     -160.21131      0              6159.1058      20.011206      19.900714      20.235715      0              0              0              8058.6164      3990.3825      7211.6437      7275.2913     -93.689111      112.0383      -374.41442      20.011206      19.900714      20.235715      90             90             90           
      4000   246.1648      -161.23427     -130.33773     -161.23427      0              7174.0846      20.113965      19.900592      20.129465      0              0              0              8057.4186      8691.6116      4279.2366      8551.4056     -1297.9268      475.21477      333.86722      20.113965      19.900592      20.129465      90             90             90           
      4500   262.78686     -163.36617     -130.38337     -163.36617      0              5363.9343      19.979472      20.010415      20.127709      0              0              0              8047.0082      3794.5484      5783.0965      6514.158       849.14679      19.616732      1091.7825      19.979472      20.010415      20.127709      90             90             90           
      5000   245.99997     -160.72247     -129.84661     -160.72247      0              6189.6978      19.818095      20.012991      20.251394      0              0              0              8032.0946      9202.2228      4578.4789      4788.3917     -1464.9474     -407.07181     -221.65977      19.818095      20.012991      20.251394      90             90             90           
      5500   242.69581     -161.73766     -131.27652     -161.73766      0              8953.9502      19.909702      19.935354      20.482714      0              0              0              8129.7318      11813.365      6487.2675      8561.2179      2047.1635      877.18627     -1361.8312      19.909702      19.935354      20.482714      90             90             90           
      6000   251.67603     -161.19386     -129.6056      -161.19386      0              6728.9563      19.884238      19.774469      20.297211      0              0              0              7980.8685      7107.961       7893.7669      5185.1411     -1046.2493     -855.88268      1931.6408      19.884238      19.774469      20.297211      90             90             90           
      6500   244.51253     -161.77578     -131.08663     -161.77578      0              3097.7725      20.076177      20.039097      20.126176      0              0              0              8096.9309      4202.6446      1232.5374      3858.1355      719.31118     -5122.016       2041.2072      20.076177      20.039097      20.126176      90             90             90           
      7000   248.77421     -159.55648     -128.33243     -159.55648      0              5315.0371      20.043951      20.183839      19.901531      0              0              0              8051.4406      5658.8679      4078.8376      6207.4059      373.74015     -1406.9507     -207.92317      20.043951      20.183839      19.901531      90             90             90           
      7500   248.57609     -160.07854     -128.87936     -160.07854      0              7674.7359      20.024292      20.029469      20.048927      0              0              0              8041.1422      7242.4698      6189.3447      9592.3932      560.21708     -1680.5277      658.1505       20.024292      20.029469      20.048927      90             90             90           
      8000   249.31391     -161.51444     -130.22265     -161.51444      0              4365.892       20.00144       19.885099      20.404552      0              0              0              8115.515       3765.6298      7234.4005      2097.6457      852.378       -878.1154      -1735.6226      20.00144       19.885099      20.404552      90             90             90           
      8500   237.72287     -160.55771     -130.72073     -160.55771      0              6240.8707      19.820176      19.790096      20.424371      0              0              0              8011.32        7919.9016      7232.4056      3570.305       1219.3385     -621.12142     -1689.1934      19.820176      19.790096      20.424371      90             90             90           
      9000   255.6327      -160.62101     -128.53614     -160.62101      0              8428.3771      19.899438      19.874958      20.302126      0              0              0              8029.5009      10826.52       6176.1986      8282.4131     -2061.2228     -2013.8828      124.95035      19.899438      19.874958      20.302126      90             90             90           
      9500   250.20482     -160.33081     -128.9272      -160.33081      0              2734.4884      20.158861      20.040702      20.198599      0              0              0              8160.1883      1698.1208      2238.6848      4266.6596      1125.0528      265.40372     -3538.6697      20.158861      20.040702      20.198599      90             90             90           
     10000   256.84087     -160.05792     -127.82141     -160.05792      0              6086.8799      20.05635       20.011741      20.02193       0              0              0              8036.0514      4177.7707      6579.0799      7503.7893     -569.59576      1116.0881     -540.31201      20.05635       20.011741      20.02193       90             90             90           
     10500   252.93834     -158.27088     -126.52418     -158.27088      0              5879.448       19.965795      20.00657       20.07098       0              0              0              8017.2942      5106.7468      4074.9652      8456.632      -604.08104      1460.8048      2628.8321      19.965795      20.00657       20.07098       90             90             90           
     11000   255.79324     -161.17127     -129.06625     -161.17127      0              7295.7467      20.011075      20.040071      20.332174      0              0              0              8153.6768      7073.529       6196.991       8616.7201      137.66702      2695.3822     -1309.5126      20.011075      20.040071      20.332174      90             90             90           
     11500   245.63217     -160.57709     -129.74741     -160.57709      0              7286.8239      19.970671      19.894598      20.351875      0              0              0              8085.9722      8720.6393      7917.1158      5222.7167      1520.4336     -207.43241      2258.9272      19.970671      19.894598      20.351875      90             90             90           
     12000   250.47156     -160.08833     -128.65125     -160.08833      0              8523.8174      19.975736      19.85877       20.178602      0              0              0              8004.7211      10209.922      5710.9766      9650.5537     -629.26082     -380.58121     -4119.3458      19.975736      19.85877       20.178602      90             90             90           
     12500   256.59682     -160.91372     -128.70785     -160.91372      0              9398.424       20.112266      20.065234      20.113613      0              0              0              8116.9958      10510.509      9331.9381      8352.8255     -10.319708      664.80957      43.420925      20.112266      20.065234      20.113613      90             90             90           
     13000   264.60671     -160.69135     -127.48013     -160.69135      0              7275.9101      19.940426      20.136771      20.058684      0              0              0              8054.2799      10350.788      4524.1348      6952.808      -1188.2213      641.55049     -838.23543      19.940426      20.136771      20.058684      90             90             90           
     13500   255.13016     -162.38113     -130.35934     -162.38113      0              3026.8292      19.84547       20.030471      20.245989      0              0              0              8048.0665      701.17989      4747.2954      3632.0122     -1043.8796      1843.3017     -390.10164      19.84547       20.030471      20.245989      90             90             90           
     14000   239.82206     -161.0622      -130.96175     -161.0622       0              8097.8269      19.959226      19.851602      20.455151      0              0              0              8104.7938      8476.6341      9347.7399      6469.1069      714.07449      1192.1714      2760.763       19.959226      19.851602      20.455151      90             90             90           
     14500   241.17407     -161.80695     -131.53681     -161.80695      0              4894.5494      20.013221      19.734465      20.357348      0              0              0              8040.1388      4057.8076      5620.2461      5005.5945     -1265.7641      561.88148      1515.5024      20.013221      19.734465      20.357348      90             90             90           
     15000   247.68467     -159.775       -128.6877      -159.775        0              7768.0865      20.164422      19.88432       20.017735      0              0              0              8026.2273      9003.8914      5560.5362      8739.8319      16.242814     -1724.0803      1204.1933      20.164422      19.88432       20.017735      90             90             90           
     15500   248.57318     -160.48198     -129.28316     -160.48198      0              4760.1719      20.256817      20.139935      19.874313      0              0              0              8108.1425      127.34228      6860.7465      7292.4268     -1048.3481      2631.4849     -1750.9178      20.256817      20.139935      19.874313      90             90             90           
     16000   250.62212     -160.24863     -128.79265     -160.24863      0              4175.9086      19.992845      20.085925      20.076899      0              0              0              8062.3763      3658.5733      3598.2386      5270.9138      2407.1944      1567.809      -1511.6621      19.992845      20.085925      20.076899      90             90             90           
     16500   248.74027     -160.02141     -128.80163     -160.02141      0              5773.1033      19.788665      19.885754      20.44118       0              0              0              8043.8606      4042.9092      6793.2253      6483.1754      377.78894      792.82579      2295.3486      19.788665      19.885754      20.44118       90             90             90           
     17000   256.68399     -161.32592     -129.1091      -161.32592      0              6481.5252      19.847324      19.896578      20.545192      0              0              0              8113.1698      9597.1758      3865.0108      5982.3891      689.75607     -17.873843      1823.1743      19.847324      19.896578      20.545192      90             90             90           
     17500   252.85157     -160.98603     -129.25022     -160.98603      0              4532.5132      19.920569      19.936414      20.290432      0              0              0              8058.2377      1288.9977      7945.8643      4362.6777      648.2708       192.70844     -2815.3536      19.920569      19.936414      20.290432      90             90             90           
     18000   248.80027     -161.99561     -130.76829     -161.99561      0              5244.3017      20.022166      19.988878      20.055754      0              0              0              8026.7264      4633.9867      1710.2404      9388.6778      504.25704     -1819.6892      2833.9757      20.022166      19.988878      20.055754      90             90             90           
     18500   246.30943     -161.06655     -130.15186     -161.06655      0              7764.6807      20.130555      19.951425      20.055965      0              0              0              8055.1427      10658.075      3950.0432      8685.9233     -106.22184     -700.92086     -2639.5227      20.130555      19.951425      20.055965      90             90             90           
     19000   253.52457     -161.75047     -129.93019     -161.75047      0              3999.5008      20.032886      19.851077      20.243411      0              0              0              8050.2858      2485.3799      4103.9794      5409.143       275.66705      1341.2842      2320.2367      20.032886      19.851077      20.243411      90             90             90           
     19500   254.08598     -161.58509     -129.69435     -161.58509      0              7077.5847      19.931735      19.918663      20.38472       0              0              0              8093.0094      9952.3838      8663.5616      2616.8086      1290.1746      955.33649     -2164.0056      19.931735      19.918663      20.38472       90             90             90           
     20000   245.9282      -162.33207     -131.46523     -162.33207      0              4300.0958      19.879166      20.056054      20.238124      0              0              0              8068.8921      2672.9424      6497.3193      3730.0258      369.40866     -1063.1635     -553.05735      19.879166      20.056054      20.238124      90             90             90           
     20500   248.2125      -161.63576     -130.48221     -161.63576      0              6417.4582      19.898182      20.125476      20.040121      0              0              0              8025.2744      6475.6352      4524.0959      8252.6436     -372.6949       193.95903     -942.59342      19.898182      20.125476      20.040121      90             90             90           
     21000   250.22622     -161.95523     -130.54893     -161.95523      0              7916.0521      20.030378      20.074156      20.082364      0              0              0              8074.977       8816.4883      8298.4219      6633.2459      574.3927      -1357.2178     -3823.9847      20.030378      20.074156      20.082364      90             90             90           
     21500   240.60955     -162.25833     -132.05904     -162.25833      0              6609.4481      20.064811      19.846268      20.298845      0              0              0              8083.2357      5250.4906      9247.0811      5330.7727      561.59298     -1887.0485     -579.28949      20.064811      19.846268      20.298845      90             90             90           
     22000   246.21977     -160.62        -129.71657     -160.62         0              8355.139       20.012724      19.676906      20.411028      0              0              0              8037.6278      11774.262      8485.1118      4806.0435     -911.80106     -2785.221      -1608.8696      20.012724      19.676906      20.411028      90             90             90           
     22500   254.89941     -161.37019     -129.37736     -161.37019      0              3168.3549      19.960703      19.852701      20.353117      0              0              0              8065.4086      775.9017       5026.6531      3702.5099     -1781.2399      2274.1393     -1094.5731      19.960703      19.852701      20.353117      90             90             90           
     23000   248.52189     -162.74997     -131.55759     -162.74997      0              5198.9666      19.906104      20.144946      20.171242      0              0              0              8088.817       7311.1652      2714.3828      5571.3519     -922.99207     -1434.7852      604.39825      19.906104      20.144946      20.171242      90             90             90           
     23500   257.49488     -162.0484      -129.72981     -162.0484       0              5486.043       19.962567      20.156292      19.987369      0              0              0              8042.3439      6966.9847      3293.754       6197.3902      1654.0371      1666.9152      1248.7935      19.962567      20.156292      19.987369      90             90             90           
     24000   256.11729     -160.49704     -128.35135     -160.49704      0              6492.7641      20.011225      20.072358      20.089599      0              0              0              8069.4389      5171.5919      3551.9661      10754.734     -44.565768     -3440.5972      731.55036      20.011225      20.072358      20.089599      90             90             90           
     24500   253.85419     -160.81885     -128.95721     -160.81885      0              4848.4692      20.024493      19.937699      20.391804      0              0              0              8141.2709      5400.0046      5048.9126      4096.4904      1510.4184      121.99563     -1503.3392      20.024493      19.937699      20.391804      90             90             90           
     25000   253.20711     -160.28072     -128.50029     -160.28072      0              4499.8518      19.821546      19.759132      20.383201      0              0              0              7983.2138      3725.3461      5369.3352      4404.8742      80.470931     -1229.0931      205.14769      19.821546      19.759132      20.383201      90             90             90           
     25500   249.34823     -159.99045     -128.69436     -159.99045      0              5978.3716      20.000424      19.899432      20.373982      0              0              0              8108.7855      5528.5301      6730.8909      5675.6937     -63.967866     -1668.7445      115.53692      20.000424      19.899432      20.373982      90             90             90           
     26000   251.99521     -159.96497     -128.33665     -159.96497      0              3815.2676      20.128469      19.936446      20.19502       0              0              0              8104.0621      7375.9913      3877.8978      191.91364      61.196967     -943.23901      795.0259       20.128469      19.936446      20.19502       90             90             90           
     26500   241.47838     -160.31744     -130.0091      -160.31744      0              2675.4041      20.052081      19.969518      20.034642      0              0              0              8022.4794      3867.7724     -127.35674      4285.7967      2167.0878     -193.73998     -1306.9082      20.052081      19.969518      20.034642      90             90             90           
     27000   247.75783     -159.02476     -127.92827     -159.02476      0              5990.6022      19.920078      20.131613      20.178083      0              0              0              8091.8813      7886.9352      4358.089       5726.7825      1610.9409     -965.79207     -2983.4887      19.920078      20.131613      20.178083      90             90             90           
     27500   248.9453      -160.74405     -129.49852     -160.74405      0              3590.5031      19.86427       20.072475      20.384688      0              0              0              8127.8858      2597.996       6010.7311      2162.7821     -1309.9986     -2221.7449      1480.5945      19.86427       20.072475      20.384688      90             90             90           
     28000   248.06788     -161.36237     -130.22697     -161.36237      0              6511.2899      19.935548      19.743235      20.334296      0              0              0              8003.4203      5813.5131      6237.7009      7482.6556      412.41147      82.922155      1292.6542      19.935548      19.743235      20.334296      90             90             90           
     28500   241.64697     -159.1969      -128.8674      -159.1969       0              5722.2464      20.117393      19.835311      20.212684      0              0              0              8065.5632      5492.937       3731.739       7942.0633      550.84284      494.60702      196.1229       20.117393      19.835311      20.212684      90             90             90           
     29000   247.39765     -160.78942     -129.73814     -160.78942      0              3145.2811      20.072155      20.044144      20.187765      0              0              0              8122.127       5966.2652      1165.4203      2304.1577     -1076.7012      73.203134     -1829.0988      20.072155      20.044144      20.187765      90             90             90           
     29500   249.91228     -159.28876     -127.92187     -159.28876      0              6372.0345      19.882406      19.981219      20.147349      0              0              0              8004.0323      10989.415      5102.3078      3024.3803     -967.22465     -285.24206      1576.3887      19.882406      19.981219      20.147349      90             90             90           
     30000   261.54014     -159.71563     -126.88931     -159.71563      0              9339.9328      19.964143      20.01187       20.273362      0              0              0              8099.6104      9987.7387      8114.7377      9917.3219     -293.14098      2737.818      -872.00425      19.964143      20.01187       20.273362      90             90             90           
     30500   253.21472     -159.55621     -127.77483     -159.55621      0              6366.2774      20.00398       19.944608      20.256039      0              0              0              8081.5832      6595.1322      4796.2932      7707.4068     -1106.882       1414.2139      1033.9666      20.00398       19.944608      20.256039      90             90             90           
     31000   261.17298     -160.64965     -127.86941     -160.64965      0              5499.7004      19.949207      19.974968      20.201789      0              0              0              8050.1054      6118.3557      5004.0033      5376.7423      645.43165      4490.7908     -270.23845      19.949207      19.974968      20.201789      90             90             90           
     31500   252.92601     -160.54123     -128.79608     -160.54123      0              6635.2963      19.924623      20.078326      20.229133      0              0              0              8092.7268      6336.0436      4296.3088      9273.5365     -245.91745      617.12365      556.21329      19.924623      20.078326      20.229133      90             90             90           
     32000   258.81041     -162.26865     -129.78494     -162.26865      0              4964.2907      19.945662      19.845672      20.237899      0              0              0              8010.8704      4177.5902      5570.4085      5144.8734      1315.4795      2280.0178      3526.0256      19.945662      19.845672      20.237899      90             90             90           
     32500   254.19033     -160.42819     -128.52436     -160.42819      0              7196.264       20.110319      19.777664      20.36846       0              0              0              8101.2519      5354.9383      8069.5659      8164.2877      938.65861      644.26725     -446.34613      20.110319      19.777664      20.36846       90             90             90           
     33000   254.30684     -160.72675     -128.80829     -160.72675      0              6596.8338      20.082942      19.817085      20.253419      0              0              0              8060.5647      3785.4227      10009.118      5995.9605      347.90295      1605.3442      1072.1012      20.082942      19.817085      20.253419      90             90             90           
     33500   249.88513     -161.09899     -129.73551     -161.09899      0              7757.1725      19.910266      19.948542      20.067434      0              0              0              7970.3992      9646.2303      6524.6258      7100.6615      669.79497     -1376.3482      3769.7942      19.910266      19.948542      20.067434      90             90             90           
     34000   245.2008      -162.53342     -131.75787     -162.53342      0              6646.2267      19.975675      20.1894        20.098636      0              0              0              8105.7173      6736.3803      6049.8162      7152.4837      41.58748      -1059.1823      119.7938       19.975675      20.1894        20.098636      90             90             90           
     34500   251.48319     -163.91589     -132.35183     -163.91589      0              6062.4431      19.9358        20.03226       20.133437      0              0              0              8040.4717      6727.9802      6130.8254      5328.5237      108.64935      242.46249     -632.2424       19.9358        20.03226       20.133437      90             90             90           
     35000   242.36165     -162.73153     -132.31233     -162.73153      0              4714.7836      19.856706      19.804181      20.322372      0              0              0              7991.6873      4480.8007      4387.5913      5275.9589      599.83849      93.422003     -638.20965      19.856706      19.804181      20.322372      90             90             90           
     35500   245.51033     -162.53312     -131.71872     -162.53312      0              3703.3359      19.937022      19.919482      20.517122      0              0              0              8148.07        3184.7187      3574.8101      4350.4787      232.63179     -348.35149      1453.2956      19.937022      19.919482      20.517122      90             90             90           
     36000   245.92044     -160.85296     -129.98709     -160.85296      0              6300.1856      19.927435      19.986855      20.208116      0              0              0              8048.625       7189.6862      5804.2148      5906.656      -806.68521      103.48105     -343.65896      19.927435      19.986855      20.208116      90             90             90           
     36500   255.18048     -161.11031     -129.0822      -161.11031      0              9551.2804      20.074422      20.015629      19.995251      0              0              0              8034.1358      12507.851      5805.499       10340.491      1196.3617      874.44414     -3487.776       20.074422      20.015629      19.995251      90             90             90           
     37000   245.71607     -160.53808     -129.69786     -160.53808      0              4748.3076      20.198974      19.956924      20.052257      0              0              0              8083.2531      3988.9722      3210.6057      7045.3447      231.36493     -32.77216      -716.80042      20.198974      19.956924      20.052257      90             90             90           
     37500   251.55984     -161.42504     -129.85136     -161.42504      0              5660.5709      20.022212      19.910128      20.257953      0              0              0              8075.7277      4122.6664      4541.7327      8317.3137     -402.54912     -1089.208       1885.8438      20.022212      19.910128      20.257953      90             90             90           
     38000   256.11166     -160.18229     -128.0373      -160.18229      0              10030.168      19.692028      19.880506      20.467992      0              0              0              8012.9623      12200.4        10218.034      7672.0695      179.93082      2808.2078     -318.87792      19.692028      19.880506      20.467992      90             90             90           
     38500   253.00733     -160.89248     -129.13712     -160.89248      0              5869.2188      19.778834      20.05464       20.516503      0              0              0              8138.0227      6802.8728      4755.8723      6048.9112     -1354.6602      429.67402      258.24102      19.778834      20.05464       20.516503      90             90             90           
     39000   249.60526     -161.47697     -130.14862     -161.47697      0              7501.4153      20.102631      19.998696      20.128151      0              0              0              8092.0483      9625.8555      5650.6647      7227.7256      1128.6261     -164.98521      465.84603      20.102631      19.998696      20.128151      90             90             90           
     39500   254.79719     -161.1159      -129.13589     -161.1159       0              5363.9459      20.295912      19.933759      19.930201      0              0              0              8063.238       7288.0125      2375.0255      6428.7996     -667.91588     -1057.8811      853.96951      20.295912      19.933759      19.930201      90             90             90           
     40000   247.25117     -160.61979     -129.5869      -160.61979      0              1456.9991      20.058588      19.958596      20.035982      0              0              0              8021.2304     -960.41295      2668.8157      2662.5945      536.60541     -780.77938      2014.6504      20.058588      19.958596      20.035982      90             90             90           
     40500   239.89519     -160.91353     -130.8039      -160.91353      0              4892.1349      19.931809      20.067612      20.284048      0              0              0              8113.2908      6900.9147      2212.1887      5563.3014     -61.19287       1726.48       -452.09632      19.931809      20.067612      20.284048      90             90             90           
     41000   238.71139     -160.37288     -130.41183     -160.37288      0              1930.0242      19.9564        20.00779       20.343708      0              0              0              8122.906       8236.9618     -3217.9568      771.06766     -636.5524       250.71568      573.20673      19.9564        20.00779       20.343708      90             90             90           
     41500   254.45433     -161.24203     -129.30506     -161.24203      0              5116.4146      19.992697      19.842769      20.160778      0              0              0              7997.9917      594.24084      8239.0467      6515.9562      1012.4127      2804.4272      1523.0795      19.992697      19.842769      20.160778      90             90             90           
     42000   250.98998     -161.12093     -129.61878     -161.12093      0              5642.6539      20.141478      20.007263      20.197797      0              0              0              8139.2247      3185.4364      8225.948       5516.5773      45.202893     -167.83472     -1807.4965      20.141478      20.007263      20.197797      90             90             90           
     42500   257.8107      -160.70361     -128.34538     -160.70361      0              5132.4034      19.963278      19.997182      20.140089      0              0              0              8040.1112      3440.1844      6440.1259      5516.8999     -40.133551     -1175.1954      1539.5696      19.963278      19.997182      20.140089      90             90             90           
     43000   252.37317     -160.31604     -128.64028     -160.31604      0              9519.2211      19.929125      19.973631      20.246477      0              0              0              8059.2515      8723.0411      10662.42       9172.2025      358.00214      2294.6512     -813.92159      19.929125      19.973631      20.246477      90             90             90           
     43500   246.55187     -160.66993     -129.72481     -160.66993      0              2422.0847      20.035994      19.987531      20.348325      0              0              0              8148.8944      3956.6984      2394.4992      915.05658      1234.1653     -451.13884     -2492.1489      20.035994      19.987531      20.348325      90             90             90           
     44000   253.62638     -161.4166      -129.58354     -161.4166       0              6796.4601      19.983906      19.858148      20.157773      0              0              0              7999.4787      4834.717       6939.3751      8615.2881     -1154.5594      1054.7339     -1519.8135      19.983906      19.858148      20.157773      90             90             90           
     44500   247.11087     -160.93636     -129.92108     -160.93636      0              6521.9021      20.126686      20.045996      20.163049      0              0              0              8134.9728      7675.5027      4141.5163      7748.6873      2024.4992      1829.0498      2225.3714      20.126686      20.045996      20.163049      90             90             90           
     45000   241.62258     -162.17884     -131.85241     -162.17884      0              5538.1315      19.960171      20.058133      20.086376      0              0              0              8041.8569      6244.5978      2451.8894      7917.9072     -1679.0939      2409.8794     -1918.5873      19.960171      20.058133      20.086376      90             90             90           
     45500   238.50127     -160.65492     -130.72024     -160.65492      0              8037.2682      19.959365      19.961885      20.151184      0              0              0              8028.7665      8744.5435      9054.7117      6312.5494      962.17541     -1962.359       1649.575       19.959365      19.961885      20.151184      90             90             90           
     46000   249.74324     -161.69649     -130.35082     -161.69649      0              5201.2093      20.12478       19.894381      20.257757      0              0              0              8110.5993      4433.4019      4578.0295      6592.1965     -104.75123     -2054.8576      486.11997      20.12478       19.894381      20.257757      90             90             90           
     46500   245.41387     -160.53712     -129.73483     -160.53712      0              7345.2601      20.066085      19.872862      20.15489       0              0              0              8037.1763      5087.662       9329.6699      7618.4485     -390.0984      -1457.16       -500.18085      20.066085      19.872862      20.15489       90             90             90           
     47000   247.17897     -160.52079     -129.49696     -160.52079      0              7291.307       19.948856      20.154829      20.062431      0              0              0              8066.4169      10578.336      2450.2814      8845.3034     -23.267875     -189.93261      957.10565      19.948856      20.154829      20.062431      90             90             90           
     47500   261.19495     -161.22769     -128.44469     -161.22769      0              5196.5202      20.023273      20.163546      20.13329       0              0              0              8128.6184      1310.5615      8235.0849      6043.9142      158.06762     -2032.5904     -2856.589       20.023273      20.163546      20.13329       90             90             90           
     48000   257.29482     -160.62582     -128.33234     -160.62582      0              5786.7605      19.99207       19.7897        20.249664      0              0              0              8011.5176      6027.2642      5031.7052      6301.3121     -856.35975     -247.0743       4097.2196      19.99207       19.7897        20.249664      90             90             90           
     48500   250.58674     -160.69886     -129.24732     -160.69886      0              3460.8224      20.036306      19.737451      20.42619       0              0              0              8077.8558      4263.1386      4561.8275      1557.501      -711.03315     -800.71874     -826.52263      20.036306      19.737451      20.42619       90             90             90           
     49000   253.71381     -159.36787     -127.52384     -159.36787      0              5948.0462      19.96936       19.993341      20.286321      0              0              0              8099.3992      5926.3272      5762.563       6155.2484      1037.5616      624.68822     -1482.6982      19.96936       19.993341      20.286321      90             90             90           
     49500   262.6369      -157.65962     -124.69564     -157.65962      0              4849.2022      19.960113      20.23542       20.099175      0              0              0              8118.0821      3762.528       3380.2333      7404.8452      703.97211     -1556.7497      1035.6229      19.960113      20.23542       20.099175      90             90             90           
     50000   259.40803     -159.97892     -127.4202      -159.97892      0              4047.7066      19.974683      20.170079      20.031881      0              0              0              8070.6633      1861.8638      7507.2438      2774.0121     -460.68523     -2505.2849     -1707.7174      19.974683      20.170079      20.031881      90             90             90           
     50500   248.71835     -160.45942     -129.24238     -160.45942      0              10000.572      20.019555      19.947392      20.19458       0              0              0              8064.4615      9100.025       11937.523      8964.1675     -623.185       -432.8147       566.31466      20.019555      19.947392      20.19458       90             90             90           
     51000   248.25383     -159.73897     -128.58023     -159.73897      0              5872.1066      20.054368      19.816909      20.381296      0              0              0              8099.8448      7665.9229      5210.1197      4740.2771      495.72267     -207.62727      1307.585       20.054368      19.816909      20.381296      90             90             90           
     51500   257.36715     -161.67743     -129.37487     -161.67743      0              6791.7856      19.931375      19.880558      20.310872      0              0              0              8048.1191      8837.7553      4561.927       6975.6745      508.37532     -3493.991       1904.1877      19.931375      19.880558      20.310872      90             90             90           
     52000   245.44087     -162.06851     -131.26283     -162.06851      0              5808.6182      19.926748      20.127906      20.187507      0              0              0              8096.8806      6768.3581      5655.3105      5002.1861      244.24467     -44.586404     -451.76187      19.926748      20.127906      20.187507      90             90             90           
     52500   254.50779     -160.91605     -128.97237     -160.91605      0              3039.3512      20.062527      20.143019      20.049243      0              0              0              8102.2973      2996.8915      2154.7553      3966.4068      1570.1875      1171.7101     -986.9009       20.062527      20.143019      20.049243      90             90             90           
     53000   253.14709     -161.45614     -129.68324     -161.45614      0              5690.4884      20.130253      19.913069      20.034246      0              0              0              8030.8303      8329.0556      7443.4612      1298.9484     -932.17487      663.63718      4862.5739      20.130253      19.913069      20.034246      90             90             90           
     53500   249.12489     -161.21095     -129.94288     -161.21095      0              6079.2516      20.148692      19.809202      20.386184      0              0              0              8136.7277      5687.5767      8355.4015      4194.7767     -233.76952      1869.6569     -413.47003      20.148692      19.809202      20.386184      90             90             90           
     54000   255.25408     -160.1574      -128.12005     -160.1574       0              5349.2105      19.856046      19.787087      20.604005      0              0              0              8095.1757      6565.6489      8328.3773      1153.6052      1058.0881     -1173.4795      1827.1418      19.856046      19.787087      20.604005      90             90             90           
     54500   238.59625     -161.45923     -131.51263     -161.45923      0              4064.0111      19.785234      19.928582      20.469317      0              0              0              8070.8806      3536.3676      4183.3149      4472.3508      1893.0764      4002.9188     -848.4738       19.785234      19.928582      20.469317      90             90             90           
     55000   247.3813      -160.43706     -129.38783     -160.43706      0              2262.8569      20.017852      20.000186      20.017569      0              0              0              8014.2491      3295.8148      1864.9416      1627.8143     -137.45311     -2811.6278     -769.38795      20.017852      20.000186      20.017569      90             90             90           
     55500   244.49616     -161.95218     -131.26508     -161.95218      0              6744.2645      20.217039      20.090269      19.958917      0              0              0              8106.6288      2373.9151      9413.2736      8445.6046     -332.77351     -494.34192     -477.45017      20.217039      20.090269      19.958917      90             90             90           
     56000   254.10221     -159.83782     -127.94505     -159.83782      0              9754.8757      20.044393      20.028037      20.051699      0              0              0              8049.7513      9601.4846      7896.1551      11766.987     -1395.2851     -742.85215      437.48482      20.044393      20.028037      20.051699      90             90             90           
     56500   252.39194     -160.73354     -129.05543     -160.73354      0              3039.6781      19.894344      20.008521      20.28763       0              0              0              8075.6207      3065.6396      5191.8872      861.50739      599.5011       336.21513      2314.5882      19.894344      20.008521      20.28763       90             90             90           
     57000   246.22929     -159.7671      -128.86246     -159.7671       0              5515.3703      19.888426      20.042269      20.403297      0              0              0              8132.9417      4021.8938      7502.2065      5022.0105      958.12925     -1972.3967     -380.82213      19.888426      20.042269      20.403297      90             90             90           
     57500   241.04383     -159.81239     -129.55859     -159.81239      0              10270.337      19.922171      19.842552      20.174885      0              0              0              7975.2674      9116.5499      12243.184      9451.277       206.79685      3618.337       989.54251      19.922171      19.842552      20.174885      90             90             90           
     58000   249.9703      -161.39215     -130.01798     -161.39215      0              6686.6577      20.191896      19.933706      20.162754      0              0              0              8115.495       7926.3698      4843.2428      7290.3605      12.797951      777.44249      232.45965      20.191896      19.933706      20.162754      90             90             90           
     58500   252.21693     -161.27212     -129.61597     -161.27212      0              4342.2335      20.122116      20.022527      20.197841      0              0              0              8137.6217      6319.9673      1737.5089      4969.2241     -1441.794      -1579.3643      2304.65        20.122116      20.022527      20.197841      90             90             90           
     59000   264.44021     -161.42091     -128.23059     -161.42091      0              4176.8579      19.86041       19.998753      20.268022      0              0              0              8050.1222      291.6477       8566.3039      3672.6221      2049.2163     -905.46242     -137.34767      19.86041       19.998753      20.268022      90             90             90           
     59500   257.77048     -161.0505      -128.69731     -161.0505       0              8625.7887      19.828598      19.983587      20.36922       0              0              0              8071.2327      10827.516      8805.5849      6244.2647      982.53973      1289.4333     -1656.4606      19.828598      19.983587      20.36922       90             90             90           
     60000   240.20749     -160.48872     -130.3399      -160.48872      0              4258.5958      20.064389      20.000835      20.339822      0              0              0              8162.4627      7762.0158      2684.2237      2329.5479     -645.01626     -1092.2673      3844.174       20.064389      20.000835      20.339822      90             90             90           
     60500   242.42908     -160.61663     -130.18897     -160.61663      0              4828.7198      20.129191      19.904991      20.027234      0              0              0              8024.3395      6417.874      -633.27878      8701.5643      3243.2176      1894.3331     -1845.3003      20.129191      19.904991      20.027234      90             90             90           
     61000   254.06161     -161.23237     -129.34469     -161.23237      0              7685.9047      20.155822      20.020149      20.078944      0              0              0              8102.3066      5330.1618      10191.72       7535.8326     -1795.596      -54.008906      3827.3288      20.155822      20.020149      20.078944      90             90             90           
     61500   259.36928     -161.86313     -129.30928     -161.86313      0              3744.2944      20.003552      20.043955      20.282657      0              0              0              8132.3374      5020.823       187.15195      6024.9082      1807.2323      2819.4342     -1495.1903      20.003552      20.043955      20.282657      90             90             90           
     62000   257.77362     -160.91622     -128.56264     -160.91622      0              4784.9745      19.86248       19.907685      20.325257      0              0              0              8036.9317      8380.8629      3909.0133      2065.0473     -1782.6811     -649.57951      643.4228       19.86248       19.907685      20.325257      90             90             90           
     62500   239.61483     -159.51283     -129.43839     -159.51283      0              5480.5798      20.068488      19.853149      20.297465      0              0              0              8086.9706      6104.8829      5942.8408      4394.0156      877.8761      -2181.0975     -1079.3085      20.068488      19.853149      20.297465      90             90             90           
     63000   259.91288     -159.55023     -126.92815     -159.55023      0              6639.4067      20.158291      19.833449      20.195592      0              0              0              8074.3685      5778.0486      7580.9558      6559.2157     -290.41018     -955.37611     -323.55828      20.158291      19.833449      20.195592      90             90             90           
     63500   245.80159     -160.6607      -129.80975     -160.6607       0              4829.0709      20.012464      20.008626      20.166681      0              0              0              8075.1807      904.99349      7193.4627      6388.7564      224.44201      3272.6166      898.04459      20.012464      20.008626      20.166681      90             90             90           
     64000   249.33482     -160.0404      -128.74598     -160.0404       0              5680.9001      19.782779      20.188974      20.309312      0              0              0              8111.4177      6437.7959      4127.1362      6477.7681     -294.21764     -1508.0814     -2035.8531      19.782779      20.188974      20.309312      90             90             90           
     64500   247.71813     -159.9918      -128.9003      -159.9918       0              6203.4936      19.790163      19.982911      20.367298      0              0              0              8054.5545      6272.3042      6459.4962      5878.6805     -8.8755206     -494.42959      2839.1378      19.790163      19.982911      20.367298      90             90             90           
     65000   237.04529     -161.33807     -131.58614     -161.33807      0              7992.2223      20.106223      19.79163       20.33471       0              0              0              8091.8917      6662.9111      8034.6753      9279.0804      495.66756     -437.62514     -2794.138       20.106223      19.79163       20.33471       90             90             90           
     65500   259.19288     -162.87611     -130.34439     -162.87611      0              7362.9434      20.211047      19.849059      20.105997      0              0              0              8065.9285      5536.713       8776.4213      7775.6959      1266.0554     -1049.4221      2235.977       20.211047      19.849059      20.105997      90             90             90           
     66000   253.84106     -159.221       -127.361       -159.221        0              5917.4356      20.038447      20.079262      19.981303      0              0              0              8039.622       5204.6117      6986.4663      5561.2287      661.09875     -361.36349      2261.7791      20.038447      20.079262      19.981303      90             90             90           
     66500   257.7214      -160.72118     -128.37416     -160.72118      0              4599.6712      19.92873       20.103639      20.266735      0              0              0              8119.6645      5526.4879      4155.9207      4116.6051      931.78093     -2479.5518     -635.12439      19.92873       20.103639      20.266735      90             90             90           
     67000   246.48575     -161.38705     -130.45023     -161.38705      0              5705.5461      19.941563      19.859482      20.442364      0              0              0              8095.7714      3339.9714      8706.1613      5070.5057     -276.61818     -368.54848     -1734.8349      19.941563      19.859482      20.442364      90             90             90           
     67500   247.22669     -160.71827     -129.68845     -160.71827      0              4143.804       19.983866      19.809276      20.353537      0              0              0              8057.272       4412.7707      4564.9477      3453.6935      1221.4157      3526.3154     -91.075938      19.983866      19.809276      20.353537      90             90             90           
     68000   238.39757     -160.44986     -130.5282      -160.44986      0              6620.2706      19.955567      20.022916      20.198142      0              0              0              8070.5441      5056.8253      8189.3169      6614.6698      1359.0523      434.99102     -1945.7664      19.955567      20.022916      20.198142      90             90             90           
     68500   261.53439     -161.66666     -128.84106     -161.66666      0              7459.3506      19.983157      20.180659      20.114487      0              0              0              8111.635       6424.9969      7441.4975      8511.5572     -564.28857      745.85799      1176.3245      19.983157      20.180659      20.114487      90             90             90           
     69000   244.01521     -161.22688     -130.60014     -161.22688      0              6799.3035      20.026133      19.972251      20.142936      0              0              0              8056.5091      7380.7608      6120.0626      6897.0871      1268.0191      3730.5257      539.14813      20.026133      19.972251      20.142936      90             90             90           
     69500   243.09106     -161.55385     -131.0431      -161.55385      0              4353.8062      20.139629      19.821796      20.353328      0              0              0              8125.1221      2248.7721      3814.8492      6997.7974     -1129.3293     -813.67984     -459.70424      20.139629      19.821796      20.353328      90             90             90           
     70000   258.85683     -162.42839     -129.93885     -162.42839      0              8346.5771      19.930077      19.835382      20.327169      0              0              0              8035.7502      12147.271      6651.4543      6241.0058      1867.0835      94.150737     -730.54541      19.930077      19.835382      20.327169      90             90             90           
     70500   244.17766     -160.80783     -130.1607      -160.80783      0              8752.6619      19.865926      20.09844       20.218162      0              0              0              8072.5889      6846.2928      9938.9834      9472.7096     -986.57777      2097.7758     -1759.3952      19.865926      20.09844       20.218162      90             90             90           
     71000   250.33979     -161.75648     -130.33593     -161.75648      0              6317.6901      20.026507      20.165222      20.106725      0              0              0              8119.8788      6764.163       5856.2211      6332.6861      580.28153      1475.7237     -1735.9066      20.026507      20.165222      20.106725      90             90             90           
     71500   242.41183     -160.20868     -129.78318     -160.20868      0              7138.5639      20.152456      19.95221       20.095951      0              0              0              8080.3013      6325.3331      6946.0073      8144.3511     -1245.3225     -1065.3468     -12.361047      20.152456      19.95221       20.095951      90             90             90           
     72000   251.76148     -158.62193     -127.02294     -158.62193      0              7264.2961      20.035426      19.920538      20.280272      0              0              0              8094.1904      3141.8041      12401.173      6249.9113      299.52475      971.28705      2692.7425      20.035426      19.920538      20.280272      90             90             90           
     72500   248.18036     -160.13559     -128.98608     -160.13559      0              5252.5488      19.823375      19.995483      20.494764      0              0              0              8123.6725      6050.1927      3431.5381      6275.9156     -159.61241      2506.1137     -789.50489      19.823375      19.995483      20.494764      90             90             90           
     73000   257.91425     -162.84204     -130.47081     -162.84204      0              3994.6631      19.854657      19.957036      20.458266      0              0              0              8106.3855      3206.0002      10505.065     -1727.0763      763.38035     -666.9505       512.56729      19.854657      19.957036      20.458266      90             90             90           
     73500   247.84702     -160.25165     -129.14397     -160.25165      0              11954.11       20.047283      19.848639      20.121797      0              0              0              8006.6898      12217.813      11986.116      11658.401      910.90069     -2322.1068     -1116.9082      20.047283      19.848639      20.121797      90             90             90           
     74000   257.44091     -162.32214     -130.01032     -162.32214      0              351.74946      20.245315      20.081613      20.022795      0              0              0              8140.4391     -2156.6929      1006.0926      2205.8487      1638.2936      140.89606      293.00181      20.245315      20.081613      20.022795      90             90             90           
     74500   253.27921     -161.52778     -129.7383      -161.52778      0              5907.7212      19.999649      20.086102      20.021486      0              0              0              8042.931       3550.576       6459.7803      7712.8075     -482.71208     -1479.333       1669.5155      19.999649      20.086102      20.021486      90             90             90           
     75000   255.82171     -160.49398     -128.38538     -160.49398      0              5136.8255      19.881311      20.021358      20.325709      0              0              0              8090.6657      8797.1542      2684.1171      3929.2053     -1701.1937      24.15346      -1120.8095      19.881311      20.021358      20.325709      90             90             90           
     75500   243.195       -160.93126     -130.40746     -160.93126      0              7395.7804      19.912883      19.913008      20.410507      0              0              0              8093.2841      7482.8571      9472.8315      5231.6526     -462.35846     -869.13346     -2014.0412      19.912883      19.913008      20.410507      90             90             90           
     76000   250.63827     -161.0943      -129.63629     -161.0943       0              4918.4582      20.02096       19.920056      20.221006      0              0              0              8064.5144      3906.3269      4640.905       6208.1426     -1953.9694      1665.3682     -185.92283      20.02096       19.920056      20.221006      90             90             90           
     76500   242.67311     -162.96198     -132.50368     -162.96198      0              3480.7567      20.125468      19.98958       20.041311      0              0              0              8062.6124      199.21556      7107.749       3135.3056      2261.8772     -510.89646      446.8342       20.125468      19.98958       20.041311      90             90             90           
     77000   233.03425     -161.74896     -132.50046     -161.74896      0              7008.6334      20.003291      20.038073      20.061703      0              0              0              8041.2807      4834.5419      9831.6085      6359.7498      308.3775      -1308.1585      1789.2105      20.003291      20.038073      20.061703      90             90             90           
     77500   248.92392     -161.13503     -129.89219     -161.13503      0              2112.6409      19.921721      20.047878      20.30774       0              0              0              8110.6722      3258.4534      2223.8748      855.59466      418.47246      986.572       -320.85678      19.921721      20.047878      20.30774       90             90             90           
     78000   259.2705      -159.30789     -126.76643     -159.30789      0              8459.9963      19.848345      19.966042      20.324895      0              0              0              8054.6111      9881.9679      8553.5263      6944.4947     -726.37329      1347.6453      2216.4413      19.848345      19.966042      20.324895      90             90             90           
     78500   246.03047     -161.80438     -130.9247      -161.80438      0              8717.2427      19.946758      19.972977      20.294551      0              0              0              8085.2709      5458.9715      9830.2361      10862.52       144.39654     -902.13343     -1784.5136      19.946758      19.972977      20.294551      90             90             90           
     79000   245.44491     -161.62626     -130.82008     -161.62626      0              9843.8159      20.045716      19.927915      20.084041      0              0              0              8022.9585      9244.4581      9628.1517      10658.838      930.78445      2027.0543     -401.97511      20.045716      19.927915      20.084041      90             90             90           
     79500   251.5268      -161.0193      -129.44977     -161.0193       0              6295.9864      20.222602      20.076839      20.045555      0              0              0              8138.6137      6034.8493      4107.0871      8746.0229     -191.6824       977.41815      2389.4321      20.222602      20.076839      20.045555      90             90             90           
     80000   260.85781     -160.95557     -128.21489     -160.95557      0              7668.3154      19.956809      19.968925      20.075578      0              0              0              8000.4396      9594.6191      6463.9013      6946.4258     -785.42996     -2162.2956     -3862.3106      19.956809      19.968925      20.075578      90             90             90           
     80500   243.32569     -160.4278      -129.8876      -160.4278       0              6125.1611      19.911638      19.921158      20.393634      0              0              0              8089.3977      8850.4079      3225.3165      6299.7588      935.03652     -1594.7275     -276.16399      19.911638      19.921158      20.393634      90             90             90           
     81000   250.34921     -161.1706      -129.74888     -161.1706       0              5501.9075      19.969194      19.912914      20.555911      0              0              0              8173.9517      7005.8494      6586.0488      2913.8244      1450.8613     -1.5592247      1043.0825      19.969194      19.912914      20.555911      90             90             90           
     81500   248.37711     -161.02206     -129.84785     -161.02206      0              5618.1637      19.857097      19.799657      20.246842      0              0              0              7960.3235      5225.3752      5984.239       5644.8768      301.39609      89.278075      2475.0016      19.857097      19.799657      20.246842      90             90             90           
     82000   241.37281     -160.96824     -130.67316     -160.96824      0              6491.386       20.071631      20.055453      20.095356      0              0              0              8089.2983      5462.1397      5581.3546      8430.6638      818.69138      1370.7187     -2824.778       20.071631      20.055453      20.095356      90             90             90           
     82500   261.90964     -160.2246      -127.3519      -160.2246       0              8100.5763      20.100354      20.09061       20.021089      0              0              0              8085.0841      6073.3469      10797.258      7431.1244     -487.13146      3723.4599     -526.30464      20.100354      20.09061       20.021089      90             90             90           
     83000   250.78818     -160.51634     -129.03952     -160.51634      0              6173.0246      19.992546      20.030843      20.190378      0              0              0              8085.5913      5237.5096      4559.846       8721.7181      405.4192       200.35496      559.33702      19.992546      20.030843      20.190378      90             90             90           
     83500   254.46054     -161.24739     -129.30964     -161.24739      0              6547.122       19.919107      19.834917      20.406892      0              0              0              8062.6373      6935.7476      7646.722       5058.8964      379.20343     -270.34682     -1048.9609      19.919107      19.834917      20.406892      90             90             90           
     84000   262.05956     -160.44236     -127.55085     -160.44236      0              7056.5369      19.989113      19.891405      20.423578      0              0              0              8120.6503      4038.6668      8257.4433      8873.5007      524.44138      1825.9828     -544.28228      19.989113      19.891405      20.423578      90             90             90           
     84500   244.39681     -159.58675     -128.91211     -159.58675      0              5122.2717      19.958799      20.048678      20.217442      0              0              0              8089.9592      3686.66        7954.5665      3725.5885     -1427.9834      190.12822     -56.149877      19.958799      20.048678      20.217442      90             90             90           
     85000   251.98629     -161.26201     -129.63481     -161.26201      0              6619.598       19.936296      20.053906      19.993387      0              0              0              7993.3685      6743.1677      5351.7781      7763.8484      359.51084      1617.6924      1042.9334      19.936296      20.053906      19.993387      90             90             90           
     85500   261.63847     -161.16823     -128.32957     -161.16823      0              5811.8472      20.155243      20.034735      20.166147      0              0              0              8143.1897      5292.1725      3847.9565      8295.4127     -1734.4828     -1080.9445      588.91608      20.155243      20.034735      20.166147      90             90             90           
     86000   251.12897     -160.39958     -128.87998     -160.39958      0              5757.1745      20.042854      19.743944      20.266752      0              0              0              8020.0602      6343.7432      6662.1315      4265.6489      545.17493      2560.6266     -1509.9532      20.042854      19.743944      20.266752      90             90             90           
     86500   243.67788     -161.35293     -130.76853     -161.35293      0              6072.0405      20.005611      19.852951      20.39636       0              0              0              8100.8311      4815.9862      8069.3792      5330.7561     -438.55942      2333.1775     -699.24977      20.005611      19.852951      20.39636       90             90             90           
     87000   243.51374     -161.88176     -131.31796     -161.88176      0              8793.5761      19.931861      20.018825      20.244407      0              0              0              8077.7702      11683.413      7386.3836      7310.9317      357.10889     -613.03972     -284.60341      19.931861      20.018825      20.244407      90             90             90           
     87500   251.07161     -161.59031     -130.07791     -161.59031      0              3771.1946      19.884617      20.042501      20.080015      0              0              0              8002.6381      2608.3054      6050.4567      2654.8218     -637.57095      444.65549      1408.3716      19.884617      20.042501      20.080015      90             90             90           
     88000   251.82973     -160.74641     -129.13886     -160.74641      0              4431.7957      20.009162      20.066262      20.151367      0              0              0              8090.9568      3306.2211      3874.8816      6114.2845     -182.46399     -2746.3395     -1539.909       20.009162      20.066262      20.151367      90             90             90           
     88500   249.62758     -161.77961     -130.44845     -161.77961      0              6908.5082      20.040187      19.986451      20.209381      0              0              0              8094.5082      7733.3019      8482.5781      4509.6447     -1570.3968      2632.2449     -3339.9257      20.040187      19.986451      20.209381      90             90             90           
     89000   245.48097     -162.97584     -132.16513     -162.97584      0              8977.5838      19.971256      19.940573      20.2403        0              0              0              8060.4623      8533.2817      11025.603      7373.8667     -1484.3592     -361.44341     -1038.4306      19.971256      19.940573      20.2403        90             90             90           
     89500   233.47927     -161.27305     -131.9687      -161.27305      0              6950.4286      19.951328      19.868202      20.21738       0              0              0              8014.1088      6419.2734      8794.5888      5637.4236     -1701.0956      2920.4562      3165.6899      19.951328      19.868202      20.21738       90             90             90           
     90000   245.65982     -162.80716     -131.97401     -162.80716      0              8170.9745      20.040599      19.977182      20.180261      0              0              0              8079.2624      6215.2021      9242.6         9055.1213     -846.5287       580.51514     -1113.1427      20.040599      19.977182      20.180261      90             90             90           
     90500   252.06669     -161.05052     -129.41323     -161.05052      0              6135.754       19.996925      20.040922      20.080721      0              0              0              8047.4859      3707.1981      5884.3579      8815.7061     -537.52465     -1015.5101      2031.2122      19.996925      20.040922      20.080721      90             90             90           
     91000   249.0373      -161.25538     -129.99831     -161.25538      0              5021.1508      19.976351      19.978987      20.157612      0              0              0              8045.0491      2692.7287      7373.6333      4997.0906      1281.886       607.58856     -1733.9021      19.976351      19.978987      20.157612      90             90             90           
     91500   243.30643     -163.6273      -133.08952     -163.6273       0              5782.3264      20.045636      19.962019      20.358183      0              0              0              8146.3551      5644.41        3990.3171      7712.252      -306.6053       1158.5377     -2084.0715      20.045636      19.962019      20.358183      90             90             90           
     92000   244.61558     -161.1706      -130.46851     -161.1706       0              3395.9879      19.875611      19.845102      20.33613       0              0              0              8021.2513      3592.1767      3645.6541      2950.1329     -134.85899     -1897.8196      914.69561      19.875611      19.845102      20.33613       90             90             90           
     92500   244.6947      -161.27481     -130.56278     -161.27481      0              4313.4468      19.937254      20.001272      20.272155      0              0              0              8083.9359      4107.9849      4529.1403      4303.2153     -926.21124     -917.355       -3209.3114      19.937254      20.001272      20.272155      90             90             90           
     93000   248.03716     -161.07125     -129.93971     -161.07125      0              6910.8105      20.00796       20.15945       20.019156      0              0              0              8074.7161      6963.3274      6662.8501      7106.2541      3048.1338      2351.8997      1427.0423      20.00796       20.15945       20.019156      90             90             90           
     93500   247.96361     -161.88579     -130.76348     -161.88579      0              5893.4929      20.093964      20.111881      19.989056      0              0              0              8078.1253      3717.5774      9237.6427      4725.2585     -1481.6231     -452.64965     -2289.0196      20.093964      20.111881      19.989056      90             90             90           
     94000   254.81485     -162.69658     -130.71436     -162.69658      0              7970.2059      20.058223      19.782748      20.241558      0              0              0              8031.9874      7312.7599      7468.5087      9129.3491      390.78734      1157.4595      730.20053      20.058223      19.782748      20.241558      90             90             90           
     94500   248.4918      -161.692       -130.50339     -161.692        0              9271.894       20.033714      19.744932      20.562245      0              0              0              8133.6902      9019.5981      10996.566      7799.5177     -884.64557     -369.17015     -2151.4515      20.033714      19.744932      20.562245      90             90             90           
     95000   237.40121     -161.86844     -132.07184     -161.86844      0              2391.089       19.924852      19.871966      20.471634      0              0              0              8105.6612      4037.3057      2320.8344      815.12701      1020.9472     -232.57122     -587.1475       19.924852      19.871966      20.471634      90             90             90           
[...]
    377000   241.61442     -161.2552      -130.92978     -161.2552       0              6606.7107      19.961615      19.978492      20.099033      0              0              0              8015.5543      8562.7974      3454.9011      7802.4335      796.14856     -481.50606      2171.752       19.961615      19.978492      20.099033      90             90             90           
    377500   247.43914     -162.22442     -131.16794     -162.22442      0              5653.572       19.840667      20.051039      20.504149      0              0              0              8157.083       8747.2855      4162.4053      4051.0252      789.41995      353.41317      997.2519       19.840667      20.051039      20.504149      90             90             90           
    378000   245.80723     -160.36018     -129.50853     -160.36018      0              6351.7247      19.832627      19.926467      20.455153      0              0              0              8083.7576      7098.0174      3928.9011      8028.2556     -1147.7842      506.36545      1000.8384      19.832627      19.926467      20.455153      90             90             90           
    378500   244.10552     -161.30305     -130.66497     -161.30305      0              7160.613       19.946273      19.90239       20.19988       0              0              0              8018.9182      5244.2588      8514.0388      7723.5413      1542.3884      510.88377      109.99629      19.946273      19.90239       20.19988       90             90             90           
    379000   239.85888     -159.92622     -129.82115     -159.92622      0              7573.6806      20.180955      20.017435      20.125507      0              0              0              8130.1203      5476.1211      8416.0728      8828.8478      1864.937      -831.3174      -742.91779      20.180955      20.017435      20.125507      90             90             90           
    379500   245.32288     -161.22997     -130.4391      -161.22997      0              5431.411       20.065798      20.007729      20.111019      0              0              0              8073.9921      7161.8441      3418.9192      5713.4698      962.57133     -1804.8059      1611.0863      20.065798      20.007729      20.111019      90             90             90           
    380000   245.1303      -161.47045     -130.70376     -161.47045      0              5602.074       19.873144      19.953573      20.259042      0              0              0              8033.5249      6185.6741      5178.016       5442.5318     -1711.2607     -193.44234     -765.01903      19.873144      19.953573      20.259042      90             90             90           
    380500   244.2584      -162.25116     -131.59389     -162.25116      0              4357.2357      19.95603       19.996819      20.407074      0              0              0              8143.588       5378.9637      2760.5411      4932.2024      643.03514      855.74004      1128.237       19.95603       19.996819      20.407074      90             90             90           
    381000   257.82189     -162.70698     -130.34734     -162.70698      0              7973.926       19.964198      19.891838      20.243467      0              0              0              8039.1787      5773.0582      8641.1213      9507.5987      1811.9077      3211.5405     -416.71403      19.964198      19.891838      20.243467      90             90             90           
    381500   259.13069     -159.4635      -126.9396      -159.4635       0              7346.1305      20.104287      19.961345      20.126276      0              0              0              8076.8476      7262.0713      6794.1992      7982.1211      1529.6471     -2535.0462      1521.6376      20.104287      19.961345      20.126276      90             90             90           
    382000   252.66248     -160.6169      -128.90483     -160.6169       0              7064.5702      20.225537      19.965339      20.05963       0              0              0              8100.273       4668.2912      6665.4494      9859.9701      882.41056      1907.263      -2295.1397      20.225537      19.965339      20.05963       90             90             90           
    382500   257.45022     -159.05889     -126.7459      -159.05889      0              7864.8499      20.0812        19.892329      20.11676       0              0              0              8035.8781      6197.4667      10220.111      7176.9726      94.901869     -146.84834      1335.2943      20.0812        19.892329      20.11676       90             90             90           
    383000   258.24314     -160.61658     -128.20408     -160.61658      0              7157.4718      19.861473      20.062004      20.429017      0              0              0              8140.1658      7076.0955      8484.9792      5911.3407     -1750.0663      1379.6924      254.7357       19.861473      20.062004      20.429017      90             90             90           
    383500   262.25784     -159.05859     -126.14219     -159.05859      0              5784.4676      19.789791      20.112493      20.477448      0              0              0              8150.4758      8619.7334      3931.125       4802.5446      1164.7097     -449.0806      -3377.8209      19.789791      20.112493      20.477448      90             90             90           
    384000   244.63245     -160.01461     -129.3104      -160.01461      0              5911.1143      19.961662      19.912465      20.23912       0              0              0              8044.7647      7074.4375      5892.3791      4766.5263     -1332.8741      349.39617     -1263.931       19.961662      19.912465      20.23912       90             90             90           
    384500   242.87885     -160.34783     -129.86372     -160.34783      0              4006.6561      20.193627      19.902007      20.103337      0              0              0              8079.4046      1390.9036      3820.3455      6808.7194      2349.3722     -4083.1298      2200.3987      20.193627      19.902007      20.103337      90             90             90           
    385000   238.80908     -160.91668     -130.94337     -160.91668      0              3103.4503      20.133253      20.002285      20.195205      0              0              0              8132.8326      4873.3321      1585.524       2851.4947      300.07537      883.78146     -438.02483      20.133253      20.002285      20.195205      90             90             90           
    385500   246.00117     -161.35911     -130.48311     -161.35911      0              5782.9159      19.967203      19.886431      20.266507      0              0              0              8047.3518      6401.3157      3979.2289      6968.2031     -1733.9561      582.38789      716.86566      19.967203      19.886431      20.266507      90             90             90           
    386000   245.40025     -160.52268     -129.72211     -160.52268      0              6976.1635      20.002547      19.81976       20.394645      0              0              0              8085.369       6551.6777      6594.7784      7782.0344      51.791084     -1311.6379      575.17746      20.002547      19.81976       20.394645      90             90             90           
    386500   249.80749     -159.63231     -128.27857     -159.63231      0              6583.4397      19.995126      20.022137      20.449987      0              0              0              8187.0529      6674.506       7737.5978      5338.2153     -55.596888      2999.666      -3361.2065      19.995126      20.022137      20.449987      90             90             90           
    387000   254.71433     -161.18174     -129.21214     -161.18174      0              4584.2303      19.812872      20.14005       20.184078      0              0              0              8054.0979      5512.4867      2795.9591      5444.245       8.0206062      1068.1775     -1137.789       19.812872      20.14005       20.184078      90             90             90           
    387500   255.56478     -160.64748     -128.57113     -160.64748      0              5252.3393      19.99956       20.092389      20.007381      0              0              0              8039.7444      6582.9538      4656.3403      4517.7239     -457.56073     -1469.8208      11.112167      19.99956       20.092389      20.007381      90             90             90           
    388000   241.33087     -162.13816     -131.84834     -162.13816      0              6006.13        20.36756       19.976736      20.19773       0              0              0              8217.999       1731.0901      9600.5322      6686.7677     -737.65933      360.64438     -1122.5736      20.36756       19.976736      20.19773       90             90             90           
    388500   245.14049     -162.13993     -131.37196     -162.13993      0              5668.6786      20.067543      19.832397      20.171817      0              0              0              8028.1305      6849.5947      5266.7434      4889.6977     -288.77228      247.79814      767.65909      20.067543      19.832397      20.171817      90             90             90           
    389000   240.93007     -161.53251     -131.29299     -161.53251      0              6634.4088      19.960358      19.910998      20.231942      0              0              0              8040.7939      8889.8102      4670.3307      6343.0854      1350.3174     -1553.6251      584.82167      19.960358      19.910998      20.231942      90             90             90           
    389500   242.58118     -161.36885     -130.9221      -161.36885      0              8037.1048      20.031827      19.961931      20.276218      0              0              0              8107.931       6688.7549      7476.3082      9946.2513      531.23236     -407.16954      1269.4124      20.031827      19.961931      20.276218      90             90             90           
    390000   238.32546     -161.72197     -131.80936     -161.72197      0              7659.1581      20.060671      19.928119      20.317191      0              0              0              8122.233       7611.6362      6545.2039      8820.6343     -791.39095      187.6648      -1497.9515      20.060671      19.928119      20.317191      90             90             90           
    390500   250.16397     -160.69224     -129.29376     -160.69224      0              9322.6572      19.928199      19.892515      20.215749      0              0              0              8013.9675      8493.324       11164.683      8309.9647      1011.4041     -565.60403     -2328.0816      19.928199      19.892515      20.215749      90             90             90           
    391000   258.89268     -160.50578     -128.01175     -160.50578      0              3203.683       19.955011      20.05747       20.216937      0              0              0              8091.7693      2133.8193      2891.0757      4586.154       1018.9112      2279.6598     -1392.8764      19.955011      20.05747       20.216937      90             90             90           
    391500   258.55427     -158.68598     -126.23442     -158.68598      0              7434.212       19.995504      20.140664      20.253882      0              0              0              8156.6984      7165.2199      5818.897       9318.5192      838.96747     -2562.5624     -704.1439       19.995504      20.140664      20.253882      90             90             90           
    392000   239.4961      -161.82597     -131.76643     -161.82597      0              9646.1518      20.034699      19.856736      20.19916       0              0              0              8035.7054      13522.722      5361.5666      10054.167      1241.2639      3567.5284     -2853.5657      20.034699      19.856736      20.19916       90             90             90           
    392500   238.65694     -161.53593     -131.58172     -161.53593      0              1373.1188      20.148559      19.717785      20.225579      0              0              0              8035.3181     -1124.2583      3823.5736      1420.041       905.3786      -2722.9741      412.45687      20.148559      19.717785      20.225579      90             90             90           
    393000   246.18228     -160.48111     -129.58238     -160.48111      0              4519.8661      20.059673      20.008766      20.338376      0              0              0              8163.2001      4446.3614      4680.2351      4433.0016      293.81915      1665.6909     -24.797774      20.059673      20.008766      20.338376      90             90             90           
    393500   261.26691     -159.52289     -126.73086     -159.52289      0              6793.9414      19.774977      20.160629      20.288933      0              0              0              8088.71        9127.1104      4730.8867      6523.8271      433.16897     -2972.0686      1334.7898      19.774977      20.160629      20.288933      90             90             90           
    394000   245.82374     -160.79945     -129.94572     -160.79945      0              4178.3104      19.872433      20.090025      20.21264       0              0              0              8069.6471      4217.0047      3389.7429      4928.1837     -1574.049      -648.96953     -1919.5174      19.872433      20.090025      20.21264       90             90             90           
    394500   241.93748     -161.30199     -130.93603     -161.30199      0              5156.9838      20.127192      19.897048      20.105107      0              0              0              8051.5266      6067.9433      4120.8557      5282.1523      769.23219      1680.5504      1029.3938      20.127192      19.897048      20.105107      90             90             90           
    395000   252.89133     -161.01812     -129.27733     -161.01812      0              3874.8116      20.137203      20.008398      20.177795      0              0              0              8129.8993      4477.2076      1198.5884      5948.6388     -577.09811      115.46975     -394.09793      20.137203      20.008398      20.177795      90             90             90           
    395500   240.34184     -161.18263     -131.01694     -161.18263      0              7443.5757      19.818483      19.99142       20.161719      0              0              0              7988.0656      7759.308       5562.759       9008.6601     -272.78169      153.23516      1447.1835      19.818483      19.99142       20.161719      90             90             90           
    396000   239.83003     -161.47664     -131.37519     -161.47664      0              5349.6756      19.96365       20.041398      20.405621      0              0              0              8164.2776      6390.2458      6809.2282      2849.5528      14.83878       876.96117     -4684.2885      19.96365       20.041398      20.405621      90             90             90           
    396500   242.72184     -161.97478     -131.51037     -161.97478      0              5778.7291      19.979906      19.851185      20.303421      0              0              0              8052.8403      8858.6807      3002.8615      5474.6449      990.01631      880.83784     -1146.6581      19.979906      19.851185      20.303421      90             90             90           
    397000   251.06906     -161.49947     -129.98739     -161.49947      0              5428.0101      20.021693      19.886238      20.158391      0              0              0              8026.1873      8235.2766      739.79611      7308.9576     -618.30456      5121.1252      1089.5916      20.021693      19.886238      20.158391      90             90             90           
    397500   244.91966     -160.56825     -129.82799     -160.56825      0              3835.4384      20.100857      20.106448      20.207928      0              0              0              8167.1728      1262.7056      3857.0431      6386.5664      985.97092     -49.10501      -558.32518      20.100857      20.106448      20.207928      90             90             90           
    398000   253.98095     -161.21034     -129.33279     -161.21034      0              6980.0456      19.93001       20.002091      20.138497      0              0              0              8028.0483      7140.9704      7080.0948      6719.0716      836.48326     -2552.5533     -1460.8539      19.93001       20.002091      20.138497      90             90             90           
    398500   243.45556     -159.93346     -129.37696     -159.93346      0              6337.7519      20.042707      20.022013      20.304171      0              0              0              8147.9694      3784.8186      6149.8948      9078.5423     -524.93126     -3824.2306     -1285.3551      20.042707      20.022013      20.304171      90             90             90           
    399000   235.24509     -162.26018     -132.73419     -162.26018      0              5620.5073      19.931108      19.999135      20.344124      0              0              0              8109.2682      6975.0528      4146.5873      5739.8818      770.19962      551.66486     -2530.4675      19.931108      19.999135      20.344124      90             90             90           
    399500   243.14409     -161.05309     -130.53569     -161.05309      0              9115.7592      19.847352      19.932678      20.251598      0              0              0              8011.7523      11742.428      7296.6794      8308.1708     -1783.1258     -1844.9684      773.22587      19.847352      19.932678      20.251598      90             90             90           
    400000   239.15213     -161.41193     -131.39556     -161.41193      0              4642.8196      20.093502      19.988986      20.277764      0              0              0              8144.5384      3788.7047      3340.3926      6799.3616      1989.0822      569.49559      1377.7871      20.093502      19.988986      20.277764      90             90             90           
Loop time of 1416.28 on 1 procs for 400000 steps with 972 atoms

Performance: 12.201 ns/day, 1.967 hours/ns, 282.431 timesteps/s
103.5% CPU use with 1 MPI tasks x no OpenMP threads

MPI task timing breakdown:
Section |  min time  |  avg time  |  max time  |%varavg| %total
---------------------------------------------------------------
Pair    | 1062       | 1062       | 1062       |   0.0 | 74.99
Bond    | 0.045367   | 0.045367   | 0.045367   |   0.0 |  0.00
Neigh   | 239.19     | 239.19     | 239.19     |   0.0 | 16.89
Comm    | 10.413     | 10.413     | 10.413     |   0.0 |  0.74
Output  | 83.056     | 83.056     | 83.056     |   0.0 |  5.86
Modify  | 20.19      | 20.19      | 20.19      |   0.0 |  1.43
Other   |            | 1.357      |            |       |  0.10

Nlocal:            972 ave         972 max         972 min
Histogram: 1 0 0 0 0 0 0 0 0 0
Nghost:           4683 ave        4683 max        4683 min
Histogram: 1 0 0 0 0 0 0 0 0 0
Neighs:              0 ave           0 max           0 min
Histogram: 1 0 0 0 0 0 0 0 0 0
FullNghs:       248706 ave      248706 max      248706 min
Histogram: 1 0 0 0 0 0 0 0 0 0

Total # of neighbors = 248706
Ave neighs/atom = 255.87037
Ave special neighs/atom = 0
Neighbor list builds = 40000
Dangerous builds not checked

unfix		3
unfix		2

write_data	data.final.${pid}
write_data	data.final.0
System init for write_data ...
Generated 0 of 1 mixed pair_coeff terms from geometric mixing rule

write_restart   restart.lmp.${pid}
write_restart   restart.lmp.0
System init for write_restart ...
Generated 0 of 1 mixed pair_coeff terms from geometric mixing rule
Total wall time: 0:23:55
