LAMMPS data file via write_data, version 29 Sep 2021, timestep = 400000

1008 atoms
2 atom types

0.1717193151496712 18.22783568485186 xlo xhi
-0.09541052531007921 22.665799525312664 ylo yhi
0.03923129750489629 19.466484702496082 zlo zhi
-0.3152750021695992 -6.874993861020911 0.13415793553612115 xy xz yz

Masses

1 1.008
2 15.999

Atoms # full

1 0 1 0 6.71565788791858 0.658134019223912 5.023344667500264 0 0 0
2 0 2 0 7.213391738166223 1.3829221157250011 5.399363314720021 0 0 0
3 0 2 0 5.839149043282683 0.5143276827489567 5.40961521829332 0 0 0
4 0 1 0 3.7791709901156185 1.2793227018964373 5.3400897816738855 0 0 0
5 0 2 0 3.0891717973081674 0.6235786936071916 5.288687909735401 0 0 0
6 0 2 0 3.6328361482849116 1.8225225881651552 4.50023240976177 0 0 0
7 0 1 0 -1.247112461685513 6.576713919039793 4.943922839065073 0 0 0
8 0 2 0 -1.1897312252617396 6.08563848731338 5.774087408992982 0 0 0
9 0 2 0 -1.2353708957050764 5.878865535136064 4.2497171495331 0 0 0
10 0 1 0 1.724148750240644 6.505857924625044 4.868626783360651 0 0 0
11 0 2 0 1.8763010083561051 5.814162342342764 5.523471849851396 0 0 0
12 0 2 0 0.7489071820717963 6.58073237631587 4.840267291804108 0 0 0
13 0 1 0 5.020014263232941 5.058935095938205 9.801510617343869 0 0 0
14 0 2 0 4.087024955171417 4.9375285288398025 9.773778272751505 0 0 0
15 0 2 0 5.1529095078396185 5.675638175268724 10.517918698041568 0 0 0
16 0 1 0 5.273574738008456 4.762681610894852 0.33961134935659354 0 0 0
17 0 2 0 6.241155347063768 4.648825659388316 0.0997581494841723 0 0 0
18 0 2 0 -2.1023897765628723 4.151668187751757 19.36168657399309 0 0 -1
19 0 1 0 1.0271290145608365 2.519020748307291 0.45437649838956723 0 0 0
20 0 2 0 -5.944326787584516 2.0731740179578426 19.108920583345828 0 0 -1
21 0 2 0 0.8671920575824694 1.9322329734293464 1.212803322888244 0 0 0
22 0 1 0 0.45442915749377866 2.565060625572374 9.572959463858929 0 0 0
23 0 2 0 0.3593398654521369 1.9607693156985027 10.321297868052051 0 0 0
24 0 2 0 1.25455937133211 3.1230200004576374 9.701448059286406 0 0 0
25 0 1 0 4.3715226884273 6.429132994109007 7.403819618654841 0 0 0
26 0 2 0 4.570220904428092 6.038281053731276 6.5593776785873485 0 0 0
27 0 2 0 4.71751407381906 5.847118698899431 8.074210090634267 0 0 0
28 0 1 0 5.613736699877528 6.341714563255529 2.7099661834873903 0 0 0
29 0 2 0 4.927915199771071 7.040047669039661 2.526753691270104 0 0 0
30 0 2 0 5.476961946051375 5.691604874274939 1.9614376044900184 0 0 0
31 0 1 0 1.2377659987946212 0.6335183878753682 2.6323741931759064 0 0 0
32 0 2 0 0.993524634962432 1.0962331782882673 3.411290636066769 0 0 0
33 0 2 0 0.310060362896593 22.675023897610984 2.504716961987722 0 -1 0
34 0 1 0 0.04745723362942211 1.2224420685518715 7.179264622374568 0 0 0
35 0 2 0 0.10749128406987651 1.7333413174723422 8.02978854021481 0 0 0
36 0 2 0 -0.7407297745777714 0.6406421524552406 7.262540213329984 0 0 0
37 0 1 0 6.179003808985868 2.4096750646562604 2.64082612302038 0 0 0
38 0 2 0 6.260718615354347 2.2877772913739527 1.6676018229891534 0 0 0
39 0 2 0 6.400323247364133 1.5435155854337903 3.1348811997116335 0 0 0
40 0 1 0 4.203234236964921 2.751765087052451 7.6277828214718735 0 0 0
41 0 2 0 4.115655384115701 2.1447361312218267 6.879916750967691 0 0 0
42 0 2 0 3.9500101470439626 2.3951493216531765 8.475605578342286 0 0 0
43 0 1 0 -0.5114489588788753 4.826585662929312 7.114326339367661 0 0 0
44 0 2 0 -0.6891312639403138 5.025672776287374 8.062828861387713 0 0 0
45 0 2 0 0.3703850987790043 4.400054678715785 7.0747530480647205 0 0 0
46 0 1 0 1.9048246716232498 4.95158148068724 2.1470155254702474 0 0 0
47 0 2 0 1.9865545872959687 5.527233164707636 1.3254788161500108 0 0 0
48 0 2 0 2.2172651944069353 5.495519951988074 2.866933879952057 0 0 0
49 0 1 0 6.852102016380837 3.050753372151414 6.717833962618872 0 0 0
50 0 2 0 6.134295659841887 2.670027542535802 7.235546627210716 0 0 0
51 0 2 0 6.377185488999984 3.630173849714506 6.111216570608369 0 0 0
52 0 1 0 3.6264568131107824 3.1370410956790784 3.297833902243567 0 0 0
53 0 2 0 4.5060999940662345 3.0780881772373605 2.9094955030464273 0 0 0
54 0 2 0 2.9713998783933526 3.4408876502773706 2.621907338769786 0 0 0
55 0 1 0 -0.48318818338239045 4.215625816921941 3.382576018721842 0 0 0
56 0 2 0 16.807354250937543 3.750951802940865 2.9331109732444474 -1 0 0
57 0 2 0 0.22175295740539724 4.33314579401723 2.7645076807151456 0 0 0
58 0 1 0 2.258709830179701 4.062866535930833 6.353243235901113 0 0 0
59 0 2 0 2.1064656245818436 3.360645857796981 5.699710755726447 0 0 0
60 0 2 0 3.053138488699324 3.732628450129247 6.897832528696842 0 0 0
61 0 1 0 7.921399060208497 7.193381685319088 1.6891723079229894 0 0 0
62 0 2 0 7.568413381578976 7.843859211275779 1.0650942741177152 0 0 0
63 0 2 0 7.049316588998714 6.990921189793826 2.168631438834847 0 0 0
64 0 1 0 1.913360280778888 7.1720798811622215 8.56673559863004 0 0 0
65 0 2 0 2.4103280295343494 7.746851332092026 9.190278358397375 0 0 0
66 0 2 0 2.608556939668597 6.915222773974895 7.938207380778014 0 0 0
67 0 1 0 -2.6287004963090963 0.47191546110015703 7.938396410741643 0 0 0
68 0 2 0 14.599479835709246 0.2043695913209816 7.639217751062901 -1 0 0
69 0 2 0 -2.7087087704775232 1.2801910176139775 8.503436154701355 0 0 0
70 0 1 0 3.605480833815928 0.21330521209331216 1.3408732804303252 0 0 0
71 0 2 0 2.906932571066749 0.41289400257558395 1.9652922485878341 0 0 0
72 0 2 0 4.022376992840056 22.635805695251758 1.881007749184442 0 -1 0
73 0 1 0 5.138634391728918 4.89495117001869 5.170425795206144 0 0 0
74 0 2 0 4.326312936381218 4.5571495237387705 4.796327185680424 0 0 0
75 0 2 0 5.475743245338972 5.483261977940413 4.478754875655413 0 0 0
76 0 1 0 0.8097461186416419 2.414171242809647 4.7849145821269 0 0 0
77 0 2 0 0.44561726142550584 2.056369179857635 5.6201845162105935 0 0 0
78 0 2 0 0.1833906771854643 3.139153341177554 4.533475240240424 0 0 0
79 0 1 0 6.6471911334037275 0.7498422300586913 0.31336573803485696 0 0 0
80 0 2 0 -0.6337505547317965 0.34740435059592667 19.01938927909702 0 0 -1
81 0 2 0 7.105251538194821 0.19338330642643545 0.9210119174220252 0 0 0
82 0 1 0 -4.38213203494851 6.533682664396069 19.254819624056793 0 0 -1
83 0 2 0 -5.031519666076029 7.133976506142508 18.87370173269705 0 0 -1
84 0 2 0 -4.012098195731941 6.176504502147463 18.421370227159784 0 0 -1
85 0 1 0 15.692708646249681 1.0334214946197111 4.6137839463870325 0 0 0
86 0 2 0 15.721095442201284 1.5536516564419056 3.765862128349342 0 0 0
87 0 2 0 14.815588463468954 0.6896746360677046 4.739314115008513 0 0 0
88 0 1 0 12.960604962281787 0.678189878191349 4.842212359572981 0 0 0
89 0 2 0 12.336067599407746 -0.055507832046918795 4.7268882873032325 0 0 0
90 0 2 0 12.75360222794788 1.0799404953778993 5.673272527970081 0 0 0
91 0 1 0 8.206053141658817 6.450299433866486 4.935953701732551 0 0 0
92 0 2 0 7.422539493285565 7.032202059349824 4.963830039651428 0 0 0
93 0 2 0 8.025445262521778 5.765303859363224 4.283649611746486 0 0 0
94 0 1 0 11.079560121141657 6.396322062048234 4.753654692635109 0 0 0
95 0 2 0 10.09849528245812 6.481037802847588 4.815026401287163 0 0 0
96 0 2 0 11.495717916408497 7.302551886503656 4.797662252782035 0 0 0
97 0 1 0 13.875840020189623 4.7689632767050325 9.491150720765159 0 0 0
98 0 2 0 13.877143946608408 5.196114914354527 8.605987786799028 0 0 0
99 0 2 0 13.946765142812398 5.566260650904708 9.99131188988337 0 0 0
100 0 1 0 14.715705733957607 4.968969488415849 0.24922242791727992 0 0 0
101 0 2 0 15.606841235808606 4.597771002740885 0.14668690677298604 0 0 0
102 0 2 0 7.820688646442866 5.789410115788055 18.959391642085144 0 0 -1
103 0 1 0 9.675002621881239 3.025685616611709 0.3611113342960907 0 0 0
104 0 2 0 2.1860526223678143 3.761694295296247 19.371821645516214 0 0 -1
105 0 2 0 10.40038603046185 3.6329802831894416 0.5707031027223912 0 0 0
106 0 1 0 9.371650146945258 3.0430230026086553 9.811246925483067 0 0 0
107 0 2 0 9.220302937986188 2.6775392018306996 8.945393600114082 0 0 0
108 0 2 0 9.409451652708729 2.186653015352809 10.363828088853536 0 0 0
109 0 1 0 13.56757824331366 6.3046227365484055 7.107334438944981 0 0 0
110 0 2 0 13.506715860853898 5.836311234446592 6.249369963627148 0 0 0
111 0 2 0 12.645904657630881 6.466254305660619 7.336360273417944 0 0 0
112 0 1 0 15.007713414992391 6.337114898276506 2.411706438282169 0 0 0
113 0 2 0 14.756919952782237 5.839990040691092 3.213701943858832 0 0 0
114 0 2 0 14.922574231027971 5.739686200222427 1.6405452138970065 0 0 0
115 0 1 0 10.284125087592509 1.197178634826373 2.491436348011688 0 0 0
116 0 2 0 11.190975540541627 0.8962922843849356 2.2087631728180237 0 0 0
117 0 2 0 10.046527009830756 1.9353667362679738 1.873992376329938 0 0 0
118 0 1 0 9.052336319439899 1.182286261490374 7.88508453193453 0 0 0
119 0 2 0 8.526960491977073 1.5030245316721793 7.145997560812579 0 0 0
120 0 2 0 9.715729364582748 0.5713973937076177 7.493600754418492 0 0 0
121 0 1 0 15.486053399983017 2.704187534429796 2.4146563055338626 0 0 0
122 0 2 0 15.454522791098176 2.228142006473142 1.5707533061706114 0 0 0
123 0 2 0 14.565395225821554 2.8663016115369224 2.6032912121674494 0 0 0
124 0 1 0 12.942567876363182 2.2969230745077693 6.968402804619734 0 0 0
125 0 2 0 12.400031498761443 3.0478409003509395 6.80151385555465 0 0 0
126 0 2 0 13.863627914819165 2.6579055105261067 6.920178627377083 0 0 0
127 0 1 0 8.415478851048075 5.055014424328921 7.54128091778957 0 0 0
128 0 2 0 8.43824024409389 5.593281747693796 6.72729195311224 0 0 0
129 0 2 0 7.9044523080671425 4.214930812453949 7.333389145283691 0 0 0
130 0 1 0 10.807819585443463 4.714120236905152 2.527254005145048 0 0 0
131 0 2 0 9.885471674497165 4.555936486968002 2.7855502591580774 0 0 0
132 0 2 0 11.04028726197182 5.22182617991586 3.3009315421714374 0 0 0
133 0 1 0 15.5177825685548 3.2124036005202377 6.343372960463025 0 0 0
134 0 2 0 15.941568026639885 2.4666304632564575 5.898916506072186 0 0 0
135 0 2 0 -1.7773647862554538 3.7878540765898108 6.476284925923948 1 0 0
136 0 1 0 12.830583047383062 2.9697341731048765 3.182467031324121 0 0 0
137 0 2 0 11.975594076203004 3.2280852151647035 2.825098034665114 0 0 0
138 0 2 0 12.907164367426446 2.1738763809076675 3.693335159501656 0 0 0
139 0 1 0 8.203160894924585 4.216221381229298 3.441048100108912 0 0 0
140 0 2 0 7.381917014783602 3.8907042417378417 2.941071958685367 0 0 0
141 0 2 0 8.432961355624123 3.4050990277127537 4.003478542162119 0 0 0
142 0 1 0 11.071780027746147 4.060971586996836 6.1755383746620875 0 0 0
143 0 2 0 11.31787494141495 4.835350725311081 5.639985098089379 0 0 0
144 0 2 0 10.638401894893342 4.566284168276189 6.893713571454832 0 0 0
145 0 1 0 17.3353856149185 7.270950632092033 1.05878870051143 0 0 0
146 0 2 0 16.57665922290926 7.1065544438157175 1.6209614280594322 0 0 0
147 0 2 0 17.058393189641126 7.996770577827736 0.44111686903084896 0 0 0
148 0 1 0 11.039973416919992 6.89616106554827 8.02391932878346 0 0 0
149 0 2 0 10.940901394539043 6.314571954779957 8.817099533380222 0 0 0
150 0 2 0 10.2159675117889 7.379150487509993 7.779791967878253 0 0 0
151 0 1 0 6.394300970119149 0.7709724773194288 8.793050954506535 0 0 0
152 0 2 0 7.36394639759497 0.6491407091409511 8.7353165776816 0 0 0
153 0 2 0 6.263839765683642 1.6450652438539344 9.20290951100153 0 0 0
154 0 1 0 12.924401026262167 0.2995920242396933 1.547227537508249 0 0 0
155 0 2 0 12.806972860065365 1.117574153533822 1.1070765281230062 0 0 0
156 0 2 0 12.084270610052531 22.421387222308887 0.9952474799624306 0 -1 0
157 0 1 0 14.059089061475719 4.839256082196067 4.64381230643704 0 0 0
158 0 2 0 13.480602755496506 4.2439997612195475 4.16398793965149 0 0 0
159 0 2 0 14.65104487804322 4.338531404711645 5.224509166370196 0 0 0
160 0 1 0 9.353102704125577 2.1044594626950484 5.040957469417815 0 0 0
161 0 2 0 10.057082823332411 2.6173290910776545 5.4545582882629375 0 0 0
162 0 2 0 9.723843803748801 1.6742202505731012 4.228770853902824 0 0 0
163 0 1 0 15.607241787272466 1.1506683583610873 0.24035262931716708 0 0 0
164 0 2 0 8.79232755361372 1.7857049454988623 18.815570164529284 0 0 -1
165 0 2 0 8.187594006600857 0.5270429173993902 19.45792426970835 0 0 -1
166 0 1 0 11.206090871038022 6.370586045093091 0.2423594162322775 0 0 0
167 0 2 0 10.798608190179541 5.7732880371901505 0.908456032779815 0 0 0
168 0 2 0 3.6430380750285263 7.038628239888064 19.28804696355686 0 0 -1
169 0 1 0 6.184150450886438 8.22553255621814 4.8472096385930055 0 0 0
170 0 2 0 5.293523509622152 8.002002731678763 5.079744346817672 0 0 0
171 0 2 0 6.305120522919381 9.091371242891707 5.2164879934086406 0 0 0
172 0 1 0 3.6110920792525327 8.504481647546543 5.207902801898846 0 0 0
173 0 2 0 2.8073179958026317 7.986277749749305 5.151168569304874 0 0 0
174 0 2 0 3.5903414761942276 9.344243538374462 4.690866506045636 0 0 0
175 0 1 0 -0.7686716100576385 14.311594325807903 5.15239699213911 0 0 0
176 0 2 0 -1.3487332823314264 15.104335189320139 5.260313065804901 0 0 0
177 0 2 0 0.15297720086062494 14.590385590852746 5.261270192470833 0 0 0
178 0 1 0 2.15497860872774 13.972578023289719 4.776422759089186 0 0 0
179 0 2 0 2.3152471433852018 13.15653088405478 5.335278811039894 0 0 0
180 0 2 0 1.852147461827443 13.79909692115981 3.8738851033104456 0 0 0
181 0 1 0 5.178735820599957 12.627736423346315 9.58630462293123 0 0 0
182 0 2 0 5.2961575599930555 13.364972447144275 10.210294093797087 0 0 0
183 0 2 0 5.901209256031606 11.991048791456988 9.699076138526985 0 0 0
184 0 1 0 -1.55242298390292 12.143988220557926 19.404986835994805 0 0 -1
185 0 2 0 -1.6995338958458586 12.96765725477606 18.872748176479817 0 0 -1
186 0 2 0 -0.6084577860338314 12.036281538593549 19.248561541301378 0 0 -1
187 0 1 0 0.8684935979678461 10.387543503234996 0.23319142000639245 0 0 0
188 0 2 0 0.9074856940342234 9.849553011404444 1.0314054935197863 0 0 0
189 0 2 0 1.7862646695378517 10.6608940502624 0.05487464230696461 0 0 0
190 0 1 0 0.3687830345971821 10.412117959318438 9.567251939107285 0 0 0
191 0 2 0 0.3729147313945669 10.049362600134886 8.671436839760812 0 0 0
192 0 2 0 1.1890602144738 10.870348265916553 9.562508950182997 0 0 0
193 0 1 0 4.683154591121733 14.099112122526904 7.209998321413857 0 0 0
194 0 2 0 4.947360013693133 13.431761106752909 6.499842614193289 0 0 0
195 0 2 0 4.716766602822647 13.524017140654735 8.030455778741285 0 0 0
196 0 1 0 5.886325306775319 13.595579986255967 2.36008019719055 0 0 0
197 0 2 0 5.582014752769947 12.914085255252838 1.7375946025685916 0 0 0
198 0 2 0 5.536210218007064 13.337467947576819 3.219258503313494 0 0 0
199 0 1 0 1.261530429468305 8.523837392216416 2.4105153370918457 0 0 0
200 0 2 0 0.6294101772612894 7.848283519622097 2.0792866629717217 0 0 0
201 0 2 0 2.1444767515215903 8.113763572158524 2.2211586971591926 0 0 0
202 0 1 0 0.36952675369217625 8.797568728958224 7.054599605401223 0 0 0
203 0 2 0 -0.5839553992358728 8.59597611175111 7.093723381514575 0 0 0
204 0 2 0 0.8370555403254758 8.080999862145205 7.569547194113679 0 0 0
205 0 1 0 6.093782229204881 9.913203361570654 2.3169357430761544 0 0 0
206 0 2 0 6.19135547997624 9.242786589656696 3.0002752450043215 0 0 0
207 0 2 0 6.668602703374536 10.624499826189922 2.624403992220271 0 0 0
208 0 1 0 3.9606109767788262 10.164834384947387 7.503511509480991 0 0 0
209 0 2 0 3.2930324726625826 10.78767653368843 7.110433053063822 0 0 0
210 0 2 0 4.092820117985152 9.522074247806254 6.847784373156134 0 0 0
211 0 1 0 -0.4859763377614714 12.399206363084481 6.944460924835182 0 0 0
212 0 2 0 -0.6211621356907644 12.739517137031852 7.856409718027114 0 0 0
213 0 2 0 -0.6728990020828876 13.250022620293787 6.439722043089261 0 0 0
214 0 1 0 1.4920160339574655 12.700312919105583 2.36337264143536 0 0 0
215 0 2 0 1.481191075869523 12.875377180927812 1.397829877163878 0 0 0
216 0 2 0 0.681755467619298 12.171518630449304 2.543474097509391 0 0 0
217 0 1 0 6.222856893126763 10.732215552781637 6.216727281335336 0 0 0
218 0 2 0 5.694487185524043 10.951692266283317 7.003538538694976 0 0 0
219 0 2 0 7.0302977979358285 11.170752010832713 6.469065516743 0 0 0
220 0 1 0 3.3982919135860064 10.793711485793278 3.253010584839572 0 0 0
221 0 2 0 4.124717065609066 10.717428234180455 2.668706216267337 0 0 0
222 0 2 0 2.7415428181440875 11.364498045877461 2.8347371221923914 0 0 0
223 0 1 0 -0.9617974901928421 11.737505073570313 3.022913173610956 0 0 0
224 0 2 0 -0.5469771326744601 11.215561325916616 3.734662097476528 0 0 0
225 0 2 0 -1.1134776528234616 12.611284612058382 3.421345974875086 0 0 0
226 0 1 0 2.025915052864605 11.613849220970033 6.198603691575593 0 0 0
227 0 2 0 1.2188116828758386 11.83776855840186 6.704264491818011 0 0 0
228 0 2 0 1.7558937197782867 10.934185459673458 5.536967204286054 0 0 0
229 0 1 0 8.23446238245699 14.592485221003054 1.5112467196944075 0 0 0
230 0 2 0 7.366555627528866 14.303975468850918 1.933616280143921 0 0 0
231 0 2 0 8.783410960524616 14.928369982411276 2.283609693468497 0 0 0
232 0 1 0 1.8331816012286568 14.709063726639643 8.082528844464555 0 0 0
233 0 2 0 2.5208768211861696 14.896829562254766 7.411745944530412 0 0 0
234 0 2 0 1.1774465404297212 15.364116539753478 8.026626010764554 0 0 0
235 0 1 0 -2.291154977312355 7.9303303962252585 7.939730284250816 0 0 0
236 0 2 0 14.943522591845369 7.57436299721171 7.573157281809092 -1 0 0
237 0 2 0 -2.5001555731061127 8.72558997857264 8.467395329404422 0 0 0
238 0 1 0 3.7310738783051063 7.816069683020531 1.6304673651914732 0 0 0
239 0 2 0 3.922543021133763 8.740438245470473 1.2578557142557814 0 0 0
240 0 2 0 3.438068945784878 7.281067805055021 0.8881350593320461 0 0 0
241 0 1 0 4.916088372906945 12.683173016427336 4.776870223300819 0 0 0
242 0 2 0 5.604119980713126 11.990407912918425 4.8707673464416175 0 0 0
243 0 2 0 4.1367460270370255 12.18755393803242 4.5989579934387015 0 0 0
244 0 1 0 0.6681709516714371 10.088238575517373 4.529744473341134 0 0 0
245 0 2 0 0.9561838057543779 9.449940517453554 3.783972076299829 0 0 0
246 0 2 0 0.4336498384174339 9.514873898007075 5.266158458104652 0 0 0
247 0 1 0 -0.0610859154301755 9.150903529562012 19.35043906293717 0 0 -1
248 0 2 0 6.5030586329196245 9.495207058133424 0.7324846573386248 0 0 0
249 0 2 0 -0.8242213837882462 8.655379157423058 19.018399877257828 0 0 -1
250 0 1 0 -4.855136858341824 13.547080330785384 19.309793630741794 0 0 -1
251 0 2 0 -5.317824398453249 14.139360517496701 18.648967299274084 0 0 -1
252 0 2 0 2.5544333671762036 14.038914143645384 0.35776077930552314 0 0 0
253 0 1 0 15.044046193697211 8.58854565037121 4.707531113368907 0 0 0
254 0 2 0 15.723416526107274 7.9003224793718685 4.667531825602423 0 0 0
255 0 2 0 15.035508688977435 8.86081399936793 3.758358474099631 0 0 0
256 0 1 0 12.450938211843663 8.833671938422325 4.866920900990837 0 0 0
257 0 2 0 13.299125241341349 8.358670922109644 4.862493993196106 0 0 0
258 0 2 0 12.5487011282459 9.301921859754946 5.694873529154266 0 0 0
259 0 1 0 8.295831537693102 14.066866423126609 5.0325503413378705 0 0 0
260 0 2 0 9.172939893371103 14.303736476764454 5.1925891330795455 0 0 0
261 0 2 0 8.294927324275205 13.34497126467608 4.3598216708781345 0 0 0
262 0 1 0 11.186347077127794 14.090676571748405 4.720261427496113 0 0 0
263 0 2 0 10.998831850385802 13.857184764736488 3.8391963146149943 0 0 0
264 0 2 0 11.66880437336793 14.94085472605978 4.811004331066023 0 0 0
265 0 1 0 13.8265377771496 12.162818377288195 9.145353521643306 0 0 0
266 0 2 0 14.278537775313298 11.312345328671064 9.243046965507435 0 0 0
267 0 2 0 13.952416768071465 12.600499217483453 8.25048150779718 0 0 0
268 0 1 0 7.441380453114233 12.486476255366668 19.379586129394426 0 0 -1
269 0 2 0 14.608728286843837 12.601362142502529 0.8068658429968356 0 0 0
270 0 2 0 13.567416847761748 11.692635865634832 0.04634786846245906 0 0 0
271 0 1 0 9.766439345039185 10.180496974499382 0.35259978952832766 0 0 0
272 0 2 0 10.641267077963967 10.63874556223548 0.21703103796153567 0 0 0
273 0 2 0 9.938578181908648 9.743560564971723 1.2082972897298117 0 0 0
274 0 1 0 9.735793233191583 10.073607008351612 9.5236488894298 0 0 0
275 0 2 0 10.098563161928794 10.923133655601733 9.658179627159898 0 0 0
276 0 2 0 9.597681034942436 9.882873514529239 8.585341059975747 0 0 0
277 0 1 0 13.686643766592496 13.994326241667828 7.0311089265920526 0 0 0
278 0 2 0 14.340073110541317 14.581098751767085 7.455062868414768 0 0 0
279 0 2 0 12.842366902824946 14.419825583139867 7.122479764772966 0 0 0
280 0 1 0 14.668313004477863 13.752649517165384 2.377450156386859 0 0 0
281 0 2 0 14.64396883786409 13.42859162686695 3.297025489103663 0 0 0
282 0 2 0 15.579405920483344 13.959475129145492 2.180396221148481 0 0 0
283 0 1 0 9.972184924568934 8.633619858035907 2.7737462963541657 0 0 0
284 0 2 0 9.333329254985596 8.02486422758509 2.426123655769897 0 0 0
285 0 2 0 10.873016455553103 8.18469167390022 2.7314635907404337 0 0 0
286 0 1 0 8.97879218533755 8.548633380178785 7.222419085445233 0 0 0
287 0 2 0 7.996519229201988 8.471309662682705 7.393527173677308 0 0 0
288 0 2 0 8.93308553075814 9.013448665842592 6.39047421195344 0 0 0
289 0 1 0 15.313281189376314 10.089576012471342 2.1651553781712853 0 0 0
290 0 2 0 15.83005972906598 10.81155921734427 2.611445916857108 0 0 0
291 0 2 0 14.390992064620807 10.407416543684796 2.205656724419519 0 0 0
292 0 1 0 13.068236827450978 10.312265760682752 7.168909115848397 0 0 0
293 0 2 0 14.015699557698575 10.50189553507933 6.996903134722481 0 0 0
294 0 2 0 12.912188686096558 9.90143299813552 8.059962206652406 0 0 0
295 0 1 0 8.443526819290948 12.220152487296174 7.307269021311655 0 0 0
296 0 2 0 8.194963353911819 12.85836279373847 6.6013290213573645 0 0 0
297 0 2 0 9.35577558724351 11.978746515423671 7.106822026408952 0 0 0
298 0 1 0 10.779395387255608 12.594581550291199 2.494712397794238 0 0 0
299 0 2 0 10.931218737413285 13.019206145396186 1.5989422813318168 0 0 0
300 0 2 0 11.437977010607492 11.918154542432097 2.6058672005276136 0 0 0
301 0 1 0 15.667597334610564 10.486981143340365 6.550029756393162 0 0 0
302 0 2 0 15.737470928578457 9.903681838730684 5.75474833650929 0 0 0
303 0 2 0 -1.5735627315845442 11.037411295110482 6.669283614595614 1 0 0
304 0 1 0 12.740311754242349 10.948991167101314 3.069941836195578 0 0 0
305 0 2 0 12.538099963429014 10.123499871045686 3.5996038260779133 0 0 0
306 0 2 0 13.232759902792608 11.481404293935913 3.731241087146403 0 0 0
307 0 1 0 8.172545298487917 11.866639741145445 3.3554276529643423 0 0 0
308 0 2 0 8.909070430356334 12.231066188228358 2.801987789356193 0 0 0
309 0 2 0 8.676867179416154 11.307177093270468 3.9407454481559743 0 0 0
310 0 1 0 11.01824633148766 11.776228452054953 6.171066086069828 0 0 0
311 0 2 0 11.800005429143939 11.360383108485966 6.641718716150395 0 0 0
312 0 2 0 11.24791699441813 12.629819696589713 5.762761576239245 0 0 0
313 0 1 0 17.045089034107722 14.333106282520095 1.599321009227682 0 0 0
314 0 2 0 -0.25719688626609716 14.738070959576833 2.0482892732057016 1 0 0
315 0 2 0 17.417100181190644 13.639019393643206 0.9956009422423356 0 0 0
316 0 1 0 11.015178887262493 14.79682993243446 8.177909437071742 0 0 0
317 0 2 0 10.759536788959934 13.988856886596913 8.604163632223104 0 0 0
318 0 2 0 11.32641872274822 15.391312740009205 8.892776154684276 0 0 0
319 0 1 0 6.5321150988204035 7.728423426378085 8.584325860357785 0 0 0
320 0 2 0 6.969909029010925 7.071832878208451 9.123703535353531 0 0 0
321 0 2 0 5.829814545282164 7.299076133575964 8.007105222032706 0 0 0
322 0 1 0 12.686782244173937 7.920908710250898 1.878062208595703 0 0 0
323 0 2 0 12.421216644509059 7.371324665156132 1.1441024606173684 0 0 0
324 0 2 0 13.432400846528544 7.452330486879623 2.2892881755817966 0 0 0
325 0 1 0 14.54054515478402 12.67436598860338 4.820983746549049 0 0 0
326 0 2 0 14.902543378122195 11.917995833934892 5.398307814307621 0 0 0
327 0 2 0 14.060840409017278 13.134203437033868 5.494726387076634 0 0 0
328 0 1 0 9.180352214245945 9.969163625338096 5.071279432569344 0 0 0
329 0 2 0 9.453420066833631 9.387581645260356 4.270397785850886 0 0 0
330 0 2 0 10.020706512204493 10.461046970852973 5.386848416584045 0 0 0
331 0 1 0 9.072483067653248 9.170173364505935 19.153107260941667 0 0 -1
332 0 2 0 15.799474622258773 9.41498597411313 0.6021560951007823 0 0 0
333 0 2 0 9.332030389749542 9.880823587443537 18.51994136755402 0 0 -1
334 0 1 0 4.397122922924897 13.75854105058428 19.235462871067377 0 0 -1
335 0 2 0 4.649145776804109 13.00522069641235 18.698014990640004 0 0 -1
336 0 2 0 3.7205547668806265 14.261803505667142 18.70228996295566 0 0 -1
337 0 1 0 6.427755537634832 15.983156199825878 4.9134421099034915 0 0 0
338 0 2 0 7.108733643015599 15.242505141220295 4.893028723240316 0 0 0
339 0 2 0 6.468764237307949 16.474584086201286 4.0918245740329855 0 0 0
340 0 1 0 3.6202740327942338 16.270183112547073 5.098205906443836 0 0 0
341 0 2 0 3.1350393732364115 15.355385057086927 5.088013540949284 0 0 0
342 0 2 0 4.579001307742498 15.992043906999541 4.924729614934242 0 0 0
343 0 1 0 -1.136970362728629 21.598802378312502 4.918193773754453 0 0 0
344 0 2 0 -1.1183196128279476 21.392165932659452 5.837433792448308 0 0 0
345 0 2 0 -1.8108321822335303 22.285231756918755 4.836743624464672 0 0 0
346 0 1 0 1.7911911827979512 21.833548347394583 5.215331459065074 0 0 0
347 0 2 0 1.837813926474382 20.9553998892149 5.671682061903088 0 0 0
348 0 2 0 0.9714079299392937 21.82222611005066 4.730685221912364 0 0 0
349 0 1 0 4.858625451951838 19.869798370910438 9.263680678120078 0 0 0
350 0 2 0 4.892549634274348 20.460022194287593 10.079260413241828 0 0 0
351 0 2 0 4.88870331654151 20.49486986179051 8.54095756948298 0 0 0
352 0 1 0 5.472880615304877 19.911416585748828 0.11526400185436528 0 0 0
353 0 2 0 4.914555339615261 19.06767826992843 0.07979613375039887 0 0 0
354 0 2 0 5.321593665377961 20.15269730845252 1.039449455684377 0 0 0
355 0 1 0 1.0338993113413582 17.548195990369777 0.0413666306959639 0 0 0
356 0 2 0 0.8627956359562287 17.006211870695612 0.7648212883009151 0 0 0
357 0 2 0 -5.904970325557151 16.990965711437966 18.78899211001064 0 0 -1
358 0 1 0 0.029924859159201844 17.78971186261422 9.529918449877698 0 0 0
359 0 2 0 0.4343806820697269 17.122720539623444 10.065435272005214 0 0 0
360 0 2 0 0.6360779802871255 18.533784405902537 9.505133323589604 0 0 0
361 0 1 0 4.468588545406771 21.722914257561165 7.481883814164648 0 0 0
362 0 2 0 5.04435977361913 22.51297208137161 7.821832037659818 0 0 0
363 0 2 0 3.5553242285743223 22.09233080272815 7.58948951177048 0 0 0
364 0 1 0 5.136431797687925 21.312327208110716 2.5830313019087945 0 0 0
365 0 2 0 5.992376657766289 21.4968875410748 2.930080242733826 0 0 0
366 0 2 0 4.753044268098385 20.75505208905758 3.2227893761772624 0 0 0
367 0 1 0 1.1137356391979019 15.872371943954608 2.408587871134709 0 0 0
368 0 2 0 2.0886468047874356 15.677699454553647 2.1399195913810005 0 0 0
369 0 2 0 0.9512803378721757 16.336753861208784 3.208877355428914 0 0 0
370 0 1 0 -0.3883900580114412 16.467839819646308 7.284420911074207 0 0 0
371 0 2 0 -0.26523503532591475 17.293013028765674 7.844120165190843 0 0 0
372 0 2 0 -0.10259706861212914 16.725528640493966 6.388867295609411 0 0 0
373 0 1 0 5.948951771699385 17.518386781189264 2.688248385979671 0 0 0
374 0 2 0 6.0902246538693925 17.244215758413148 1.7940554924164005 0 0 0
375 0 2 0 4.955000927631663 17.670357566911964 2.657898791184094 0 0 0
376 0 1 0 3.4540359239068734 17.822879437101225 7.430872104482947 0 0 0
377 0 2 0 3.3942512688454887 17.199753655670186 6.695878443304218 0 0 0
378 0 2 0 4.415804431299451 18.0726133065015 7.410469867076462 0 0 0
379 0 1 0 -0.5889710655558544 20.16029003250066 7.443055235385268 0 0 0
380 0 2 0 -1.420391080619383 19.612253205211807 7.469693272892635 0 0 0
381 0 2 0 -0.6867920315849445 20.640292703401954 8.285088014482534 0 0 0
382 0 1 0 1.9715332465917528 20.044387208638945 2.432406149353176 0 0 0
383 0 2 0 2.347143067735105 19.170794600992235 2.577144643302502 0 0 0
384 0 2 0 2.2793040372666162 20.551342408702993 3.1874628941836787 0 0 0
385 0 1 0 6.252404343569798 18.37998616428659 6.635649023276505 0 0 0
386 0 2 0 6.975063986338086 18.791479328550135 7.070088149573207 0 0 0
387 0 2 0 6.616183561063536 17.60069864730223 6.13261252988107 0 0 0
388 0 1 0 3.660150844102419 18.35957288574096 3.6035690085344347 0 0 0
389 0 2 0 3.4937786219751077 17.520282187965666 4.071864880096037 0 0 0
390 0 2 0 3.8518912771218066 19.05989997162918 4.225406081464439 0 0 0
391 0 1 0 -0.7661380997329307 19.561452676390957 3.1228595936730073 0 0 0
392 0 2 0 0.06170954224471392 19.702359066611905 2.6606335910651335 0 0 0
393 0 2 0 -0.8318691393983195 20.264459411542745 3.8124516871584704 0 0 0
394 0 1 0 1.5882470376357953 19.36292725303998 6.371086644790289 0 0 0
395 0 2 0 0.8540696462829653 19.657296471923036 7.009682945613489 0 0 0
396 0 2 0 2.2401639116420875 18.78787500797679 6.769986057058757 0 0 0
397 0 1 0 7.743117997748022 21.986793966492556 2.132547063222896 0 0 0
398 0 2 0 7.993922826856753 21.248181616794742 1.5800879970204458 0 0 0
399 0 2 0 8.515285379580067 22.54900774574087 2.137836440227202 0 0 0
400 0 1 0 1.7834873977730363 22.623768731167498 8.197493357311126 0 0 0
401 0 2 0 2.0490936822603034 0.5917042624215465 8.81027191490089 0 1 0
402 0 2 0 1.3445719637534057 0.15725094973119796 7.616926650374101 0 1 0
403 0 1 0 -2.624751840206941 15.473098008123545 8.251148813991144 0 0 0
404 0 2 0 -1.8030694416151203 15.739792190284524 7.863553695864305 0 0 0
405 0 2 0 -2.780951718511366 16.207008660262755 8.908962197313375 0 0 0
406 0 1 0 3.5288532513105735 15.232162334458732 1.4080368134686372 0 0 0
407 0 2 0 4.26177758464315 14.788288494905105 1.8935948803760159 0 0 0
408 0 2 0 3.8713928264738273 16.087042619872207 1.022728008043303 0 0 0
409 0 1 0 4.6130523121904945 20.152060572368384 5.235149849398847 0 0 0
410 0 2 0 5.351326923600797 19.537087943810356 5.537405591984066 0 0 0
411 0 2 0 4.350015484086287 20.621439885793016 6.0412625971120955 0 0 0
412 0 1 0 0.3306129387837593 17.486360074796643 4.616349856370917 0 0 0
413 0 2 0 0.9280811815291601 17.996423724334125 5.15273933702101 0 0 0
414 0 2 0 -0.22612172237370065 18.11866017421267 4.151649534159042 0 0 0
415 0 1 0 6.423313703727877 16.249117463100042 0.3097521333824332 0 0 0
416 0 2 0 7.273733878058025 15.856382390865075 0.5356707167844597 0 0 0