LAMMPS (29 Sep 2021 - Update 2)
  using 1 OpenMP thread(s) per MPI task
echo both

include		in.partitions
variable        pid world 0
include		in.temp
variable        temperature equal 270
variable        tempDamp equal 0.100 # this is 0.1 ps
include		in.pressure
variable        pressure equal 6079.5
variable        pressureDamp equal 1.0 #this is 1ps
include		in.seed
variable        seed world 745823

units           metal
atom_style	full
include		in.box
read_data       iceV.data
Reading data file ...
  triclinic box = (0.0000000 0.0000000 0.0000000) to (18.399555 22.570389 19.505716) with tilt (0.0000000 -6.7926110 0.0000000)
  1 by 1 by 1 MPI processor grid
  reading atoms ...
  1008 atoms
Finding 1-2 1-3 1-4 neighbors ...
  special bond factors lj:    0        0        0       
  special bond factors coul:  0        0        0       
     0 = max # of 1-2 neighbors
     0 = max # of 1-3 neighbors
     0 = max # of 1-4 neighbors
     1 = max # of special neighbors
  special bonds CPU = 0.004 seconds
  read_data CPU = 0.025 seconds
include 	in.setup
variable	out_freq equal 500
variable	out_freq2 equal 500

timestep        0.0005

neigh_modify    delay 7 every 1

include         in.deepmd
# This is deepMD model

# create groups ###
#group ox type 2
#group hy type 1

mass 2 15.999
mass 1 1.008

pair_style      deepmd ../graph.pb
pair_coeff      * *

bond_style      none
angle_style     none
dihedral_style  none
improper_style  none
neigh_modify exclude none


neighbor        2.0 bin
neigh_modify    every 10 delay 0 check no

thermo          ${out_freq}
thermo          500
thermo_style 	custom step temp pe etotal epair emol press lx ly lz xy xz yz vol pxx pyy pzz pxy pxz pyz

restart 	${out_freq} restart.lmp.${pid} restart2.lmp.${pid}
restart 	500 restart.lmp.${pid} restart2.lmp.${pid}
restart 	500 restart.lmp.0 restart2.lmp.${pid}
restart 	500 restart.lmp.0 restart2.lmp.0


include         in.dump
dump            myDump all atom ${out_freq2} dump.water.${pid}
dump            myDump all atom 500 dump.water.${pid}
dump            myDump all atom 500 dump.water.0
dump            myDump2 all dcd ${out_freq2} dump.dcd
dump            myDump2 all dcd 500 dump.dcd
dump_modify     myDump append yes
dump_modify     myDump2 append yes


timer           timeout 03:55:00 every 1000
New timer settings: style=normal  mode=nosync  timeout=03:55:00

fix             2 all nph tri ${pressure} ${pressure} ${pressureDamp}
fix             2 all nph tri 6079.5 ${pressure} ${pressureDamp}
fix             2 all nph tri 6079.5 6079.5 ${pressureDamp}
fix             2 all nph tri 6079.5 6079.5 1
fix             3 all temp/csvr ${temperature} ${temperature} ${tempDamp} ${seed}
fix             3 all temp/csvr 270 ${temperature} ${tempDamp} ${seed}
fix             3 all temp/csvr 270 270 ${tempDamp} ${seed}
fix             3 all temp/csvr 270 270 0.1 ${seed}
fix             3 all temp/csvr 270 270 0.1 745823
velocity 	all create ${temperature} ${seed} dist gaussian
velocity 	all create 270 ${seed} dist gaussian
velocity 	all create 270 745823 dist gaussian

run             400000

CITE-CITE-CITE-CITE-CITE-CITE-CITE-CITE-CITE-CITE-CITE-CITE-CITE

Your simulation uses code contributions which should be cited:

- USER-DEEPMD package:

@article{Wang_ComputPhysCommun_2018_v228_p178,
  author = {Wang, Han and Zhang, Linfeng and Han, Jiequn and E, Weinan},
  doi = {10.1016/j.cpc.2018.03.016},
  url = {https://doi.org/10.1016/j.cpc.2018.03.016},
  year = 2018,
  month = {jul},
  publisher = {Elsevier {BV}},
  volume = 228,
  journal = {Comput. Phys. Commun.},
  title = {{DeePMD-kit: A deep learning package for many-body potential energy representation and molecular dynamics}},
  pages = {178--184}
}

CITE-CITE-CITE-CITE-CITE-CITE-CITE-CITE-CITE-CITE-CITE-CITE-CITE

Neighbor list info ...
  update every 10 steps, delay 0 steps, check no
  max neighbors/atom: 2000, page size: 100000
  master list distance cutoff = 8
  ghost atom cutoff = 8
  binsize = 4, bins = 7 6 5
  1 neighbor lists, perpetual/occasional/extra = 1 0 0
  (1) pair deepmd, perpetual
      attributes: full, newton on
      pair build: full/bin
      stencil: full/bin/3d
      bin: standard
Per MPI rank memory allocation (min/avg/max) = 7.699 | 7.699 | 7.699 Mbytes
Step Temp PotEng TotEng E_pair E_mol Press Lx Ly Lz Xy Xz Yz Volume Pxx Pyy Pzz Pxy Pxz Pyz 
       0          270   -178.42725   -143.28271   -178.42725            0    36246.247    18.399555    22.570389    19.505716            0    -6.792611            0    8100.4335     35768.11    37043.951    35926.681   -446.46135    1252.8272    362.80918 
     500    267.32987   -163.93398     -129.137   -163.93398            0     11680.81    18.050191    22.251776    19.279621 -0.028603487   -6.7523757 -0.010213099    7743.6366    10598.074    11919.006     12525.35   -2631.0016    62.557783   -397.12231 
    1000    268.60309   -162.78443   -127.82172   -162.78443            0     6604.264    18.078197    22.623273    19.510206 -0.025790036   -6.8509884  0.010044985    7979.4397    7621.2505    7575.9973    4615.5443    2441.0754    197.79432   -896.73837 
    1500    262.29745    -162.8811   -128.73916    -162.8811            0    16972.244     18.06168    22.719622    19.409698 -0.011635982   -6.8969421 -0.011392046    7964.8576    19082.148    13926.833    17907.751   -109.46923    3818.1806    2734.9244 
    2000    270.05255   -161.42541   -126.27403   -161.42541            0    441.67766    18.038769    22.668357    19.285197 0.0086340222   -6.9122213 -0.057991655    7885.8953     662.5206    2818.9332   -2156.4208   -1769.2749   -179.97757    46.788288 
    2500    276.34405   -161.64392    -125.6736   -161.64392            0    7029.8676    18.165332    22.849116    19.353642 0.00031757592   -6.9813168 -0.082188086     8032.957    6222.2346    7289.4077    7577.9604    47.914328    2374.3536    73.881311 
    3000    277.43713   -160.93458   -124.82199   -160.93458            0    11028.326    18.039893    22.608393    19.238585 -0.014207556   -6.9558643 0.0004373402    7846.5145    13601.415    9568.5064    9915.0548   -222.08427    29.530009   -239.82487 
    3500    260.60901   -161.46499   -127.54282   -161.46499            0    6571.7223    18.124764    22.650371    19.425918 -0.023420958   -6.9861792   0.16625614    7974.9733    4888.5985    8766.8182    6059.7503    741.14769     1778.783    -2494.615 
    4000    264.75452    -162.0253   -127.56354    -162.0253            0      9201.43    18.127739    22.659859    19.459208   -0.0262049    -6.885206   0.20049495    7993.2975    6813.8775    7537.7893    13252.623    1371.0694   -301.50059    2578.7922 
    4500    268.49384   -162.24104   -127.29255   -162.24104            0    6667.1786    18.025702    22.516352    19.275468 -0.075968806   -6.7468342  0.056313148     7823.393    7464.6568    4937.2489    7599.6302    1665.4448    268.75803    3292.2413 
    5000     258.3422   -161.15238   -127.52528   -161.15238            0    412.61688    18.221512    22.712616    19.451288  -0.13290414    -6.762896  -0.16194438    8050.0751    3075.3108     1205.429   -3042.8892    -2627.815   -1401.5056   -719.08996 
    5500    264.15678    -162.1873   -127.80334    -162.1873            0    10727.795    18.059203    22.569018     19.29522 -0.078877568   -6.7265007  -0.18101684    7864.3166    7903.9956    10674.744    13604.646    1501.5826    1679.9032    91.781107 
    6000    261.72537   -161.06449   -126.99701   -161.06449            0    2779.5833     18.06976    22.625019    19.414958 -0.014291209   -6.7618281   0.04410875    7937.3917    1913.2873    3448.2083    2977.2543    1413.2372    512.04234   -827.39471 
    6500    259.06364   -161.46374   -127.74273   -161.46374            0    6535.5777    17.943101    22.760242    19.468175  0.027971902   -6.8041728   0.32824616    7950.5946    8047.0925    4504.2107    7055.4298   -1388.0283   -251.20041   -3561.4046 
    7000    268.92065   -160.53205   -125.52801   -160.53205            0    8013.6912    17.953141    22.795727    19.463571 -0.055624067   -6.9041273   0.40487688    7965.5618    7481.1003    9389.9935    7169.9799    6.9647874    -195.8802   -1300.3655 
    7500    280.78166   -162.59296   -126.04503   -162.59296            0    6982.9011    18.131015    22.676487    19.255169  -0.28277193   -7.0913873  0.076441257    7916.7193    7183.4684    6613.8552    7151.3797    1915.5959    1342.0627    637.25667 
    8000    259.39553   -161.18298   -127.41877   -161.18298            0    8082.4015     18.32713    22.560962    19.199132  -0.31079234   -7.1755053  -0.22576618    7938.4127    10131.107    7121.5884    6994.5095    437.43906    1171.6984    349.35735 
    8500    267.99345   -163.11475    -128.2314   -163.11475            0    6885.6411    18.288988    22.492422    19.299205  -0.01755111   -7.1270987  -0.24527985    7938.9909    8022.0447    7418.1336    5216.7449   -1444.5338     1272.335   -1428.3441 
    9000    280.17343   -161.81857    -125.3498   -161.81857            0    4181.6539    18.086864    22.591748    19.474464   0.42260173   -6.9139962 -0.058322276    7957.5365    4352.8275    3150.4284    5041.7057   -1147.7323   -3017.8382   -1021.2119 
    9500    271.73555   -161.08479   -125.71434   -161.08479            0    6831.8868    17.981238    22.609944    19.529031   0.55209676   -6.7672209  0.057476545    7939.6208     4808.845    6950.9399    8735.8756   -3069.5976    3205.9202   -783.01993 
   10000    270.17904   -160.29419   -125.12635   -160.29419            0    7309.6765    18.020423    22.710657    19.419314   0.29102419   -6.6846889   0.10088145    7947.4638    8126.1352     8396.317    5406.5773   -1043.8143    2877.2968   -2049.9848 
   10500    275.86229   -159.48516   -123.57756   -159.48516            0    5798.3759    18.182904    22.813593    19.284138  -0.14569654   -6.6856842  0.052219409    7999.3958    4099.4141    5915.0245     7380.689    1008.7751   -1951.9729    -2364.022 
   11000    275.08217   -161.46724   -125.66118   -161.46724            0    4805.2726    18.200489    22.687104    19.156216  -0.38746807   -6.7384924  0.042825899     7909.915    2741.8394    5270.7206    6403.2578    924.67552   -2583.5841    2951.1838 
   11500    254.08786   -160.13523    -127.0619   -160.13523            0    7054.9686    18.069178    22.737708    19.312866  -0.34625304   -6.8127587  0.088670926    7934.7236     8334.564    6026.9207    6803.4212   -2402.1019    -1499.059   -2672.2901 
   12000    268.15374   -160.20594   -125.30172   -160.20594            0    4610.8786    17.942486    22.750654     19.50542 -0.051151284   -6.9737443   0.12822801    7962.1768    7238.8103    4269.7382    2324.0872   -2408.1442    1747.2235    1648.9623 
   12500    273.44992   -160.57348   -124.97988   -160.57348            0    7547.7964    17.999748    22.704541    19.467587   0.19618112   -7.0787867   0.11056694    7955.9358    9629.5763     10257.29    2756.5231   -867.42642    3222.5381    173.91681 
   13000    269.83072   -159.66997   -124.54747   -159.66997            0    5950.1359    18.216225    22.673404    19.261806   0.27798975   -7.1197225 -0.008686226    7955.5851    4393.6947    5904.7026    7552.0104   -382.09616   -5.3452199    1401.4767 
   13500    266.78374   -161.79563   -127.06973   -161.79563            0    2202.9506    18.333333    22.541712    19.184616   0.10126259   -7.1217981  -0.15422738     7928.325    1614.9374    2504.2422    2489.6721    424.47053   -299.56307    1621.6679 
   14000    262.86199   -162.25807   -128.04265   -162.25807            0    5985.8361    18.260367     22.51409    19.429231  -0.18565469   -6.9366702  -0.19441477    7987.6591     3258.017    5860.2777    8839.2137     325.0817    1837.6006    2710.6654 
   14500    262.72952   -163.33617   -129.13799   -163.33617            0    9274.2237     17.92884    22.380977    19.610775  -0.27937372   -6.6301814  0.061390546    7869.1169    8709.2917    11555.023    7558.3566   -458.49574    536.40456    1117.8056 
   15000    283.77158   -163.26163   -126.32451   -163.26163            0    4670.2407    17.987029     22.56028    19.631395   -0.1537385   -6.5328808   0.28914171    7966.2712    5030.4948    5010.3939    3969.8333   -1629.0673    645.26564    -2259.398 
   15500    279.21853   -162.78645   -126.44198   -162.78645            0    3416.2287    18.120362    22.619045    19.404877 -0.084194688   -6.5214894   0.32618525    7953.3851    5706.2522    2099.0875    2443.3466   -369.91563   -880.48773    1283.7813 
   16000    269.69186   -161.23336   -126.12893   -161.23336            0    5915.2972    18.189219    22.583905    19.258523 -0.083037747    -6.609478   0.17203223    7911.0854    2926.4068    4695.5116    10123.973    2204.5572   -478.61379   -741.03672 
   16500    280.18503   -162.51468   -126.04441   -162.51468            0    4725.2894     18.12152    22.715611    19.321287 -0.0051104931   -6.6929407  0.019839196    7953.4418    6350.8259     3064.848    4760.1944   -1653.8172    -2417.034    336.82887 
   17000    272.85706   -161.47777   -125.96134   -161.47777            0    6017.1565    18.040515    22.668838    19.441523  0.021055833   -6.7467885  -0.06676206     7950.757    6809.7936    7259.7232    3981.9526    2382.3143    767.29356    4346.6852 
   17500    265.23055   -161.44982   -126.92609   -161.44982            0    2509.9166    18.002466    22.592874    19.556758  0.061452219   -6.8289094 -0.042945144    7954.2702    2218.0517    3429.7418    1881.9563     1399.155     -407.675    5558.4589 
   18000     268.2359   -163.34815   -128.43323   -163.34815            0    4863.0441    18.044533    22.556428    19.482646  0.031578926   -7.0074697  0.047134498    7929.8309    4761.5872    5373.1611    4454.3841    3667.4544    913.53948    2914.6518 
   18500    262.91473   -162.08851   -127.86623   -162.08851            0    3948.0004    18.246174    22.537771    19.271834 -0.055670764    -7.221534   0.19337866    7925.1196    898.26104    6045.2541     4900.486   -1588.5011    2016.9681   -2698.5321 
   19000    270.63478   -162.29175   -127.06459   -162.29175            0     3928.873    18.334505    22.679892    19.201859  -0.12845407    -7.208696   0.19951624     7984.605   -435.54716    4580.0503    7642.1159    1754.6462    -1519.315    1927.5427 
   19500    276.56547   -162.26477   -126.26564   -162.26477            0     12875.94    18.040738    22.615106    19.229077  -0.16297327   -6.9751461 -0.018317018    7845.3324    15130.071     14018.32    9479.4297   -465.58237    248.04588    1667.3689 
   20000    260.03462   -162.77013   -128.92273   -162.77013            0    4174.8652    17.929751    22.841801     19.56525  -0.10025674   -6.6839741   -0.1465028    8012.9053    5540.6516    3672.4002    3311.5436   -581.96834   -1174.1492    2116.1438 
   20500    268.94509   -162.29092   -127.28369   -162.29092            0    8646.9881    17.836206    22.804246    19.359135  0.034004771   -6.4684823 -0.034432941    7874.1583    11236.979    5443.6338    9260.3513   -3143.3235    866.82164    913.61139 
   21000     272.5687   -162.86834   -127.38944   -162.86834            0    5114.4881    18.072086    22.798428    19.240312  0.078818304   -6.4619583  0.055120471    7927.2996    3777.4262    5661.0029    5905.0351    425.55025   -995.33101    2037.4857 
   21500    271.53021   -164.59684   -129.25312   -164.59684            0    4504.5124    18.192345    22.763834    19.244953 -0.013055522    -6.562599  0.055887389    7969.8648    4583.5741    3253.4388    5676.5243    877.73343   -312.83196    376.33583 
   22000    267.98872   -161.46708   -126.58433   -161.46708            0    8400.5941    18.060844    22.589005     19.32182  -0.14047061   -6.7207408 -0.023888231    7882.8481    6064.1519    7658.5817    11479.049   -2149.5255   -922.52873   -712.78775 
   22500    269.00794   -161.73748   -126.72207   -161.73748            0    4215.5615    18.028824    22.639092     19.60908  -0.16788154   -6.9519891 -0.065665776    8003.5679    7721.9078    3781.9133    1142.8636    160.70771    1428.4201   -1884.2966 
   23000     258.0468   -161.67556    -128.0869   -161.67556            0     7888.944    18.011326    22.524245    19.472833 -0.081169047   -7.1556141  0.037711351    7899.9632    9572.2165    6532.3712    7562.2444    664.36267   -532.88425    787.94686 
   23500    270.28145   -162.14091   -126.95974   -162.14091            0    5045.5078    18.226291    22.595717    19.289199   0.11416564   -7.3405383   0.14776625    7943.9887    4035.4484    5112.8132    5988.2618    2337.1834    1733.7838    356.63568 
   24000    271.81875   -160.31567   -124.93439   -160.31567            0    5423.0848    18.245789    22.780906    19.215601   0.19924893   -7.3199148   0.13413191    7987.0725    6868.9334    2787.6829    6612.6382    2306.4631    1600.6706     2262.203 
   24500    269.37849   -161.04923   -125.98559   -161.04923            0    8047.1596    18.036102    22.850958    19.179521  0.066749616   -7.0195482 -0.016230573    7904.6902    3149.8556    8152.5072    12839.116   -2069.9635    434.14321   -1661.9344 
   25000    275.40489   -161.58717    -125.7391   -161.58717            0     6728.181    17.925801    22.918845    19.339639 -0.098330409   -6.6463316  -0.20687299    7945.4712    6043.4587     4799.771    9341.3132    1287.0723   -394.88121     872.1085 
   25500    272.31475   -161.05617   -125.61033   -161.05617            0    6515.0071    17.974118    22.817399     19.46536  -0.20595982   -6.3735519  -0.21450371    7983.1846    6630.2768    6854.2624    6060.4822   -1848.3499    1337.8805    4365.0504 
   26000    275.54949   -160.42222   -124.55533   -160.42222            0    4445.7655    18.058122    22.572444    19.393689  -0.17091102   -6.2311553  0.061527128    7905.1769    3966.1714    2622.2483    6748.8769    1967.7176   -1838.7861   -2139.7236 
   26500    255.81658    -160.4183   -127.11994    -160.4183            0    6264.8206    18.239735    22.425079    19.491031 0.0054308545   -6.4240534   0.36264085    7972.3678    5701.8399    9544.3161    3548.3058   -1728.9784    -285.2287    566.83992 
   27000    275.92576   -160.29382   -124.37795   -160.29382            0    3681.0071    18.220426    22.394854    19.457829 -0.020540534   -6.7087153   0.39578225     7939.646     3250.505    5126.0392    2666.4771    571.43488   -1139.1523   -767.18221 
   27500    275.95343    -162.0947   -126.17523    -162.0947            0    5561.9964    18.101225    22.557666    19.457531  -0.16753847   -6.9681112   0.18775292    7944.9258    4836.6238    7374.4849    4474.8805   -501.87346    1512.7248   -1787.4398 
   28000     262.3271    -161.4975    -127.3517    -161.4975            0    6732.9689    18.065858    22.700358    19.427291  -0.22287319   -7.1280549 -0.019888542    7967.1599    8593.4306     5589.271    6016.2051    2089.7213   -1374.0752   -125.94253 
   28500    271.38648   -161.54985   -126.22484   -161.54985            0    5720.8121    18.085165    22.821329    19.278699  -0.17629248   -7.1008091  -0.11181279     7956.849     6749.431    2885.0508    7527.9546   -2865.7186    2158.0142    249.06368 
   29000    269.14547   -161.52237   -126.48906   -161.52237            0     2198.109    18.123641    22.868641     19.18963  -0.02856965   -6.9878751 -0.069650661    7953.3921     3172.817    59.418741    3362.0914   -1544.3297   -604.35704   -691.91759 
   29500    278.56019   -160.70662   -124.44784   -160.70662            0     6786.848    18.054095     22.83846    19.287266   0.11328539   -6.7460416 -0.0042095935    7952.6747    11633.936    3742.0375    4984.5699   -527.10521    37.828429   -574.04083 
   30000    275.58364   -158.68248   -122.81115   -158.68248            0    3053.7988    17.994887    22.680882    19.538794   0.14879264    -6.456962  0.040412167    7974.5619    2889.9088    1208.3661    5063.1215    683.81321   -1243.2271    2612.3756 
   30500    275.08908   -160.53103   -124.72407   -160.53103            0    5869.2794    18.001578    22.435322    19.720709  0.045755824   -6.3659463  0.041897834    7964.6263    10026.664    6689.3788    891.79602     787.9708   -1530.1971   -128.51929 
   31000    280.23509   -160.73743   -124.26064   -160.73743            0    7227.0418    18.174396    22.369699    19.568784   -0.1138437   -6.4444968  0.060888761    7955.8017    3324.9159    10753.048    7603.1612    1680.7408    1396.4436     1478.005 
   31500    276.89184   -161.45151   -125.40989   -161.45151            0    6120.8974    18.329871      22.5516    19.259483  -0.28334727   -6.7783168  0.082450589    7961.2525    4789.3991    6908.8314    6664.4617   -676.34272    1131.9132   -229.13596 
   32000    269.79266   -161.64502   -126.52747   -161.64502            0    7440.6397    18.266455    22.815339    19.067869  -0.35631043    -7.090455  0.078547557    7946.6366    6752.4555    8199.0383    7370.4253    -1423.932    2052.1638   -2501.3554 
   32500    268.36834   -160.68292   -125.75076   -160.68292            0    6775.0353    17.993097    23.033814    19.230555  -0.18461465   -7.1557628  0.060696156    7970.0966    7563.7067    4797.5175    7963.8819    677.56983   -771.29329    -649.4275 
   33000    268.56998   -160.36349   -125.40509   -160.36349            0    6250.2865    17.861694    22.922511     19.40035  0.046648478   -7.1374496  0.057329249    7943.1796    9682.6461    7313.9546    1754.2588    3379.1017    3023.7619    1509.0208 
   33500     270.9806   -162.06089   -126.78871   -162.06089            0    8240.5342    17.933929    22.842964    19.399704    0.1688978   -7.0420553  0.018849917    7947.3621    8666.6845    6195.8643    9859.0539    288.72539     520.5329    1099.1552 
   34000     264.6729   -162.94778   -128.49664   -162.94778            0    7580.0337    18.150053    22.646517    19.256788    0.1705851   -6.8936353 -0.053283909     7915.223    5947.9846    6786.9378    10005.179    1352.4084   -126.16009    3409.6524 
   34500    261.65157   -163.68658   -129.62872   -163.68658            0    2452.8065    18.265339    22.550029    19.282763  0.079203981   -6.7551909 -0.056030168      7942.26    1725.4246    2150.4016    3482.5933    2211.0053    461.97747    871.58005 
   35000     258.1902   -163.33141   -129.72409   -163.33141            0    8007.1471     18.11941    22.548353     19.41222  -0.12459263   -6.5931446  0.042175781    7931.1118    7311.3912    10076.512    6633.5377    279.23544    -1463.536    1785.6876 
   35500    266.34676   -162.70866   -128.03965   -162.70866            0    7543.5908    17.959731    22.558588    19.496644  -0.22476443   -6.5366074   0.21099467    7898.9904    9440.4709    7489.1707    5701.1308    481.26569   -791.33759   -245.22289 
   36000    273.96532   -163.16507   -127.50438   -163.16507            0    3826.0561    17.970333    22.753905     19.56255  -0.18920107   -6.7369949   0.31285551     7999.034    4350.4284    4866.6075    2261.1323   -1150.1113   -2506.7946   -3887.2508 
   36500    272.68618    -162.1386   -126.64441    -162.1386            0    8690.3958    18.055017     22.73844     19.27039   -0.1467599   -7.0330503   0.19928278    7911.3224     9156.066    7453.8147    9461.3067   -209.84523    1571.7549    1740.8384 
   37000    272.23294   -162.42942   -126.99423   -162.42942            0    6977.8651    18.235827    22.763218    19.065681 -0.062166747   -7.2674405 -0.098031221    7914.2806    5769.9934    8324.8723    6838.7295    -1054.534    956.57686    4175.8209 
   37500    268.38698    -162.2758   -127.34122    -162.2758            0    7063.0561    18.241021    22.845993    19.236933   0.05680963   -7.2833017  -0.24908722    8016.6887    5545.1628    7083.5782    8560.4273    1431.0366    1112.5966    1413.2141 
   38000    268.57657    -160.2854   -125.32614    -160.2854            0    5405.8247    18.002645    22.656682    19.418271   0.15620768   -7.0614733  -0.11760875    7920.3282    5562.2848    1713.4577    8941.7315    1693.8522    1289.8453    4085.8152 
   38500    265.62848   -160.84421   -126.26869   -160.84421            0    5101.0154    18.010398    22.571595    19.587516    0.1769613   -6.8098226  0.057288432    7962.7836    7739.6295    3488.9614    4074.4553    -748.3049    810.91077   -737.48271 
   39000    261.11487    -161.6636   -127.67559    -161.6636            0    3656.5942    18.139023    22.398675     19.50234 -0.0026433796   -6.6295885   0.13547069    7923.6074     2782.852    5013.5847     3173.346    43.256262   -2001.8133   -1274.3752 
   39500     274.5458   -161.57502   -125.83878   -161.57502            0    10255.003    18.263738    22.410565    19.322056  -0.20298434   -6.6056087  0.072484124    7908.5309    8426.2704    10976.764    11361.973   -257.35599   -339.84395    1043.5435 
   40000    273.51017   -162.68728   -127.08584   -162.68728            0    2693.0328    18.285389    22.619049    19.346324  -0.30852294   -6.6942569 -0.0014320445     8001.603    2007.5896    4208.0383    1863.4704    1547.1336    2495.9478   -945.66084 
   40500    271.46387   -162.85983   -127.52475   -162.85983            0    6993.6203    18.014373    22.694112    19.349489  -0.28026279   -6.7571637  0.026417494    7910.4622     10662.93    7711.9853    2605.9458   -1136.2737    637.53247   -2345.6429 
   41000    268.81992   -162.54195   -127.55102   -162.54195            0    4573.7974    17.937944    22.886185    19.377316 -0.066498752   -6.9236549   0.16959528    7954.9914    4527.5948     4362.916    4830.8814    3218.6204    242.76387    1000.3856 
   41500    269.64256   -161.64173   -126.54371   -161.64173            0    8209.1481    17.988271    22.897341    19.227115   0.17181578   -7.1103588   0.20154594    7919.3325    11914.358     8493.095    4219.9917   -2788.8829    2990.2516    989.48087 
   42000    274.21824   -162.67229   -126.97868   -162.67229            0    3771.1372    18.181846    22.825946    19.190507   0.24452394   -7.2310116  0.064319379    7964.4027    2332.9495    4663.2483    4317.2137   -2774.5871    826.25936   -558.26133 
   42500    272.93418   -161.22452   -125.69806   -161.22452            0    4671.4714    18.142649     22.56603    19.330501  0.096306958   -7.1336796   -0.1796209    7914.0532    3085.7515    7982.3381    2946.3247   -890.23634    1346.9501     60.77734 
   43000    267.34562   -160.42027   -125.62124   -160.42027            0     5382.169    18.162186    22.410857    19.632751  -0.13113605   -6.9198726  -0.25221797    7991.1216    6924.7636    4324.9973    4896.7462    2560.9151   -454.55609    1441.5375 
   43500    266.92026   -161.02857    -126.2849   -161.02857            0    9556.0745    18.046201     22.35657    19.557561  -0.18899179   -6.6604982 -0.048183689    7890.5205    9288.7235    11085.607    8293.8931    984.00009    1374.7467   -1495.5815 
   44000    267.72098   -161.54424   -126.69635   -161.54424            0    3873.1023    18.236057    22.555299    19.448013  -0.10976549   -6.5660475   0.20120715    7999.3509    4206.7914    2628.9035     4783.612    2349.2185   -1709.3325   -4084.3678 
   44500    265.48816   -160.89525     -126.338   -160.89525            0    7659.7584    18.157289    22.650611    19.229648 -0.079152326   -6.4872234   0.22137391    7908.6484    8524.9049    6323.3646    8131.0057   -1590.6889    1390.5988    1345.6221 
   45000    272.68715   -164.26476   -128.77044   -164.26476            0    6268.7959    17.985872    22.908755    19.292346  -0.10527348   -6.4311471  0.040774276    7949.1011    6888.3507    6983.1927    4934.8442    1009.7916    954.01641    273.03208 
   45500     265.3629   -162.12546   -127.58451   -162.12546            0     3281.334    17.822771    22.996654    19.350472  -0.10738609   -6.5323206  -0.24310338    7931.0641    2199.2166    4094.3081    3550.4773    2904.9723   -583.39524     1644.514 
   46000    274.07954    -162.9253   -127.24974    -162.9253            0    4205.2326    17.878849    23.006628    19.292719 -0.021323089   -6.7437658  -0.34013984    7935.7129    5888.2593    4176.4422    2550.9963   -215.36454   -2000.4922    3871.3667 
   46500    273.00602   -162.73703   -127.20121   -162.73703            0    5642.9006    18.149654    22.821905    19.187829   0.07763293   -7.0540336  -0.15838448    7947.7845    6669.1454    4739.1548    5520.4015    1060.3634    71.150325    1577.0389 
   47000    274.63421   -162.97234   -127.22458   -162.97234            0    3942.4745    18.267525    22.592867     19.23157   0.12303342   -7.2108361  0.031807171    7937.1721    908.00328     4126.494    6792.9264   -84.902489    980.58513   -4144.6274 
   47500    276.36894   -161.52287   -125.54931   -161.52287            0     5115.299    18.220047    22.467741    19.420048  0.061737999   -7.1784598   0.10099994    7949.8549    7088.5872    3342.7294    4914.5804   -1266.9546    1548.7482   -1795.1636 
   48000    270.41893    -161.5607   -126.36163    -161.5607            0    4021.8599    18.143719    22.539156    19.543599 -0.086403915   -7.0055577  0.064594828    7992.2399    5076.4661    4648.2568    2340.8567   -445.62266   -347.03568   -27.974498 
   48500    267.89352   -161.30523   -126.43488   -161.30523            0    5367.5354    18.028452    22.686731    19.353563  -0.22702384   -6.7225166 0.0013080848    7915.7359    5455.8603    6289.9903    4356.7555    238.31892     2056.036     3470.835 
   49000    274.36748   -160.63638   -124.92334   -160.63638            0    8606.1707    17.988135    23.008435    19.178652  -0.29932786   -6.4607575 0.0081997164    7937.6382    8978.2986    5182.1566    11658.057    887.56829    -2880.144    642.58205 
   49500    294.80901   -159.17558   -120.80177   -159.17558            0    7235.4706    18.017592    23.247015    19.166859  -0.09588093   -6.2643501  0.060641122    8028.1393    8954.4318    6001.0575    6750.9223   -575.06593   -126.98036    1229.7533 
   50000     281.7738   -159.75308     -123.076   -159.75308            0    9119.5346    17.902569    23.048356    19.135073   0.35677114   -6.1928009   0.13458754    7895.6055    10961.089    7229.2727    9168.2421   -2532.1764   -631.43607   -2940.2028 
   50500    267.23882   -161.29042   -126.50529   -161.29042            0    4566.9748    18.087156    22.770223    19.316594   0.55669324   -6.4316027  0.071253377    7955.5118    3362.6426    3774.9284    6563.3536   -1689.1854    651.15423    -2110.185 
   51000    269.74589   -160.51334   -125.40188   -160.51334            0    6965.2728    18.203278     22.42543    19.529969   0.30948652   -6.7834539    -0.146906    7972.4527    2812.7152    8070.3232     10012.78   -1272.8094   -442.70334   -2359.0305 
   51500    272.00437   -161.98633   -126.58089   -161.98633            0     8420.931    18.149511     22.29278    19.571312  0.004687278   -6.9903133  -0.23212064    7918.6127    9116.3774    7726.5409    8419.8745    168.79444     415.5228   -3336.9036 
   52000    264.58371    -163.1163   -128.67677    -163.1163            0    7402.3255    18.127406    22.479406    19.502589  -0.19443029   -7.0404065  -0.13043441    7947.1747    9937.1356     7682.129    4587.7118   -812.48489     2075.499    2511.8069 
   52500    279.64968    -161.6396   -125.23901    -161.6396            0    8249.4799    18.127673    22.708736    19.321543  -0.19484631   -7.0389206   0.08839534    7953.8392    7475.4513    8356.4672    8916.5212   -2604.4434    1650.0906    1126.6741 
   53000    264.56751   -161.26492    -126.8275   -161.26492            0    3982.8478    18.100423    22.820446    19.215774 -0.093373702   -7.0116837    0.2372402    7937.2626    4685.4124    3623.0192    3640.1117    55.632222    2157.4336   -2116.7678 
   53500    265.18812   -160.76269   -126.24449   -160.76269            0    6521.0811    18.081435    22.815748    19.249159   0.06565315   -6.9479625   0.24760924    7941.0767    3446.3818     11514.39    4602.4713    1097.3034    4454.3575   -274.55201 
   54000    266.70775   -160.00964   -125.29363   -160.00964            0    7334.6761    17.958801    22.791432    19.464439   0.18374303   -6.7985692   0.10411781    7966.9271    3708.5986    6704.2892    11591.141   -4650.7752    1567.7401   -651.10925 
   54500    258.58132    -162.1907   -128.53247    -162.1907            0    6381.0865    17.945451     22.59156    19.626856  0.095912862    -6.636113  -0.15739782    7957.0362    8799.3893    6409.6886    3934.1816    1206.7302   -451.57174    -2911.206 
   55000    273.36257   -162.53172   -126.94949   -162.53172            0    4985.0156    18.087733    22.353576    19.472799  0.039843927    -6.530783  -0.21764612    7873.3493    3891.3188    5008.4851    6055.2428    1149.6416    2436.6656    3104.9084 
   55500     263.5307   -163.04088   -128.73841   -163.04088            0    6299.6919     18.37029    22.380019    19.414347  0.076793434   -6.5925583 -0.0025428743    7981.7708    5436.0582    9588.3961    3874.6214   -2945.0869   -436.97972   -628.81842 
   56000    276.30436   -160.80015   -124.83501   -160.80015            0    7470.6476    18.239153     22.44616    19.312198  0.065585848     -6.67154    0.1940833    7906.3936    7209.6234    8571.9143    6630.4052   -467.20237    3.4162777    -1825.878 
   56500    266.68519   -160.87811   -126.16504   -160.87811            0    3797.3307    18.080659    22.678761    19.475669 -0.040125495   -6.8577477   0.18353095    7985.9389     4308.306    3696.1467    3387.5396   -2704.7188    2463.6462    -2907.249 
   57000    277.35791   -162.34271   -126.24043   -162.34271            0    5161.1422    17.944173     22.76904    19.428364  -0.20314897   -7.0412358   0.07124887    7937.8777    3208.7132    7358.2032    4916.5103   -2284.8375    1314.5946   -1483.8507 
   57500    272.63212   -162.33726   -126.85011   -162.33726            0    6424.4322    17.961967    22.869377    19.264924  -0.29425337   -7.1620324 -0.055154403    7913.6262    4828.2088    6284.8451    8160.2426    2420.7167     1258.966    360.27481 
   58000    263.02376   -160.82503   -126.58855   -160.82503            0    5378.2949    18.171527    22.853512    19.227153   -0.2554636   -7.2501836 -0.025035882     7984.714    7237.5361    2868.3079    6029.0408      7.44866    1622.1036      2132.21 
   58500    270.08111   -161.87597   -126.72087   -161.87597            0    8819.4187    18.314407    22.555928    19.144337  -0.12568447    -7.179568   0.12628625     7908.496    5861.9843    8387.2871    12208.985    873.35348    261.30859   -2386.3645 
   59000    276.42099   -161.66517   -125.68484   -161.66517            0    4466.9372     18.30657    22.414247    19.464896  0.054826531   -6.9378497   0.18304918    7986.9911    2766.0827    7731.4775    2903.2514   -1232.0016    1589.0904   -5455.3391 
   59500    278.36981   -161.59803   -125.36404   -161.59803            0    4560.0162    18.096272    22.348105    19.665677  0.084044096   -6.5792693 0.0092794959    7953.1416    6588.4199    2716.0356     4375.593    2537.8101   -108.74441   -274.35876 
   60000    266.65106   -161.89901   -127.19038   -161.89901            0    4652.0777    17.968391    22.362798    19.650503 0.0030172362   -6.3415826  -0.21742463    7896.0342    6567.9298    3011.4815    4376.8219    173.77615   -2978.9726   -1928.3847 
   60500    266.30078   -162.00979   -127.34676   -162.00979            0   -416.05359    18.051326    22.723691    19.388593 -0.028957115   -6.3412725  -0.17970159    7953.0604    1019.3192   -1905.7424   -361.73755    3331.0859   -1689.0082    2071.8326 
   61000    278.13163   -163.17008   -126.96709   -163.17008            0    3461.8122    18.115847    22.923791    19.182889 -0.081483327   -6.4913969  -0.02561402    7966.3452    1549.7747    6297.3148    2538.3471    168.70094    1107.1055    89.944423 
   61500    275.97805   -162.13797    -126.2153   -162.13797            0    2693.8644    18.085208    22.823251    19.179511   -0.1408501    -6.677312  0.082344355    7916.5968    4054.8553    4009.8219     16.91588   -835.97899    967.45695   -1126.6642 
   62000    270.62235   -160.72314   -125.49759   -160.72314            0     4751.831    18.124292    22.723483    19.387883  -0.13268265   -6.9157925   0.12107498    7984.8419    6693.1375    4069.5694    3492.7863    428.74318    606.51035    114.09997 
   62500    266.11982   -161.28782   -126.64834   -161.28782            0    5195.9243    18.079264    22.538311    19.445013 -0.091922058   -7.0915386   0.15977627    7923.3775    5558.9283    5732.7451    4296.0995    689.93175    -1020.331   -3738.9654 
   63000     278.8407   -160.20375   -123.90846   -160.20375            0    5198.8783    18.083531    22.570327    19.487747 -0.0056987269   -7.1622292   0.09974089    7953.9473     5052.715    5503.0886    5040.8314    95.699857     1227.376   -1916.6725 
   63500    275.15094   -162.53596   -126.72095   -162.53596            0    7573.0863    18.147628    22.704005    19.476043  0.044565586   -7.1633956 -0.087054382    8024.5938    8437.9862    6508.8509    7772.4217    1492.6616   -944.94396    377.09792 
   64000       269.88   -160.88873   -125.75981   -160.88873            0    4655.9886    18.113244    22.686487    19.241434   0.07573572   -7.0010888  -0.24184453    7906.8031    5450.3283    3212.0339    5305.6035    1522.3984    1919.5494    871.79138 
   64500    273.01181   -162.19271   -126.65613   -162.19271            0    7349.6917    18.130164    22.845907    19.301801  0.098912767   -6.8057492  -0.17086304    7994.8071    6658.3207    5809.8682    9580.8861    1643.6419    284.09701    2732.5682 
   65000    261.31226   -162.61776   -128.60406   -162.61776            0    1952.0731    18.025603    22.729168    19.385835   0.10444684    -6.548267   0.13772666    7942.5114    805.01409    1412.8757    3638.3296    353.44408   -4003.3209   -1133.9622 
   65500    269.86066   -162.33053   -127.20413   -162.33053            0    6323.8326     17.95454     22.56469    19.431025 -0.024789498   -6.3760849   0.43171234    7872.2588    8540.4437     4892.497    5538.5572   -2720.9461   -2066.2809   -698.15688 
   66000    277.36836   -160.41411   -124.31047   -160.41411            0    6731.4421    18.207937    22.562974     19.56964  -0.23113784   -6.5098415   0.33948833    8039.7014    4393.4036    7902.8372    7898.0855   -2776.2109   -1927.7499   -1283.6592 
   66500    277.60792   -160.61975   -124.48492   -160.61975            0    5880.1269    18.248299    22.477103     19.43323  -0.37825332   -6.6343004  -0.01486785    7970.9067      3772.06    7325.7234    6542.5974    3946.7521    2196.8599    2095.4153 
   67000    268.62237   -162.10873   -127.14351   -162.10873            0    5190.3873    18.166383    22.490036    19.299532  -0.31011109   -6.7902414   -0.2292529    7885.0671    2765.4914    3253.6735    9551.9969    755.12096   -3895.6654    1219.5014 
   67500    271.69648   -161.90486   -126.53949   -161.90486            0    7054.0343    18.156878    22.722716    19.453294 -0.047802337   -6.9647799  -0.21490746    8025.9154    4721.0584    9792.9087    6648.1359   -475.27857   -2285.0429    846.57754 
   68000    261.42507   -161.22811   -127.19972   -161.22811            0    8360.2559    17.986549     22.67781    19.379293   0.20020739   -7.0051949 -0.095901867    7904.7272    9738.8889    8422.7995    6919.0792   -664.47496    1211.4832   -1167.4632 
   68500    269.46983    -160.9358   -125.86027    -160.9358            0    2231.4235    18.059464    22.693292    19.423346   0.19506751    -7.020735 -0.014421124    7960.2448    2135.9939    5278.4953   -720.21882    454.52304    1905.4959   -2000.6884 
   69000    266.94466   -163.25855   -128.51171   -163.25855            0    6333.1424    18.079886    22.738322    19.424242  0.025401956   -6.8744247  0.043577923    7985.4278    6578.5944    7447.4449     4973.388   -442.97645    366.46574   -1319.2864 
   69500    272.62564   -163.31339   -127.82708   -163.31339            0    5704.4861    18.068813    22.640011    19.281961  -0.19102516   -6.6727467    0.0961746    7887.8285    2735.3309    5502.6088    8875.5186   -2917.9772   -1546.7442    1264.2011 
   70000    265.16551   -161.48537   -126.97011   -161.48537            0    4291.0862     18.24621     22.69427    19.299524  -0.50583756   -6.4700503   0.18447134    7991.6322    3161.9261    3623.6889    6087.6435    150.24215   -3441.1607   -452.93387 
   70500    266.15058   -162.60297   -127.95949   -162.60297            0     9288.048    18.110857    22.558827    19.308605  -0.58902442   -6.1879792   0.26952896    7888.7178    10939.179    9117.4051    7807.5596    1116.4138   -390.72454    635.31478 
   71000    263.13196   -161.26282   -127.01226   -161.26282            0    10140.615    18.032815    22.575834    19.466446   -0.3103721   -6.1391177   0.24817412    7924.9037    6799.0052    12024.187    11598.653    1081.1646    200.69917    3640.3848 
   71500    267.99214   -161.96188   -127.07869   -161.96188            0    6541.6618    18.035982    22.735426    19.607445   0.17655876   -6.3199688   0.10096194    8040.1452     7603.856    3412.3554    8608.7742    22.608135   -2182.2894    -1546.456 
   72000    287.88874    -160.1903   -122.71727    -160.1903            0    6306.9723    17.997754    22.548226    19.396065   0.45010437   -6.5631444  -0.10760609    7871.2612    8111.9496    5695.0641    5113.9033   -1061.8829   -1174.7361    4414.4903 
   72500    275.37487   -162.55379   -126.70962   -162.55379            0    4912.6929    18.171992    22.657191    19.470329   0.40213612   -6.8974837  -0.25903307    8016.4462    5742.8634    4848.9265    4146.2888   -2408.2761   -1237.9342    891.14154 
   73000    263.12651   -162.01357   -127.76371   -162.01357            0    5995.7967    18.136843     22.59566    19.360623   0.15999893   -7.0995134  -0.26553568    7934.2529    5340.4135    5185.9712    7461.0053    1413.2319    1981.7719    1191.4141 
   73500     270.0215   -161.40027   -126.25293   -161.40027            0    6506.2403    18.158593    22.529913    19.368709 -0.028320347   -7.1721386  -0.03421697     7923.962    5047.5535    6941.7278    7529.4395    274.31396   -870.39733   -1558.8902 
   74000     266.8323    -162.2341   -127.50188    -162.2341            0    7271.7966    18.160292    22.633191    19.463337  -0.18489596   -7.1609776   0.18460595    7999.9252    6624.0512    8980.0406    6211.2978   -776.16943   -568.57166    2259.5125 
   74500    274.92872   -163.02892   -127.24283   -163.02892            0    6359.9991    18.020792    22.705619    19.333823  -0.26765984   -6.9958455    0.2568863     7910.883    7960.1807    2426.2274    8693.5892   -1448.3475      409.787    2831.1602 
   75000     272.2978   -160.96288   -125.51924   -160.96288            0    6273.8127    18.066151    22.868144     19.32336  -0.20827216   -6.7854873   0.15987903    7983.2399    4394.4184    7268.4605    7158.5592   -692.55449    1075.6867   -1911.7901 
   75500    269.86999   -162.90978   -127.78216   -162.90978            0    8090.8678     18.05617    22.827936    19.259278  0.012585005   -6.5179738 -0.099748908    7938.3872    10703.579    5917.4557    7651.5683   -515.82911   -455.73629    4019.7367 
   76000    267.35525   -161.14411   -126.34382   -161.14411            0    9933.6207    18.030658    22.738287    19.291594    0.2864253   -6.3451649  -0.30757803    7909.2889    12266.231    7820.4384    9714.1928    981.40562   -3799.6461    2095.8241 
   76500    262.40826   -164.64513   -130.48877   -164.64513            0    5302.4335    18.059768    22.683367    19.455894   0.41196208   -6.4289433  -0.33394015    7970.2306    7164.0985    4228.8677    4514.3342   -3398.5423   -2443.4319    -3278.297 
   77000    261.14172   -163.51949   -129.52798   -163.51949            0    7839.2437    17.999768       22.528    19.466304   0.41745245   -6.6540435 -0.097864736    7893.5624    9533.4575    6552.4963    7431.7771    242.57477   -700.10935    11.880442 
   77500    270.10479    -162.1609   -127.00272    -162.1609            0    7270.0794    18.111759    22.587301    19.404104  0.035400556    -7.094203   0.20125009    7938.1363    7513.6198    6859.8653    7436.7531    735.93256   -208.03837    1584.0905 
   78000    283.57843   -160.89086   -123.97888   -160.89086            0    5482.6477    18.206937    22.691057    19.353705  -0.37098592   -7.3660813   0.29746853    7995.6858    7989.0259    3187.6295    5271.2878    1106.0983   -463.50865   -1760.1189 
   78500    263.88065   -162.81627   -128.46825   -162.81627            0    5334.2569    18.163254     22.62627    19.340872  -0.41657052   -7.3275952   0.23875387    7948.4543    2271.5393    7294.2537    6436.9777    3807.1361    2902.6466    3209.5254 
   79000     263.2476     -162.155   -127.88938     -162.155            0    8856.8403    18.092491    22.621253    19.387795  -0.18326324   -7.1054933   0.14544284    7934.9358    8585.5557    9549.6904    8435.2748   -1450.7761   -369.37456   -1079.2192 
   79500    266.23271   -161.07678   -126.42261   -161.07678            0    5439.0423    18.055587    22.688833    19.454029   0.17007581   -6.8065067  0.039212737    7969.5413     5953.724    4875.4135    5487.9894   -79.774843    257.48082   -936.60894 
   80000    273.00515   -160.88332   -125.34762   -160.88332            0    3518.4863    18.009862    22.678367    19.411549   0.40205734    -6.544178 -0.084599702    7928.3414    1713.6628    1157.6793    7684.1168   -860.67471    -749.8038    2872.9336 
   80500    274.98136   -162.02676   -126.23382   -162.02676            0    2929.0258    18.104306    22.722384    19.421627   0.36875288   -6.4097345  -0.19714832    7989.5327    2038.9519     4112.246    2635.8796   -1689.1529    -251.5128    2980.6693 
   81000    267.21985   -160.96185   -126.17919   -160.96185            0    7160.3194     18.09768    22.649646    19.399255   0.18249107   -6.4177308  -0.12872599    7951.8718    10035.808    7172.4468     4272.704   -2876.8697    -1788.079   -239.07901 
   81500    264.48152    -161.5276   -127.10137    -161.5276            0    5061.1014    18.017984    22.591611    19.420293  -0.10621468   -6.5229276   0.10462867     7905.133    4185.3656     5274.745    5723.1935    2041.3642    -1497.101    842.79675 
   82000    265.00435   -162.07333   -127.57904   -162.07333            0    4397.9775    18.007568    22.646266    19.549441  -0.34177742    -6.815423    0.2653715    7972.3438      4002.57    5320.9654    3870.3972    701.26074    1553.2064   -3913.8444 
   82500    278.82317   -160.85075   -124.55775   -160.85075            0    6891.3426    18.030298    22.590565    19.484059  -0.43089066   -7.0895499   0.29503772    7936.1422    11198.438    4420.0103    5055.5793    -2746.508    786.01145   -175.75392 
   83000    269.06646   -161.02741   -126.00438   -161.02741            0    6494.1376      18.1789    22.713078    19.284232  -0.28366205   -7.3025646   0.18773814    7962.4358    3904.2856    6623.2138    8954.9133     540.5764    1856.9663   -666.82962 
   83500    268.29444   -160.88576   -125.96322   -160.88576            0    3594.1234    18.270987    22.777892    19.131373  0.063542484    -7.318709 -0.035372112    7961.9909    5340.2283    2699.2482    2742.8938   -459.53813    1423.5785    996.19865 
   84000    273.32255   -159.75285   -124.17583   -159.75285            0    8430.3972    18.116047    22.791794    19.230885   0.33204519   -7.0834612  -0.24371556    7940.3786    6887.7469    10007.415    8396.0302   -3660.3631   -893.02784    20.080147 
   84500    267.91773   -160.87256   -125.99906   -160.87256            0    9902.5212    18.008336    22.843398    19.412643   0.28679343   -6.7972222  -0.30093935    7985.8098    9337.4306    9181.6456    11188.488   -1456.3353    -520.7186    1052.9993 
   85000    267.50362   -161.73411   -126.91451   -161.73411            0    4666.4828    17.955097    22.754076    19.448777    0.1188586   -6.5415174  -0.10183349      7945.83    8630.2425     4290.453     1078.753     462.8652    1604.7847    683.95692 
   85500    267.12854   -159.67273   -124.90195   -159.67273            0      9695.02    17.987051    22.742814    19.352992 -0.027510955   -6.4642512   0.14296431    7916.8475    11873.428    11530.007    5681.6246   -1789.8683    841.09196    449.10775 
   86000    270.43123   -160.92017    -125.7195   -160.92017            0    4617.3916    18.157626    22.753747    19.375753  -0.22287882   -6.6023845   0.27814838    8005.1705    2692.5233    4039.9222    7119.7291    1036.1641    -1542.472    1240.5656 
   86500    266.81201    -161.5691   -126.83952    -161.5691            0    6309.2407    18.119724    22.634021    19.330728  -0.36536815   -6.7938473   0.30796411    7927.9612    7629.7127    7532.0242    3765.9851   -926.45577    312.37056   -496.75357 
   87000     263.9057   -162.22561   -127.87433   -162.22561            0     5877.367       18.053    22.649216      19.4043  -0.32402571    -7.021089   0.27215353    7934.1523    7850.1005    3005.6031    6776.3976   -969.46693    1157.3504   -4029.9595 
   87500    261.88444   -160.87658    -126.7884   -160.87658            0    5563.4512    18.003484    22.698947    19.554771  -0.12098691   -7.2474134  0.086886362     7991.255    5365.1879    7673.0679    3652.0977    2213.3709    566.19815    3386.9169 
   88000     265.9574   -160.26932   -125.65099   -160.26932            0    4769.0378    18.025925    22.672836    19.416011   0.21367237    -7.350738  -0.19695008    7935.3016    8604.6201    4620.2455    1082.2479   -1567.6487    971.13442    1097.1978 
   88500     265.0113   -161.76752   -127.27233   -161.76752            0    5863.1229    18.222521    22.748463    19.203928   0.50481038   -7.2833343  -0.45036208    7960.6876     5220.952    3460.4853    8907.9314     22.47033   -39.330736   -98.493705 
   89000     256.2966   -162.75109   -129.39025   -162.75109            0    2937.3354    18.228182    22.697195    19.216079   0.47566267   -7.0349061  -0.38630441    7950.2414    834.06318    4377.3345    3600.6086    537.49776   -1689.2929   -709.32129 
   89500    254.64208   -162.19875   -129.05327   -162.19875            0    7788.9177    18.045363    22.650829    19.327318   0.18442005   -6.6969954 -0.092449347    7899.8951    6761.9487    10460.428    6144.3765   -1497.1972    1198.9936    378.25624 
   90000    260.47109   -162.98051    -129.0763   -162.98051            0    4400.5459    17.997757    22.693803     19.48333  -0.10818801    -6.531736   0.14738288    7957.7237    2947.0152    4655.1471    5599.4753    1159.6133    90.035158    3375.1034 
   90500    265.48461   -160.80954   -126.25275   -160.80954            0    4490.3052    17.978278    22.703804    19.434641  -0.26096063    -6.514048   0.20680829    7932.7404    5595.5799    5780.5916    2094.7443    1870.0964   -2167.9818    853.43708 
   91000    265.14561   -161.39327    -126.8806   -161.39327            0    2721.7943      18.1225    22.718174      19.3719  -0.22510445   -6.7222739   0.11489823    7975.6071    7035.4792    2902.3197    -1772.416   -1957.6691    195.11659    202.14938 
   91500    249.77779   -162.40324   -129.89092   -162.40324            0    7181.6286    18.214634    22.617935    19.263782 -0.010084568   -6.9861695  0.030561597    7936.2427    4067.2332    8165.4047    9312.2479   -978.18787   -1214.4552    430.39511 
   92000    272.37146   -163.12269   -127.66946   -163.12269            0    7238.2636    18.177419    22.502266     19.32023   0.16125839   -7.1709535 -0.022075128    7902.6139    7616.0213    7032.9592    7065.8104   -435.84931    1082.2815   -190.46854 
   92500    266.44436   -162.38671   -127.70499   -162.38671            0    3621.9849    18.074469    22.631866     19.55648   0.22503057   -7.2292336  -0.10662343    7999.7537    2510.3594    3417.9613    4937.6339    797.50986    1177.8387    3769.7746 
   93000    272.21049   -161.82536    -126.3931   -161.82536            0    7442.6415    17.895454    22.587401    19.465505   0.17216047   -7.0845714  -0.17036709     7868.187    10865.478    7058.1317    4404.3142   -514.78527    1106.7635    743.98944 
   93500    263.11839   -162.88723   -128.63843   -162.88723            0    4769.7399    18.136755    22.765486    19.341782  0.019648363   -6.9219493 -0.033899818    7986.0679    4181.9416    4289.4784    5837.7997   -3244.5887   -1871.6447    -566.6384 
   94000    259.17578   -161.56683   -127.83122   -161.56683            0    5941.6481    18.206738    22.824446    19.108616  -0.13373836   -6.7254865   0.19281431    7940.7518      1958.65    5043.8583    10822.436    3057.8936   -1744.4028     140.8544 
   94500    270.33908   -162.57687   -127.38819   -162.57687            0    8308.7446    18.095404    22.735368    19.237036  -0.22103824   -6.5662464   0.21223886    7914.2255    6761.5363    7218.2781    10946.419     231.7412    332.46077    3160.8636 
   95000    252.49613   -162.40667   -129.54052   -162.40667            0    5023.9394    17.973855    22.689223    19.522567  -0.18865767   -6.5409496  0.074754489    7961.5528    2487.4591    5357.5264    7226.8329    3366.0878   -360.04319    54.768221 
   95500    270.31015   -161.87196   -126.68705   -161.87196            0    7099.3178      17.9616    22.666382    19.498767 -0.072836249   -6.5817402 -0.076021953    7938.4257    9457.5158    6729.9188    5110.5188    1819.3613    -823.2564    3422.1334 
   96000    272.49936   -160.87087     -125.401   -160.87087            0    7149.8755    18.142431    22.599034    19.340798   0.12150979   -6.7369421  -0.14342731     7929.755    8294.1549    6158.8488    6996.6229   -3406.7507   -1583.1667   -2450.4163 
   96500      267.969   -160.86777    -125.9876   -160.86777            0    7281.9463    18.287814    22.620157    19.265873   0.28866011   -6.9449029 -0.069533846    7969.7756     7790.549    7936.0648    6119.2252    934.98193    1226.4238    3411.5513 
   97000    271.90566   -162.05211   -126.65952   -162.05211            0    5786.1475     18.26193    22.646177    19.310943   0.20249639    -7.110427  0.090791194    7986.2895    6006.2416     5471.487     5880.714    1784.8149   -1287.6032    185.10159 
   97500    274.90865   -162.12836   -126.34489   -162.12836            0     4907.064    17.922271    22.621886    19.476526  -0.17671637    -7.176375   0.21046609    7896.4762    4369.7348    5079.1599    5272.2973     873.1575   -394.17494   -619.49802 
   98000     259.0394   -162.13426   -128.41641   -162.13426            0    5742.6203    17.930177    22.860401    19.517073  -0.58341547   -7.2180474   0.18021514    7999.8734    6671.3617    5636.4654    4920.0337    808.15147    3493.8597   -341.13908 
   98500    272.30349   -162.68262   -127.23824   -162.68262            0    4987.5001    18.093004     22.88717    19.210023  -0.68785811   -7.1308968   0.15657155    7954.8254    4517.3876    4746.1851    5698.9275     1273.776    249.62923   -1228.6524 
   99000    269.21969   -162.21856   -127.17559   -162.21856            0    6635.7801    18.198147       22.735    19.110045  -0.35992975   -7.0075698   0.11833674    7906.4919    3792.9813    7029.2058    9085.1532    1540.9292   -1705.2878   -1484.0999 
   99500    272.25096   -160.53412   -125.09658   -160.53412            0    7114.9966    18.220199    22.717823    19.317672 -0.0013492177   -6.9179462   0.10593238    7996.0333     3852.352    8976.6103    8516.0274    3090.9876    736.60176    2492.0094 
  100000    263.51497    -161.2538   -126.95338    -161.2538            0    5629.2204    18.082053    22.626954    19.458475    0.1253271   -6.7814761 -0.012249552    7961.2751    7061.8265    4927.2431    4898.5916   -1072.8473   -599.97448     1450.744 
  100500    271.50728   -161.80082   -126.46008   -161.80082            0    4406.0085    18.031458    22.605597    19.459151  0.094845326   -6.7329939  -0.13342626     7931.781    8916.7051    4666.1749   -364.85461   -1326.0543    405.75002   -1580.4243 
  101000     267.5106   -162.89658   -128.07607   -162.89658            0    5848.0553    18.156648    22.684593    19.392973  0.063687851   -6.7069185  -0.13912236    7987.5034    4884.0529    5541.0602     7119.053   -154.80222   -1761.9536    2506.8998 
  101500    267.73746   -162.25337   -127.40333   -162.25337            0    6902.1027    18.212403    22.614353    19.250452 -0.0079544266   -6.6878225 -0.021486435    7928.5239    2139.3979    7238.6466    11328.264   -156.63264   -277.40186     6.301466 
  102000     270.2699   -162.63229   -127.45261   -162.63229            0    3912.8334    18.150293    22.604975    19.375653 -0.080539322   -6.7232294    0.1521346    7949.5772    2931.9566    2033.9516    6772.5921   -2704.2509   -3332.6377   -361.75049 
  102500    267.94333   -162.27839   -127.40156   -162.27839            0    3111.2057    18.017426    22.750687    19.499486  -0.14938947   -6.8201974   0.40502155    7993.0115    4040.5096    105.30017    5187.8072   -485.01412    -635.4664    -2675.215 
  103000    279.09187   -162.57949    -126.2515   -162.57949            0    7079.0659    17.906165    22.651099    19.477438  -0.20858634   -6.9946511   0.39956465     7899.938    7530.6259    7118.7667    6587.8052    1591.1268    1489.4246   -1057.6532 
  103500    259.17228   -161.86634   -128.13119   -161.86634            0    6418.8716    18.127069    22.684236    19.417018  -0.24019579   -7.2356182   0.04279685    7984.2525    4814.8145    7460.6546    6981.1457    310.22416    1351.6403   -882.24466 
  104000    271.91134   -161.58211   -126.18878   -161.58211            0    6200.7487    18.291248    22.597369    19.239844  -0.13946964   -7.3878876  -0.27303068    7952.4832    7144.2861    6376.7855    5081.1746   -1051.6433    2628.0426    1005.5417 
  104500    266.00632   -162.50431   -127.87961   -162.50431            0    5258.2856    18.218891    22.592019    19.268706   0.12422296   -7.3250904  -0.26934264     7931.029    4377.0955     5917.621    5480.1403   -274.48609    355.91674    1333.4894 
  105000    261.91674   -159.39779   -125.30541   -159.39779            0    5179.7947     18.08478    22.705432    19.478843   0.29700366    -7.087164 -0.027100875    7998.4561    6553.6098    2938.1953     6047.579   -1489.6646    1648.2352   -1652.8364 
  105500     266.5058   -160.03473   -125.34501   -160.03473            0     5556.632    17.964554    22.632311    19.489338   0.19650757   -6.8185387   0.12050144    7923.9627    6252.8682    5785.7228     4631.305   -2087.9867   -1105.7607    -3138.524 
  106000    265.53363   -161.46676   -126.90358   -161.46676            0    2217.5323    18.094725    22.771871    19.463579  -0.10889243    -6.617844  0.038822182    8019.9823    2504.4299    2551.5762    1596.5908    395.14436    200.05732    260.48829 
  106500    270.58923   -161.59357   -126.37234   -161.59357            0     6744.494     18.18146     22.65326    19.311714  -0.26883614   -6.5346097 -0.044197776    7953.9029    5513.4242    7036.0047    7684.0532   -656.14494    -1698.325    2701.3967 
  107000    270.93318    -162.5991   -127.33309    -162.5991            0    5623.3444    18.150882    22.632436    19.327952  -0.21705913   -6.5925515  0.018194685    7939.8972     3918.817    6325.6724     6625.544    4998.7571    24.492543   -934.86912 
  107500    267.66334   -161.16856   -126.32817   -161.16856            0    3586.1038    18.091338    22.809312    19.442557  0.037842327   -6.7123005   0.15303225    8022.9897      3335.35    4874.7316    2548.2299   -3279.7606    244.40332   -2220.8199 
  108000    281.35907   -162.49619   -125.87309   -162.49619            0    7009.4909    17.910904    22.676116    19.353907   0.18170849   -6.8658963   0.10934137    7860.5848    9970.3202    4422.1809    6635.9717   -2088.5091    523.67041   -1453.9597 
  108500    287.13001   -163.10769   -125.73342   -163.10769            0    2446.2799    18.097883    22.881284    19.450881  0.088407684   -7.1063078 -0.096757632    8054.6641    3145.9465    1951.3595    2241.5338    1791.0357    363.86046   -3305.5949 
  109000     253.8466   -159.06886   -126.02693   -159.06886            0    7247.9781    18.188735    22.650911    19.288548 -0.071477973   -7.2424997  -0.29259109    7946.7165    10613.546     6636.599    4493.7897    -1038.889    297.08026    109.88906 
  109500    272.40398   -162.14584   -126.68838   -162.14584            0    4445.4846    18.226536    22.528728    19.284779  -0.12022225   -7.2099477  -0.24263525    7918.7285    441.66651    6365.0257    6529.7616    501.61754    1454.6219    2267.6612 
  110000    271.93242   -162.42782   -127.03175   -162.42782            0     5189.489     18.25839    22.619692    19.452418 -0.0041398588   -7.1094368  0.046855714    8033.8319    5997.3306    4406.2142    5164.9222   -464.73017     802.1221   -297.09394 
  110500    263.33614   -162.12684    -127.8497   -162.12684            0    7671.9241    18.048571    22.558756    19.376644   0.11318285   -6.8520076   0.25285509    7889.2643    7233.5749    8854.0723    6928.1253   -253.38246    327.76683   -3608.1287 
  111000    263.50704   -161.00483   -126.70545   -161.00483            0    4108.5321    18.097159    22.711844    19.442638  0.053644341   -6.7540186   0.19035751    7991.3103    3370.4045    2256.3593    6698.8324    1561.9237    6.0027373    1785.0591 
  111500    280.56347   -163.04716   -126.52762   -163.04716            0    6335.2116    18.094333    22.632665    19.396229 -0.037352641   -6.6657149  0.015035766    7943.2014    4867.8916    8284.6077    5853.1356   -1007.0349   -21.556613    895.85106 
  112000    269.10442   -161.68885   -126.66088   -161.68885            0    5026.1286    18.116294    22.644479    19.314905  -0.13855636   -6.6552175 -0.088408939    7923.6313    663.41374     4568.741    9846.2311   -1116.1117    482.28531   -1733.8902 
  112500    267.73426   -163.35341   -128.50379   -163.35341            0    9261.1514    18.175484    22.650513    19.351836  -0.15487026   -6.7509451 -0.074477699    7966.8415    6215.2972    11541.782    10026.375    861.33267    1789.7343    119.36824 
  113000    268.73216   -162.50847   -127.52896   -162.50847            0    5362.3666    18.040869    22.614778    19.322888  -0.02374097   -6.9407353   0.10596048    7883.5496    6965.1552    4720.7632    4401.1814    1693.3741    1267.3563     452.5383 
  113500    266.98197   -161.58234   -126.83064   -161.58234            0     6231.435    18.033193    22.704232    19.533774   0.14270613   -7.2754673   0.28395253    7997.7092    2170.5018    7572.3267    8951.4767    -808.3688    356.94115   -664.05172 
  114000    268.84886   -161.99789   -127.00318   -161.99789            0    7758.2481    18.031144    22.608247    19.466288   0.11070339   -7.4799503   0.19449145     7935.482    14584.393    5059.1777    3631.1738   -2325.2225     3113.397   -1123.5879 
  114500    267.90023   -160.49264   -125.62142   -160.49264            0    7608.3459    18.246271    22.601721    19.297518 -0.057693132   -7.5315794 -0.091977435    7958.2411    9250.3616    7049.6208    6525.0553    296.76123    753.40372    2195.5075 
  115000    274.28303    -161.6453   -125.94326    -161.6453            0    5208.0218    18.366368     22.61789    19.250724  -0.15436631   -7.2634954  -0.24744611    7996.9143    2369.9156    4394.8125    8859.3374    495.25252    732.43084   -2003.8103 
  115500    266.35059    -160.1992   -125.52969    -160.1992            0    6005.0936    18.180862    22.538519    19.293073 -0.057296856   -6.8250837  -0.15832695    7905.7167    1963.4405    6108.6565    9943.1839    1790.3646   -2139.6863    2698.4879 
  116000    262.90659   -162.51588   -128.29465   -162.51588            0    3159.6282    18.024801    22.710335    19.458034  0.027329677    -6.515766  0.082813648    7965.1322    5745.4147    2030.7036    1702.7662    1688.0487    2304.2256    1211.3474 
  116500    277.29906    -161.5139   -125.41928    -161.5139            0    4851.3991    18.000085    22.620038    19.458718   0.14547099   -6.4737432   0.26277175    7922.8624    4783.1399    4141.3974    5629.6598    1051.0945   -3838.5113    867.65853 
  117000     265.9802   -163.40534   -128.78404   -163.40534            0    5486.9414    18.173486    22.602308    19.407459   0.12776528   -6.6354525   0.24937863    7971.8609    4468.3584    6005.1139     5987.352   -1343.4152    1314.7044   -3777.2466 
  117500     264.0401   -162.49429   -128.12552   -162.49429            0    6025.7003     18.20027    22.507279    19.294404 -0.074106503   -6.8611987  0.073057373    7903.7316    5079.0545    3672.0613    9325.9852   -1590.6734   -2961.1207   -1036.3571 
  118000    268.43391   -163.61975   -128.67905   -163.61975            0    10865.557    18.203636    22.581545    19.299822  -0.21968622   -7.1255057 -0.095424133     7933.505    10803.931    10442.863    11349.878    1959.9133    1452.2553    960.43753 
  118500    277.11831   -162.53894   -126.46784   -162.53894            0    6271.0184    18.088036    22.800357    19.293602  -0.17512923   -7.2734625 -0.099285266    7956.9453    6109.5469    8423.7465    4279.7617    1523.9146     2188.404   -820.08785 
  119000    276.96462   -163.82615   -127.77506   -163.82615            0    6935.1612    18.012786    22.902282    19.241675 -0.083485629   -7.2231011  0.016237964    7937.8434    8318.4661    4711.8631    7775.1544    141.33349    1299.0606   -2494.1597 
  119500    269.61029   -161.03982   -125.94601   -161.03982            0    6664.2208    18.081879    22.948266    19.248604 0.0072418711   -7.0332223   0.16968562    7987.1654    4594.8753     8298.035     7099.752    104.12401    1707.8623   -1954.7986 
  120000    269.34935   -161.60208   -126.54223   -161.60208            0    5797.9537    18.111516    22.745695    19.232623  0.072239223   -6.6433882   0.17615951    7923.0523    6110.7436    4331.1649    6951.9526   -2364.5372   -1404.5173   -3567.2908 
  120500    269.16724   -161.89876   -126.86262   -161.89876            0    7948.5653    18.113663    22.587702    19.368506  0.010749133   -6.2854731  0.039479693    7924.5469    9716.8288    8088.6491     6040.218    1972.8774   -886.29831   -881.51605 
  121000     266.0167   -161.25924   -126.63318   -161.25924            0    7997.4828    18.150719    22.494288    19.528822 -0.078126401   -6.2523596   -0.1261965    7973.3739    4053.4343     7551.355    12387.659    1778.3731   -1176.4153   -962.20669 
  121500    269.38562   -161.75206   -126.68749   -161.75206            0    6471.3325    18.036613    22.424934    19.502396  -0.05519961   -6.4396925  -0.14181798    7888.1311    4280.6532    8398.2742      6735.07   -367.04344    1345.6347    1484.6785 
  122000    276.79952   -161.57418   -125.54458   -161.57418            0    1067.4786     18.10002    22.634244     19.53006  0.022126501   -6.8697661  0.022482204    8001.0805    4820.4852   -2305.4204    687.37096   -1426.5469   -302.63013     1962.328 
  122500    283.56538   -160.78807   -123.87779   -160.78807            0    8694.1213    18.112173    22.670113    19.308814 -0.012824724   -7.2328623   0.17720266    7928.2958    9276.5513    8991.6046    7814.2079   -3296.2851    754.49798   -2018.7106 
  123000    272.92871   -162.04985    -126.5241   -162.04985            0    6680.0786    18.100778    22.816304    19.218616 -0.078101447   -7.3604595   0.20025236     7937.151    6446.9799    4773.8623    8819.3936   -1931.8393    579.79051   -1163.8223 
  123500    278.56324   -162.92418     -126.665   -162.92418            0    4801.2976    18.122395    22.749879     19.30777  -0.16359207   -7.2830184  0.058016923    7960.2515    6612.8667    3690.1672    4100.8588    3909.8806    590.31778   -813.22139 
  124000    268.16293     -161.553   -126.64758     -161.553            0    6872.5109    18.082189    22.642541    19.352458  -0.15088615   -7.0369185  -0.06318415    7923.4133    8555.8269    5987.2724    6074.4333    1582.4554    -980.5132    3678.2177 
  124500    272.47732   -161.02329   -125.55629   -161.02329            0    6529.1379    18.166093    22.604037    19.455291  0.065215226   -6.7917011 -0.075293382    7988.8686    8225.2557    3930.8834    7431.2745   -275.75077   -1540.7909   -569.47169 
  125000    280.10582   -161.31045   -124.85048   -161.31045            0     10272.22    18.135465     22.42089    19.436131    0.2701488   -6.5570047  0.046836336    7902.9886    9096.3919     12377.68    9342.5895   -2423.8453    842.95871   -962.15209 
  125500    280.77562    -162.4022   -125.85505    -162.4022            0    9093.1177    18.188799    22.510175    19.576538   0.22214543   -6.4144887   0.14795316    8015.2815    10274.539    9174.6667    7830.1474   -1047.3334   -121.57727    740.15944 
  126000    272.14826   -161.11903   -125.69486   -161.11903            0    6024.9099    18.079724     22.52721    19.508372  0.053070158   -6.3084825   0.12496107    7945.4818    8176.0348    4382.7856    5515.9091    505.66527   -1483.5669   -1401.4629 
  126500    252.15439    -161.2214   -128.39973    -161.2214            0    8460.2207    18.042405    22.684311     19.30267  -0.20491487   -6.3204359 -0.009975463    7900.1876    5168.4989     9617.032    10595.131   -1494.6157   -1695.1351    1520.6723 
  127000    264.33923   -161.01284   -126.60513   -161.01284            0    6462.7075    18.134618    22.971011    19.219189  -0.44945525   -6.6051809 -0.084480604    8006.1475    3713.7182    4333.6561    11340.748     1547.277   -916.05867    2740.7517 
  127500     272.3798   -161.36216   -125.90786   -161.36216            0    3653.7312    18.006273     22.93374    19.284936  -0.38047988   -6.9602337  0.020620077    7963.7371    4965.9374    4249.6536    1745.6027     639.4727   -200.53624    2145.4499 
  128000    268.60855   -161.90842   -126.94499   -161.90842            0      5050.91    17.936295    22.800976    19.409013  -0.16731238   -7.1992793   0.12616376    7937.6078    8427.5254    3449.6765    3275.5281    2296.5051    1175.1945   -485.94682 
  128500    265.38363   -161.34216   -126.79851   -161.34216            0    2135.0452    18.052887    22.769281     19.47356  0.047299382   -7.3092395   0.11435262    8004.6313     3646.628    2524.7374    233.77043   -2547.3313    1336.7965    2159.9589 
  129000    282.94836   -161.96929   -125.13933   -161.96929            0      3722.85    18.198785    22.540964    19.313094   0.10884179   -7.2074784 -0.055388185    7922.5818    5202.6905    3859.8186    2106.0409   -2900.9113    1615.0206     2822.742 
  129500    270.21239   -160.90127   -125.72909   -160.90127            0    6934.8941    18.345619    22.464939    19.271176  0.037052544   -6.9869003  -0.17257327    7942.2914    6427.7463    7514.7364    6862.1995   -367.17898   -284.76149    1846.4437 
  130000    264.90464   -162.29007   -127.80877   -162.29007            0    5432.4949    18.253815    22.544068    19.376101 0.0024576251   -6.7545565  -0.15372782    7973.5609    8853.2519    3612.1392    3832.0935    231.01864   -2268.9547    1325.7591 
  130500    268.64313   -161.07991   -126.11198   -161.07991            0    5520.5115    18.010417     22.51021    19.506887  -0.04814622   -6.5323982  0.014423428    7908.4481     5983.088    5727.6584     4850.788   -409.13633   -1463.4617    2739.5161 
  131000    261.67955   -162.26673   -128.20522   -162.26673            0    5067.4444    17.941925    22.634644    19.580592  -0.10874292   -6.4830159   0.22861883    7951.8563    4994.2521    6012.0209    4196.0602    553.49215    -2536.798   -2120.5758 
  131500    259.47719   -162.13169   -128.35685   -162.13169            0     6035.455    18.040474    22.744999    19.326228  -0.17630607   -6.6644236   0.31409429    7930.1423    7016.1647    6480.0349    4610.1655   -3042.4149    748.69161   -1676.7953 
  132000    272.25393    -162.5772   -127.13927    -162.5772            0    3609.5699    18.209769    22.859989    19.050743   -0.3233873   -6.9374298   0.13731164    7930.3504    3146.7214    3719.3217    3962.6666   -1109.1876   -1347.5954   -52.384418 
  132500    274.30409   -161.15613   -125.45135   -161.15613            0    7054.8058    18.221797    22.916798    19.100874  -0.23391522   -7.1527226  -0.11007458    7976.2431    6322.4417     6012.185    8829.7906    2384.8006   -1871.9174    1893.2468 
  133000    277.90768   -161.04631   -124.87247   -161.04631            0    6502.5704    18.025659    22.768535    19.369909  0.045860711   -7.2081706  -0.17024753    7949.7565    7461.0736    5395.0423    6651.5952   -2359.3345    510.98731   -1616.6689 
  133500     276.1728   -160.78826   -124.84024   -160.78826            0    2418.9983    17.996589    22.602394    19.590352   0.28132539   -7.1826402 -0.087628255    7968.6892    4436.5094   -322.44445    3142.9299   -2551.6925   -621.70053   -295.73938 
  134000    257.22784   -162.39318   -128.91113   -162.39318            0    7628.5908    18.063229    22.463717    19.471913   0.23117918   -7.0953215  0.018537979    7901.0647    6767.5153    9039.0364    7079.2206   -1488.6957    1202.9935    1579.0842 
  134500    251.76364   -160.22796   -127.45715   -160.22796            0    8003.1261    18.241393    22.573053     19.28708  0.026935623   -6.9321506  0.065564416    7941.7243    5128.0851    8082.9837     10798.31   -109.51025    1027.5739   -2778.2883 
  135000    272.39299   -164.35378   -128.89775   -164.35378            0    4391.8487    18.206411    22.702841    19.288767  -0.12809301   -6.7812581  0.051977335    7972.7662    5329.1021     5137.611     2708.833    2509.6729    470.00467    1927.8622 
  135500    269.75759   -161.80963   -126.69664   -161.80963            0    6079.2987    18.084596    22.715893    19.267613  -0.17396879   -6.6731832   0.02324897    7915.2844    5064.6537    7437.4691    5735.7733   -409.87497    549.26662    3787.4158 
  136000    278.13641   -162.76791   -126.56429   -162.76791            0    5548.0214    18.047203     22.85985    19.325329 -0.087769573   -6.6838661   0.04966484    7972.7872    4894.4876    5323.9024    6425.6742   -425.70103    103.86746   -735.83013 
  136500    272.30856   -161.56145   -126.11642   -161.56145            0      8644.22    17.991373    22.808337    19.339043 -0.021574797    -6.763838  0.065242223    7935.8399    7727.7489    9160.6105    9044.3005    2177.3963    3.1359609   -1826.9298 
  137000    274.34243   -162.57735   -126.86758   -162.57735            0    4229.0568      18.0547    22.717841    19.379248  0.093416836   -6.9882098 -0.013739241     7948.666    6163.9363    4228.8707    2294.3635    507.20003   -781.37575   -903.44012 
  137500    283.63248    -161.4357   -124.51668    -161.4357            0    5839.9856    18.213421    22.731197    19.347005   0.16528664   -7.2899775  -0.27884079    8009.9086    3544.9963    7169.7798    6805.1807   -385.95636    2053.8119    5302.4043 
  138000    260.95312   -160.20209   -126.23514   -160.20209            0    8769.6712    18.287643    22.607017    19.172915   0.11269803    -7.505751  -0.41442471    7926.6402    9580.7034    10594.535    6133.7755   -907.09719    1146.8089    -4157.868 
  138500    276.16487    -163.1182    -127.1712    -163.1182            0    4372.2615    18.305018    22.663803    19.292481 -0.022942612   -7.4338152  -0.24574138    8003.7041   -234.21155    9795.6028    3555.3933   -2437.3458    3909.2862    2348.9404 
  139000    261.02524   -162.69001   -128.71367   -162.69001            0    6403.8521    17.986769    22.685537    19.406998  -0.17642301   -6.9727294   0.21132483    7918.8217    6068.5797    5167.5246    7975.4519    2806.8326   -1673.4483   -3582.4246 
  139500    265.37064   -162.46613   -127.92417   -162.46613            0    7183.3437    17.925329    22.729526    19.410256  -0.30296435   -6.6659473   0.38720199    7908.4026    6229.0818    7343.7585    7977.1907    631.23234    277.43462   -550.02262 
  140000    264.35097   -160.73568   -126.32644   -160.73568            0    2516.4748    18.084362    22.790088    19.350879    -0.328979   -6.5791019   0.24383265    7975.3522    1008.8239    2786.6258    3753.9747    2535.9137   -160.83618   -10.261816 
  140500    283.45791   -161.66184   -124.76555   -161.66184            0     4821.182    18.125159    22.719863    19.311387  -0.16142664   -6.5595728 -0.0023951398    7952.4511     5470.778    4111.6761    4881.0919   -1447.8353   -499.46398   -518.97032 
  141000    274.96792   -162.46942   -126.67823   -162.46942            0    7304.4859    18.140435    22.614384    19.357492   0.13246373   -6.6489467  -0.15083022    7941.1165    6000.3421    8340.1641    7572.9516    1108.5414    3416.2572   -760.35152 
  141500    275.70007   -163.37531   -127.48882   -163.37531            0    7054.6069    18.135618    22.578548    19.343335    0.3984629   -6.8281664  -0.14609194      7920.63    8592.8606    6251.1841    6319.7759   -194.78924    2059.0311   -378.98781 
  142000    257.30039   -161.18758   -127.69608   -161.18758            0     6132.018    18.131729    22.633843    19.404044   0.46483612   -7.0795604 -0.071617376    7963.2394    5002.4741    6066.3876    7327.1923     944.5363     244.3329    1848.6688 
  142500    268.57295   -160.61826   -125.65947   -160.61826            0    9160.6766    17.998963    22.736466    19.476212   0.23471911   -7.2591359 -0.0056502283     7970.305    10820.614      7045.45    9615.9654   -252.53696   -312.47869    275.98061 
  143000    274.94007   -161.81356     -126.026   -161.81356            0    6365.1849     18.01394    22.761207    19.418476  -0.28184048   -7.3685276  0.097586816    7961.9443    7956.7714    6891.7595    4247.0237   -479.09691    3028.6297    -1891.304 
  143500    275.27563   -161.80208   -125.97084   -161.80208            0    3828.4928    18.166804    22.729783    19.287909  -0.68136305   -7.3065745    0.2239886    7964.5084   -713.92035    4819.9001    7379.4986    3227.5363   -850.63737   -2354.9491 
  144000    274.56386    -162.5129   -126.77431    -162.5129            0    7188.5901    18.213094    22.660999      19.2237  -0.63461279   -7.0767497   0.26932928    7934.1383    5541.2098    6239.3173    9785.2431   -63.454365    270.70747   -1356.5029 
  144500     270.5154   -161.56171   -126.35008   -161.56171            0    5066.5834    18.222004    22.669786    19.321881  -0.23170115   -6.7972348   0.20598974    7981.6553    3593.2494    5554.2525    6052.2485    1229.7785   -1997.7608   -974.01179 
  145000    283.96704   -162.11023   -125.14767   -162.11023            0    7737.1075    18.017065    22.694335     19.40165   0.14254589   -6.5475013   0.05409248    7933.0498    9931.9959    7464.5019    5814.8248   -64.162746   -1200.0818   -621.12028 
  145500    278.50964   -161.52332   -125.27112   -161.52332            0    3958.3823    17.988884    22.716337    19.449773   0.24440986   -6.5070774  -0.14647156    7947.9855    3123.3768    3538.7633    5213.0066   -1184.4921   -1762.3533     2334.778 
  146000    263.11074   -161.72914   -127.48134   -161.72914            0    3408.3562    18.049322     22.73161    19.366163    0.1215235   -6.6004124  -0.24935435    7945.7456    5156.5291    1766.9459    3301.5936     3154.684   -303.23267    1062.4737 
  146500     262.0095   -161.79904   -127.69458   -161.79904            0    9108.6105    18.105357    22.671718    19.252469 -0.082968999   -6.7887535  -0.15536184    7902.7452    7773.8144    10222.003    9330.0138   -469.17877   -600.96473    3409.9977 
[...]
  365000    263.95004   -160.58537   -126.22832   -160.58537            0    5101.6619    18.295843    22.340534    19.436004  0.074254098   -6.8857192   0.17130206     7944.251    7044.9019    5515.1003    2744.9834   -1587.0473    995.65511    217.26586 
  365500    267.44792   -161.93368   -127.12133   -161.93368            0    4604.1155    18.378395     22.65493    19.313695  -0.11200009   -6.8578221   0.28775817    8041.4742    3811.9744    4252.3867    5747.9853    502.03807    172.87842    2486.6469 
  366000    281.10365   -161.10273   -124.51288   -161.10273            0    7087.5324     17.97425    22.808478     19.23284  -0.35427081   -6.7217519   0.22111751    7884.7969    9416.9302    6728.7224    5116.9445    1375.9471    -2144.656    1602.8171 
  366500    254.92374   -160.11066   -126.92852   -160.11066            0    7203.4274    17.802114    23.170981    19.443428  -0.36683057   -6.6898688  0.070843564    8020.2671    5733.0818    7167.2485    8709.9518   -408.92383   -334.78722    -1236.545 
  367000    261.08591   -160.47488   -126.49064   -160.47488            0     5105.209    17.815791    23.154076    19.333814  -0.18115292    -6.701795 -0.037950681    7975.3563    7949.4642    3731.1601    3635.0025    62.637912   -526.01999    1739.8938 
  367500    272.33087   -161.71871   -126.27077   -161.71871            0     7215.367    17.993653    22.860502    19.163164  0.072004011   -6.8028035 -0.059466477    7882.6513    9748.3066    4962.8323    6934.9621   -679.30731   -951.87284    2343.4172 
  368000    269.29229   -161.12686   -126.07444   -161.12686            0    5858.6536     18.22486    22.761107    19.329272    0.1995776   -6.9257056 -0.026086749    8018.1294    4781.3921     5923.714    6870.8546    2090.5954    1355.7428   -111.48843 
  368500    265.80015   -161.25332   -126.65546   -161.25332            0    8212.9753    18.177732     22.50863    19.371611   0.18654312   -6.9369749 -0.016406141    7926.0083    6459.9936    9899.4366    8279.4956   -1146.1695    -49.27445   -2863.1064 
  369000    271.14406   -162.12843   -126.83498   -162.12843            0    6179.8893    18.111877    22.496943    19.492488  0.099353713   -6.9101967 -0.033600725    7942.4457    3033.3124    7798.4658    7707.8895    809.58755    1979.7385   -4880.9658 
  369500    269.63347   -161.40353    -126.3067   -161.40353            0    4499.5272    18.030562    22.704098    19.555852  -0.14948294   -6.8196529 -0.047687903    8005.5331    4277.2917    4111.2385    5110.0513    8.3616769    175.83026   -106.30802 
  370000    274.38942    -159.8694   -124.15351    -159.8694            0    7817.8098    17.925301    22.813067    19.294442  -0.34309215   -6.7240091 0.0015144244    7890.0972    11228.002    4875.4795    7349.9478    1661.9798    1295.8103    466.75262 
  370500     270.7782   -161.85779   -126.61195   -161.85779            0    5080.9237    18.165065    22.991714    19.185767  -0.29579129   -6.7033478   0.17211015    8012.8583    4286.2315    2802.9313    8153.6081   -628.89973   -331.76169    2358.3287 
  371000    270.79094   -162.29888   -127.05139   -162.29888            0    7552.7767    18.141419    22.867911    19.065397 -0.093866424   -6.6690945   0.36106816    7909.4009    8259.5663    5161.6558    9237.1081    460.53232    -87.25405     429.1289 
  371500    270.36758   -162.72216   -127.52978   -162.72216            0    5800.4709    18.082569    22.706739    19.378356  0.075719078   -6.6739842   0.26639614    7956.6788    8286.9788    4050.6021    5063.8318    -1653.898   -1957.0552    468.81023 
  372000    256.66114    -160.2957   -126.88741    -160.2957            0    5981.2337    18.039967    22.492309    19.670503  0.052204042   -6.6950255  -0.11307595    7981.5132    9869.7497    1955.6036    6118.3479    179.18221    -1236.472   -2611.2882 
  372500    268.45174   -162.69981    -127.7568   -162.69981            0    6480.2799    18.067281    22.408986    19.569139 0.0042676755   -6.7357412  -0.27862263    7922.9464    5698.5711    6238.1143    7504.1542    33.358823    160.99658     4668.281 
  373000    252.98138   -163.40035   -130.47104   -163.40035            0    3503.5804    18.195378    22.514997    19.339996  0.042278039   -6.8662388 -0.091135345    7922.9947     2861.419    2762.0759    4887.2464    2114.6223   -655.96741   -2204.9983 
  373500    262.62295   -162.87462   -128.69032   -162.87462            0     6238.534    18.131901    22.690223    19.215952  0.090793804   -6.9588849   0.12945156    7905.7667    2463.9816    9557.6041    6694.0163    -522.6068   -1006.8096    1690.4668 
  374000    266.55649   -160.87573   -126.17941   -160.87573            0     7390.956    18.076289     22.88434    19.339711  0.035871933   -6.9769884   0.20161707    8000.1411    6003.7829    6700.2524    9468.8325   -2295.5898    791.04221    129.08067 
  374500    286.64252   -161.91299   -124.60217   -161.91299            0    7714.2514    17.891614    22.846742    19.369981 -0.086047088   -6.8511405    0.1158754    7917.7719    9433.0467     5307.729    8401.9785    1934.4845   -3334.1917     756.4134 
  375000     287.3681   -162.09785   -124.69259   -162.09785            0    5496.4342    18.081974    22.723257    19.440312  -0.14640009   -6.8798153 -0.017592769    7987.6615    5768.2646    6993.2551    3727.7829   -514.49652     1482.212    2631.2917 
  375500     266.0286   -160.76304   -126.13543   -160.76304            0    4408.3828    18.303065    22.579016    19.319709  -0.08028005   -6.8295453   -0.0905056    7984.1633    2617.4186    5158.8185    5448.9112    1572.8632   -1770.5012    -1583.751 
  376000    270.70402   -161.35993   -126.12375   -161.35993            0    5691.4515    18.293487    22.299775    19.252201   0.17315883   -6.7159543 0.0019010957    7853.7555    6213.2149    5289.8245    5571.3151   -862.44374    2361.7819   -3480.2965 
  376500    277.26612   -161.14553   -125.05519   -161.14553            0    3604.3609    18.231563    22.496948     19.62087   0.35992877   -6.7087102   0.13082585     8047.589    4719.0072    2732.7176     3361.358    -3552.006   -1882.5286    244.42994 
  377000    262.50295   -162.18087   -128.01218   -162.18087            0    6766.1904    17.965813     22.50306    19.618589   0.33534139   -6.6903145   0.13664405    7931.5167    9017.5535    5525.4394    5755.5783      4452.41    275.22749   -833.01899 
  377500     270.0636   -163.37015   -128.21733   -163.37015            0    6237.8511    18.057714    22.567005    19.432754  0.095752524   -6.8181252  0.018003073     7919.013    3582.0281    7398.1144    7733.4109   -2132.3261   -391.07918    825.61973 
  378000     270.1027   -161.94066   -126.78276   -161.94066            0    4544.4588     18.21679    22.718274    19.281416  -0.11208235   -6.9746755 -0.054439483    7979.6916    2801.5116     4313.296    6518.5687    2371.0488   -813.00129    557.79119 
  378500    262.18293   -162.93058   -128.80354   -162.93058            0    10818.915    18.148786    22.716305    19.215702  -0.14918137   -6.9655423 -0.024543055    7922.1217    10430.693    11283.982    10742.069    903.11567      809.708    2899.3176 
  379000    271.03705   -162.27502   -126.99549   -162.27502            0      2824.75    18.043866    22.798653    19.337807  -0.13275477   -6.9179099  0.093713624    7955.1064    3001.3919    1444.3381    4028.5201    3618.4979   -1199.9966    912.90398 
  379500    274.62765   -163.12791   -127.38101   -163.12791            0    5671.6945    18.047134    22.724623    19.443363 -0.051375348    -6.871228   0.15231551    7974.0016    7993.1817    4461.5923    4560.3096   -1558.5422   -938.71695   -1643.4514 
  380000      267.078   -162.04165   -127.27745   -162.04165            0    6955.9451    18.029414    22.516358    19.382301  0.010754913   -6.8073353  0.040905809    7868.3757    5503.5028    5998.8988    9365.4336    3392.1049    1620.3171    145.07013 
  380500     272.8068   -164.48138   -128.97149   -164.48138            0    4217.9163    18.221958    22.433305    19.524516  0.076084349   -6.8148673   -0.1496087    7981.2073    4167.2835    3945.5754      4540.89   -11.112209    168.82759    1258.0844 
  381000     264.8982   -161.63672   -127.15625   -161.63672            0    4573.0201    18.330928    22.301544    19.470286    0.1982131   -6.7948591   -0.2481089    7959.6082    3240.5697     6413.304    4065.1865   -607.37943    1088.0851    1571.9088 
  381500    281.31784   -160.51457   -123.89685   -160.51457            0    5779.8822    18.264164    22.484735     19.38215   0.39246895   -6.6733107 -0.055400409    7959.5684    4842.8658    5359.6965    7137.0842   -92.365247    1076.3344    689.34669 
  382000    269.02559   -161.13119   -126.11348   -161.13119            0    4651.0956    18.073898    22.855224     19.33123   0.43075957   -6.5957348   0.21608569    7985.4025    7064.0485    1534.9573     5354.281   -1283.3306   -396.49063   -1069.0058 
  382500    269.81191    -158.5356   -123.41554    -158.5356            0    3442.3476    17.839695    23.057111    19.295303   0.11081678   -6.5974251   0.22676465    7936.7725    3214.3982    4342.4607    2770.1838    -1835.563    1903.2068   -876.91542 
  383000    270.27741   -160.09157   -124.91092   -160.09157            0    6674.0515    17.918794    23.079848    19.336862  -0.31155314   -6.7106168   0.02478596    7997.0117     9284.585    6288.4174    4449.1522   -165.60973    210.80628    490.57662 
  383500    275.80704   -159.30267   -123.40226   -159.30267            0    2915.5583    18.019476    22.856879    19.266158  -0.45686069   -6.7854524 -0.021568493    7935.1327    4388.2828    1661.7123    2696.6799    1824.1249   -782.91518    1665.3103 
  384000    271.76997   -162.08126   -126.70633   -162.08126            0    2241.6862    18.191928    22.727219    19.345293  -0.36162378   -6.8728702   0.10724572     7998.349    2713.5912     3867.197     144.2705    1053.7358    2611.0728    4304.8327 
  384500    275.61489   -163.03412   -127.15872   -163.03412            0    5704.6209    18.115977    22.413509    19.422877 -0.023013764   -6.8537272    0.2228856     7886.516    4381.1115    5214.5591     7518.192    440.85503     -41.4839    4.3117295 
  385000    264.68116    -162.9277   -128.47549    -162.9277            0    4869.3155    18.090132    22.399229     19.56282   0.30807564   -6.8416548   0.20440368    7926.9525    4282.2016     4169.484     6156.261    -3475.184    1570.2552   -1272.2087 
  385500    264.18297   -163.17396   -128.78659   -163.17396            0    4468.5442    18.155632    22.582468    19.510205   0.34452032   -6.8941403  0.065115978     7999.164    3323.4494    5846.3922    4235.7911    428.37329    276.87385    4623.7043 
  386000    267.58139   -161.41011   -126.58038   -161.41011            0    5636.6644    18.144048    22.671933    19.244034   0.12989527   -6.9041356   -0.1717709    7916.2378     4866.975     4746.326    7296.6922    48.119487    149.57239   -42.018956 
  386500    274.73731   -161.01015   -125.24898   -161.01015            0    1232.3121    18.181444    22.896644    19.216152  -0.13723606   -6.9128089  -0.26911354    7999.5696    542.47079    1541.8885     1612.577    1081.5701    1251.1918   -1025.3713 
  387000    270.65955   -162.18476   -126.95437   -162.18476            0    7876.8449    18.092921    22.851154    19.288027  -0.25010618   -6.8723657 -0.085801081    7974.5214    6585.0998    9008.6806    8036.7541     1062.759    762.11798   -113.74705 
  387500    267.50198   -161.64551   -126.82612   -161.64551            0    10405.942    18.002181    22.581415    19.335578  -0.10519143    -6.891906   0.19041221    7860.1973    8850.1291    10280.405    12087.293    1540.8608    1761.8282   -3429.3942 
  388000    259.36853   -163.78377   -130.02307   -163.78377            0    1236.1321    18.166012    22.659741    19.567558  0.046424636   -6.9683258   0.26724866    8054.7333    789.41792    1157.3794     1761.599     -1855.26   -215.91879    2601.0602 
  388500    265.08238   -162.76668   -128.26224   -162.76668            0    10331.117    18.139792    22.400994    19.348257   0.10078428    -7.007128   0.11193336    7862.1518    8097.0745    11617.002    11279.275   -628.09403   -553.77889   -2647.8536 
  389000    255.96472   -162.00119   -128.68355   -162.00119            0    5731.9311    18.256655    22.522957    19.374345  0.062000942   -7.1069845  -0.18276549    7966.6117     6473.976    5874.8248    4846.9924   -2556.2409    1321.6976   -3576.3223 
  389500    265.28452   -163.10549   -128.57474   -163.10549            0    3978.8284    18.167107     22.68458    19.312632 0.0014343589   -7.1056503  -0.33427705    7958.9907    1576.9743    4196.8217    6162.6893    15.137082   -1162.2114    831.96845 
  390000    267.32467   -163.99702   -129.20071   -163.99702            0     8941.661    17.996225    22.724658    19.318601   0.06443212   -7.0366952  -0.22437829    7900.4975    9393.3366    9255.8279    8175.8184   -437.30296   -455.93865    1309.6261 
  390500    267.44544   -161.38428   -126.57226   -161.38428            0    2925.4941    18.041246    22.816033    19.425488    0.1862902   -7.0352821   0.10408464    7996.1072    2239.9588    5988.3422    548.18128   -2791.2298    1940.1526   -1883.6241 
  391000    272.22594   -159.96417   -124.52989   -159.96417            0    10320.163    18.030855    22.710067    19.262994   0.15442042   -6.9077876   0.41301485    7887.8479    9178.6914    8299.5174    13482.281    1143.7391   -546.21889   -587.34805 
  391500    280.35638   -160.11803   -123.62545   -160.11803            0    8782.2808    18.204979    22.661129    19.332971  -0.16359549   -6.8111568    0.3884244    7975.7277    9526.0585    6851.6597    9969.1241   -426.94683   -532.40785     -1465.14 
  392000    253.59895   -162.40982   -129.40012   -162.40982            0    6912.5614     18.24672    22.594823     19.48092  -0.37005042   -6.7335532  0.086316191    8031.6214    3027.1692    7187.8337    10522.681    4624.6905   -3116.7935   -773.92594 
  392500    270.83315   -163.92775   -128.67476   -163.92775            0    5238.6722    18.109293    22.384357    19.396069   -0.2672601   -6.6311219  -0.11126683    7862.4852    5071.9061    6211.8518    4432.2587    3610.1767   -1854.4606     -191.344 
  393000    276.70496   -162.26203   -126.24474   -162.26203            0    5824.5473    18.184086    22.487814     19.51177  0.031083495   -6.7519243 -0.040361487    7978.7594    7042.3504    5451.5121    4979.7793    2286.5282    161.10379    257.65457 
  393500    286.72129   -160.60808   -123.28701   -160.60808            0    5582.1699    18.162991    22.675825    19.432291   0.32460385   -6.8958938  0.080983371     8003.399      3935.68    3451.2551    9359.5748   -3956.2856   -1710.2931    2506.6714 
  394000    268.87086    -162.5142   -127.51663    -162.5142            0    5629.0447    18.038988    22.695313    19.318213   0.29265447    -6.912176  0.061122774    7908.8856    5012.2611     7339.625     4535.248    1717.0062    2379.1736   -2821.2967 
  394500    263.58294   -162.55017   -128.24091   -162.55017            0    933.87111    18.050965    22.736995    19.376416   0.06929425   -6.8909219 -0.093312405    7952.5595    1164.7442    58.389217    1578.4799   -144.14514   -630.38508   -545.25932 
  395000    260.70499   -160.64275   -126.70809   -160.64275            0     6017.333    18.100584    22.764693    19.382015  -0.28257624   -6.8216017   -0.1921648    7986.4413    5038.0071    6339.0585    6674.9332    1224.3852   -895.55427   -237.08919 
  395500    262.00959   -161.84146   -127.73699   -161.84146            0    9477.9127    18.079976     22.59312    19.324506  -0.40102688   -6.7358847 -0.096965343     7893.733    8609.7714    9900.1275    9923.8393   -271.19312   -497.19213      168.214 
  396000    266.04412   -163.77206   -129.14243   -163.77206            0    1986.2531     18.16529    22.583644    19.429583  -0.14682801   -6.6974337   0.16981586    7970.7616   -1296.1703    2373.4728     4881.457     -2184.63   -2135.8714   -2012.5003 
  396500    269.03469   -163.75548   -128.73658   -163.75548            0    9709.4095    18.170259    22.449027    19.424465   0.15425515    -6.688037   0.37896963    7923.3295    8831.9826    9084.5734    11211.673    328.66407   -1242.7072   -2629.8094 
  397000    272.03021   -162.81699   -127.40819   -162.81699            0    4006.2164    18.246019    22.416883    19.456021   0.30946867   -6.7618588   0.18791928    7957.8796   -532.20469    5611.6923    6939.1617   -1609.3255    440.94425   -2329.4137 
  397500      269.739   -161.85755   -126.74698   -161.85755            0    5246.1408    18.189202    22.565511    19.476017   0.27744036   -6.9051667   -0.3442193    7993.9044    7430.5286     6690.607    1617.2867   -1798.5222    4352.7948    3092.6266 
  398000    264.24023   -161.46732    -127.0725   -161.46732            0    8570.2602    18.039757    22.610641    19.376037   0.19674344   -7.0141176   -0.5158721    7903.3006    9751.7175    9077.4677    6881.5955    509.82224   -1728.1727   -1670.0629 
  398500     273.6358   -161.36796   -125.75017   -161.36796            0    4778.7781    18.108009    22.734135     19.43901   0.14504678   -7.1388017  -0.20932189    8002.4559    3070.8593    5301.8475    5963.6275   -1808.3542    2197.6022   -330.02053 
  399000    263.16382   -164.50811    -130.2534   -164.50811            0     3963.194    18.045246    22.697898    19.328835  0.044553848   -7.0634032   0.17271887    7916.8811    5281.5963    2856.9172    3751.0686   -1835.1138   -866.95819    -2846.787 
  399500    259.39652   -161.45341   -127.68907   -161.45341            0     5545.178    18.071596    22.709622     19.31237  -0.16332451    -6.992856   0.28538512    7925.7794    8246.5991    1183.1288     7205.806   -1920.1301   -218.24871   -4198.1958 
  400000    261.45789   -163.22553   -129.19287   -163.22553            0    3995.8578    18.056116     22.76121    19.427253    -0.315275   -6.8749939   0.13415794    7984.1943    5752.6786    3086.5771    3148.3177     2203.149    893.06878    40.049532 
Loop time of 2558.18 on 1 procs for 400000 steps with 1008 atoms

Performance: 6.755 ns/day, 3.553 hours/ns, 156.361 timesteps/s
72.8% CPU use with 1 MPI tasks x 1 OpenMP threads

MPI task timing breakdown:
Section |  min time  |  avg time  |  max time  |%varavg| %total
---------------------------------------------------------------
Pair    | 2195.7     | 2195.7     | 2195.7     |   0.0 | 85.83
Bond    | 0.058026   | 0.058026   | 0.058026   |   0.0 |  0.00
Neigh   | 329.95     | 329.95     | 329.95     |   0.0 | 12.90
Comm    | 11.496     | 11.496     | 11.496     |   0.0 |  0.45
Output  | 1.9934     | 1.9934     | 1.9934     |   0.0 |  0.08
Modify  | 17.374     | 17.374     | 17.374     |   0.0 |  0.68
Other   |            | 1.625      |            |       |  0.06

Nlocal:        1008.00 ave        1008 max        1008 min
Histogram: 1 0 0 0 0 0 0 0 0 0
Nghost:        5077.00 ave        5077 max        5077 min
Histogram: 1 0 0 0 0 0 0 0 0 0
Neighs:         0.00000 ave           0 max           0 min
Histogram: 1 0 0 0 0 0 0 0 0 0
FullNghs:      269318.0 ave      269318 max      269318 min
Histogram: 1 0 0 0 0 0 0 0 0 0

Total # of neighbors = 269318
Ave neighs/atom = 267.18056
Ave special neighs/atom = 0.0000000
Neighbor list builds = 40000
Dangerous builds not checked

unfix		3
unfix		2

write_data	data.final.${pid}
write_data	data.final.0
System init for write_data ...

write_restart   restart.lmp.${pid}
write_restart   restart.lmp.0
System init for write_restart ...
Total wall time: 0:43:08
