LAMMPS data file via write_data, version 29 Sep 2021, timestep = 400000

1008 atoms
2 atom types

0.1331681432120284 18.266386856786728 xlo xhi
-0.10918407970199517 22.67957307970334 ylo yhi
0.14065063532787114 19.365065364671594 zlo zhi
0.0695048383864415 -7.051847694103339 0.10503704093724771 xy xz yz

Masses

1 1.008
2 15.999

Atoms # full

1 0 1 0 6.507204115590168 1.0908856106947595 4.763056735280471 0 0 0
2 0 2 0 6.86879589528021 1.7843547620869646 5.3830371627846825 0 0 0
3 0 2 0 5.604692084111755 0.9412065369292724 5.114197771948683 0 0 0
4 0 1 0 3.918437234009157 1.120493098503819 5.237850440839353 0 0 0
5 0 2 0 3.150412468470982 0.5345769154890012 5.066457657279231 0 0 0
6 0 2 0 3.797493371207722 1.7674309326786577 4.510872635202297 0 0 0
7 0 1 0 -0.8566865393400299 6.6618487096578844 4.798108201209159 0 0 0
8 0 2 0 -0.6639905985899537 6.412958197971997 5.71622406703283 0 0 0
9 0 2 0 -0.7413257325996412 5.7277344014417055 4.415257977519513 0 0 0
10 0 1 0 2.1326242990273006 6.746332385062145 4.690058667691376 0 0 0
11 0 2 0 2.203214907843263 5.898600507542475 5.2809922799112545 0 0 0
12 0 2 0 1.1761496866374987 6.952980824133335 4.5729357088503715 0 0 0
13 0 1 0 4.781105369050488 4.576000243275546 9.655869301384442 0 0 0
14 0 2 0 3.7508711968226436 4.520029654248773 9.667071234013495 0 0 0
15 0 2 0 4.971886146651071 5.487886440113624 9.986905203286632 0 0 0
16 0 1 0 5.407287751676889 4.819916677159346 0.44435506223621624 0 0 0
17 0 2 0 6.3545528447517805 4.452113490638434 0.41289049378663173 0 0 0
18 0 2 0 4.81422505571334 4.06448091646634 0.24076631017166455 0 0 0
19 0 1 0 1.2227284476158866 2.633857287778866 0.49687104303029944 0 0 0
20 0 2 0 -5.973812596439035 2.051582303413364 19.0700875485213 0 0 -1
21 0 2 0 1.1800793204280058 2.2111240476599128 1.3792295358136315 0 0 0
22 0 1 0 0.06448769890081785 2.7457345346937 9.484716553944189 0 0 0
23 0 2 0 0.2702393420169904 2.101533635327286 10.20430235984649 0 0 0
24 0 2 0 0.6728989785694623 3.5092351178964076 9.703751163102112 0 0 0
25 0 1 0 4.616029349963296 6.068289303398591 7.385060506313572 0 0 0
26 0 2 0 4.829101878738781 5.768447302924313 6.4890570136825625 0 0 0
27 0 2 0 4.906706415821576 5.418039175202431 8.050020358871638 0 0 0
28 0 1 0 5.877335015030325 6.071574054555186 2.8019428446764287 0 0 0
29 0 2 0 5.15231414692087 6.743368644091725 2.8424110246338152 0 0 0
30 0 2 0 5.62992074590802 5.583714238493103 2.049365899535044 0 0 0
31 0 1 0 1.2735638012959245 0.9545290712926927 2.757076408474603 0 0 0
32 0 2 0 1.0956904093149147 1.1607604696230274 3.6370569375063373 0 0 0
33 0 2 0 0.6093281604205742 0.3116073561845613 2.4166364190443317 0 0 0
34 0 1 0 -0.09647019639633125 0.9854712570918398 7.356687856990211 0 0 0
35 0 2 0 0.1828673181032019 1.6164409073916906 8.020703558637532 0 0 0
36 0 2 0 -1.1027260789893893 0.9128721894741585 7.4667044901733854 0 0 0
37 0 1 0 6.171034625465559 2.462933140818736 2.355446411312211 0 0 0
38 0 2 0 6.555131893478242 2.0115461830386114 1.6056385052201865 0 0 0
39 0 2 0 6.291242171969769 1.8462265103049098 3.0902033291368216 0 0 0
40 0 1 0 3.770231823792885 2.8452975014743567 7.4201957909663765 0 0 0
41 0 2 0 3.650364159159942 2.0967734502478543 6.82678429529163 0 0 0
42 0 2 0 3.7613028012470044 2.4840259814746535 8.337310176588955 0 0 0
43 0 1 0 -0.5875058208407555 5.152233344865042 7.025043436285078 0 0 0
44 0 2 0 -0.6093617924496626 5.552661180674556 7.943504208104565 0 0 0
45 0 2 0 0.3643498788516353 4.905046629433582 6.844839503372063 0 0 0
46 0 1 0 1.747040530724576 4.60147691392824 2.580771820212142 0 0 0
47 0 2 0 1.928967922406681 4.898405410102183 1.6906544059266386 0 0 0
48 0 2 0 1.9739207628290305 5.337373055976677 3.1786814105369334 0 0 0
49 0 1 0 6.496377031871928 3.2012718653011314 6.524304144700798 0 0 0
50 0 2 0 5.95131710276177 3.002934085735964 7.264956499849009 0 0 0
51 0 2 0 5.853277531056446 3.5054452968640195 5.895919291004264 0 0 0
52 0 1 0 3.710101828063572 3.0611509486219344 3.4242514002403053 0 0 0
53 0 2 0 4.475119049307468 3.0240954069917136 2.856753936331697 0 0 0
54 0 2 0 3.003227637099266 3.4900063157879484 2.98136750699408 0 0 0
55 0 1 0 -0.676789350345494 4.155009058580095 3.592380475381108 0 0 0
57 0 2 0 0.12491528995199674 4.227265800541808 3.0332290962626804 0 0 0
58 0 1 0 1.8161387180983826 4.407316520245364 6.134238355682649 0 0 0
59 0 2 0 1.6182465601492084 3.4971984502223625 5.776523456815643 0 0 0
60 0 2 0 2.574961454751573 4.169415710402719 6.675787433640985 0 0 0
61 0 1 0 8.346137263082754 7.124921112117986 1.6073762627514832 0 0 0
62 0 2 0 7.896121533828694 7.862362338189315 1.2327091116077147 0 0 0
63 0 2 0 7.910928979001276 6.7067961303270565 2.3474234481248115 0 0 0
64 0 1 0 2.2715576249969813 7.198662226119663 8.266919304681894 0 0 0
65 0 2 0 2.7205863896114857 7.767973097080641 8.91962784079631 0 0 0
66 0 2 0 2.8924990886401125 6.703555239843907 7.7500648454480014 0 0 0
67 0 1 0 -2.647297240183117 0.5838009968479547 8.242702507398958 0 0 0
69 0 2 0 -2.998638532623691 1.368451334806644 8.697878989438918 0 0 0
70 0 1 0 3.6741667620157985 0.17459900512685916 1.7821022840575111 0 0 0
71 0 2 0 2.9552966450284046 0.39144466145291396 2.4473759000421937 0 0 0
72 0 2 0 4.55378161423325 22.684470516645675 2.217226654868319 0 -1 0
73 0 1 0 4.994775101358006 4.861446832427822 4.9272921210726155 0 0 0
74 0 2 0 4.357955171316524 4.283849230997864 4.569247649159022 0 0 0
75 0 2 0 5.481407002593475 5.315308948000304 4.203742805154107 0 0 0
76 0 1 0 0.5621145630150344 2.1719821506066332 4.950740127248264 0 0 0
77 0 2 0 0.26036170805869085 1.7473839303412353 5.757205241873017 0 0 0
78 0 2 0 -0.06403389670345927 2.832136840539704 4.645926530101052 0 0 0
79 0 1 0 6.941483076248043 0.9935094389452621 0.2835772110801348 0 0 0
80 0 2 0 -0.69957422460927 0.4642813982213472 19.05875933065162 0 0 -1
81 0 2 0 7.369133544695512 0.45932426379788427 0.9683556943827492 0 0 0
82 0 1 0 2.2977366601701217 5.963127104203482 0.1853432432762353 0 0 0
83 0 2 0 -5.29808967366018 6.758061861430792 18.942140069203433 0 0 -1
84 0 2 0 -4.65351589091926 5.519060472069446 18.602517597061848 0 0 -1
85 0 1 0 15.745511627041425 1.1644527850458013 4.466926863229287 0 0 0
86 0 2 0 15.683241658045647 1.472588330477876 3.5235545501949104 0 0 0
87 0 2 0 14.82665342791924 0.9037504151742569 4.617160865053401 0 0 0
88 0 1 0 12.957463556785425 0.895493317101551 4.86250015931561 0 0 0
89 0 2 0 12.433217203296266 0.0725690291611974 4.839300428034416 0 0 0
90 0 2 0 12.879749587562614 1.1634170081295765 5.7864457018193525 0 0 0
91 0 1 0 8.356584261715952 6.308226490529771 5.057631334033107 0 0 0
92 0 2 0 7.60251975264175 6.909848080300586 5.080214542801222 0 0 0
93 0 2 0 8.096028734885369 5.559340822086469 4.432580326842572 0 0 0
94 0 1 0 11.297844862938344 6.542395515223763 4.73839057341592 0 0 0
95 0 2 0 10.399915096515127 6.775644165612166 4.926745856253377 0 0 0
96 0 2 0 11.802592001731739 7.376025051382668 4.9044924464383834 0 0 0
97 0 1 0 14.053507503714638 4.890644879471412 9.457442472370088 0 0 0
98 0 2 0 14.215981359836183 5.267118548937655 8.563566770672011 0 0 0
99 0 2 0 14.26817848750678 5.5331330448682525 10.097681840972 0 0 0
100 0 1 0 14.38669279692574 4.9454411255770525 0.1767599895262309 0 0 0
101 0 2 0 8.32976866968843 4.8740245541123866 19.31437826564307 0 0 -1
102 0 2 0 7.359922029381029 5.8426842770927525 18.81140359560822 0 0 -1
103 0 1 0 9.851802397008985 2.3568323698421927 0.4555892289490062 0 0 0
104 0 2 0 9.296530338905319 3.206285424467919 0.48988390755724387 0 0 0
105 0 2 0 10.757716322514403 2.625492019773706 0.6359734763201986 0 0 0
106 0 1 0 9.42971524383039 2.8120621111922097 9.53817262976929 0 0 0
107 0 2 0 9.34036320406338 2.075161115906263 8.877731015858249 0 0 0
108 0 2 0 9.683974225758835 2.3559299743977253 10.349906425796311 0 0 0
109 0 1 0 13.378323129952028 6.3892827088891675 7.279161387897114 0 0 0
110 0 2 0 13.610360372486763 5.868514744916573 6.4737715969041165 0 0 0
111 0 2 0 12.41884437944702 6.560648832310463 7.175053027936966 0 0 0
112 0 1 0 14.834837089963486 6.1358877354725285 2.939140441953918 0 0 0
113 0 2 0 14.648983557769022 5.692718572641495 3.7657023388731936 0 0 0
114 0 2 0 14.564783881951003 5.586721397360215 2.2400866953336833 0 0 0
115 0 1 0 10.35567666106125 0.9114376236451706 2.653447036695365 0 0 0
116 0 2 0 11.224695961319588 0.7324850771495556 2.341021716114679 0 0 0
117 0 2 0 10.039550084468797 1.431819096346157 1.9312825213887113 0 0 0
118 0 1 0 9.01636987709112 0.7636823638524313 7.50064901745152 0 0 0
119 0 2 0 9.292691050299574 1.0073860256529965 6.616669827859944 0 0 0
120 0 2 0 9.66138862731896 0.09607087984262723 7.789209902041298 0 0 0
121 0 1 0 15.457047020542948 2.7139499167651224 2.141054537857944 0 0 0
122 0 2 0 15.646071746834465 2.2784657893335605 1.3009565828970362 0 0 0
123 0 2 0 14.500778127402887 2.856168873897963 2.1501798945379607 0 0 0
124 0 1 0 13.076897400454985 2.2173759735294927 7.216928575780854 0 0 0
125 0 2 0 12.627143304123795 2.932185693262268 6.7127446099361165 0 0 0
126 0 2 0 14.0413479468751 2.4154007599520413 7.115366966034562 0 0 0
127 0 1 0 8.749417877744827 5.0793294811404 7.392009526726076 0 0 0
128 0 2 0 8.774695151474681 5.65633599051161 6.572811305096552 0 0 0
129 0 2 0 8.137841488910377 4.410001703946034 7.100638265931625 0 0 0
130 0 1 0 10.80061981507973 4.544750621239251 2.5623467873041994 0 0 0
131 0 2 0 9.85110768165285 4.3892038950584595 2.681432061234893 0 0 0
132 0 2 0 10.90736934677851 5.2486784120501255 3.2239920630630348 0 0 0
133 0 1 0 15.69689634191333 3.1678385717974074 6.35998721462029 0 0 0
135 0 2 0 -1.6707976333389964 3.651463938217248 6.740687000515518 1 0 0
136 0 1 0 12.950295454250082 2.9929550068519926 3.2974761619099358 0 0 0
137 0 2 0 12.117905340589479 3.3537007825552694 2.96402330887311 0 0 0
138 0 2 0 12.806134079077983 2.152481912689714 3.7266482579010884 0 0 0
139 0 1 0 8.16162612126428 4.002214387956356 3.352720679331749 0 0 0
140 0 2 0 7.450238004324202 3.5573216241978898 2.8746858660453354 0 0 0
141 0 2 0 8.521213767086367 3.338520300175669 3.9628535235344233 0 0 0
142 0 1 0 11.202994426805422 3.9636968181273526 6.199453091601569 0 0 0
143 0 2 0 11.418419101336005 4.832817853853771 5.784307025808457 0 0 0
144 0 2 0 10.675854164983136 4.2238459863379685 6.933550116829735 0 0 0
146 0 2 0 17.142830993497697 6.779628133258682 2.252555083293501 0 0 0
147 0 2 0 17.089558088290815 7.365313792853436 0.8068776998851642 0 0 0
148 0 1 0 10.901771325692668 6.976621386858707 7.966293922433988 0 0 0
149 0 2 0 10.830610603791026 6.1518178151582195 8.409865741313016 0 0 0
150 0 2 0 10.036862696060899 7.37360237888253 7.78678202090112 0 0 0
151 0 1 0 6.544515833263294 0.16417406679144475 8.308505139138498 0 0 0
152 0 2 0 7.427423142631712 0.4125839781686962 7.95014571628432 0 0 0
153 0 2 0 6.371535525527438 0.8585935851326311 8.942076590106087 0 0 0
154 0 1 0 12.875895641798008 0.47641665568442837 1.5963107001833368 0 0 0
155 0 2 0 12.911063747708404 1.3962347884114776 1.2427469513751166 0 0 0
156 0 2 0 12.56491937723251 -0.06775286789949539 0.8584302375287756 0 0 0
157 0 1 0 14.030789843399203 4.805474728926088 5.221294376470139 0 0 0
158 0 2 0 13.630021698527004 4.208355099412621 4.523037048832567 0 0 0
159 0 2 0 14.596183996878763 4.188031626785322 5.691281452836134 0 0 0
160 0 1 0 9.421467017811935 1.9490846009742406 4.947166893040604 0 0 0
161 0 2 0 10.020568415539328 2.5631998819263555 5.416035583730193 0 0 0
162 0 2 0 9.812921916542022 1.6493122599393868 4.1721653651318 0 0 0
163 0 1 0 9.273682810929781 1.149546865210921 19.300545152995582 0 0 -1
164 0 2 0 9.60025745838962 1.5562452561520088 18.471753291119263 0 0 -1
165 0 2 0 8.537559362410292 0.5589969530680792 19.14227990000112 0 0 -1
166 0 1 0 11.442696790852647 6.073888184030019 0.36186872513886736 0 0 0
167 0 2 0 11.193673428760599 5.469033077719273 1.1052078093255484 0 0 0
168 0 2 0 10.788590449033979 6.741219616296142 0.2088921303105832 0 0 0
169 0 1 0 6.362980221658177 8.177652955435974 4.591672953311509 0 0 0
170 0 2 0 5.478146822248586 8.353151442372225 4.896373514537521 0 0 0
171 0 2 0 6.882639363681454 8.842024045045193 5.019364965815463 0 0 0
172 0 1 0 3.83015574939523 8.74888101728938 5.396851675381507 0 0 0
173 0 2 0 3.190728376646151 8.092597825105441 5.178792255544287 0 0 0
174 0 2 0 3.764619419001132 9.366110410959301 4.6516376905588315 0 0 0
175 0 1 0 -0.7098484251034984 13.82193438742731 5.078298997923444 0 0 0
176 0 2 0 -1.3344246134440354 14.558986956496868 5.077767782775312 0 0 0
177 0 2 0 0.1736775079459305 14.201051349900402 4.8229532668396065 0 0 0
178 0 1 0 2.0675811864418643 13.926554713352214 4.5695862207866185 0 0 0
179 0 2 0 2.3330675220178883 13.253466648109061 5.177885582322422 0 0 0
180 0 2 0 1.8584790950289591 13.485652544714904 3.7281855283713816 0 0 0
181 0 1 0 4.691059338459447 12.389252909952102 9.978189426898998 0 0 0
182 0 2 0 4.996367497950795 12.979474323466508 10.654128474235542 0 0 0
183 0 2 0 5.424918117215366 11.682713807782452 9.845659419360981 0 0 0
184 0 1 0 5.485444631752712 12.348094571023058 0.47060049212130545 0 0 0
185 0 2 0 -1.5695502696683317 13.316866630271189 19.14015050981451 0 0 -1
186 0 2 0 6.429343925438426 12.119955520533555 0.5011909135785768 0 0 0
187 0 1 0 -5.943835064794834 10.28305334616561 19.246090007699117 0 0 -1
188 0 2 0 1.10476518493009 9.671808830954923 0.8231394681365334 0 0 0
189 0 2 0 -5.025716184660659 10.632352835854416 19.202886232867712 0 0 -1
190 0 1 0 0.22337947296189142 10.193892641949807 9.834525818706338 0 0 0
191 0 2 0 0.34388880811531886 9.852907813067704 8.947450291963497 0 0 0
192 0 2 0 0.8351280848266618 10.95160001220824 9.955487049157814 0 0 0
193 0 1 0 4.525206156638036 13.822618718459701 7.567136707955585 0 0 0
194 0 2 0 4.780650420709906 13.497067160071055 6.682188607334521 0 0 0
195 0 2 0 4.746171196190695 13.118980581675974 8.18514328234073 0 0 0
196 0 1 0 5.63092913923837 14.193407578574606 2.898490145831766 0 0 0
197 0 2 0 5.5467213452691215 13.574388005441694 2.1755164894120895 0 0 0
198 0 2 0 5.474541607305171 13.741604159417506 3.719678872681373 0 0 0
199 0 1 0 1.115188741399372 8.700514484721584 2.191714143865902 0 0 0
200 0 2 0 0.617243629211537 7.917657846198328 1.9125847732915597 0 0 0
201 0 2 0 1.9902087565409727 8.376348338322666 2.3442357683790784 0 0 0
202 0 1 0 0.10226026350481376 8.888042064773993 7.479226522978282 0 0 0
203 0 2 0 -0.7930836420912046 8.444891004057402 7.549310200508414 0 0 0
204 0 2 0 0.7594223937632867 8.188829811461245 7.560849766499043 0 0 0
205 0 1 0 6.174888139256966 10.286331971848075 2.218056819910521 0 0 0
206 0 2 0 6.40685885941274 9.505450658821745 2.7248134046650967 0 0 0
207 0 2 0 6.759120202922841 10.988149999712583 2.5107403186775685 0 0 0
208 0 1 0 4.267733727597681 10.31709867676374 7.531011576123433 0 0 0
209 0 2 0 3.773429948683722 11.04903276118515 7.192777912826451 0 0 0
210 0 2 0 4.103737041673119 9.699742013657437 6.784741408580748 0 0 0
211 0 1 0 -0.25901912679456496 12.285931637891833 7.40630992818736 0 0 0
212 0 2 0 -0.45240494008063736 12.768617211593666 8.259659724641951 0 0 0
213 0 2 0 -0.5194134433518887 12.875281687814008 6.672495247200675 0 0 0
214 0 1 0 1.4413486311219663 12.51787698462568 2.4683300529114995 0 0 0
215 0 2 0 1.5807639372172972 12.849922057582626 1.5244465047202198 0 0 0
216 0 2 0 0.484748316962337 12.288409660951823 2.524349170269906 0 0 0
217 0 1 0 6.789267597921091 10.727297420667092 6.233729449567382 0 0 0
218 0 2 0 6.101847092228324 10.374606264273964 6.771588383701786 0 0 0
219 0 2 0 7.350363030313467 11.287292137372718 6.7768895268086515 0 0 0
220 0 1 0 3.792635013351166 10.718296237573911 3.4605510786227534 0 0 0
221 0 2 0 4.47335364654063 10.536131914287623 2.801170572810136 0 0 0
222 0 2 0 3.0355439044899013 11.160680284225664 3.04563023957689 0 0 0
223 0 1 0 -0.8803677840865528 11.707434853343893 3.494734922745623 0 0 0
224 0 2 0 -0.5948860341905333 10.989317310087957 4.089675405224392 0 0 0
225 0 2 0 -1.0298293221115133 12.484685044654515 4.06809276191338 0 0 0
226 0 1 0 2.167217313243575 11.722810666216375 6.517976135132349 0 0 0
227 0 2 0 1.3485665124897972 11.978388384208582 6.909635256083564 0 0 0
228 0 2 0 1.901308562399815 11.023466555880383 5.852397755753366 0 0 0
229 0 1 0 8.322665036871717 15.042235343300066 1.7369800294995155 0 0 0
230 0 2 0 7.52891233386757 15.114360569022619 2.3081852312440363 0 0 0
231 0 2 0 9.052477219706779 15.470268274131032 2.295452867598131 0 0 0
232 0 1 0 1.867814484872155 14.479905334658413 8.374741722006195 0 0 0
233 0 2 0 2.6452849197691544 14.212175969368763 7.843460701198831 0 0 0
234 0 2 0 1.3138139697206666 15.063930198632915 7.830087803283296 0 0 0
235 0 1 0 -2.4939082605632255 8.0705728940028 8.036431470354906 0 0 0
236 0 2 0 14.812253375146273 7.701898545877033 7.592648595827321 -1 0 0
237 0 2 0 -2.8583533636521654 8.801966872694054 8.529165425247673 0 0 0
238 0 1 0 3.7855318793967516 7.75326209694987 1.9056842719775793 0 0 0
239 0 2 0 4.028046144032542 8.477181949116105 1.2811825487560113 0 0 0
240 0 2 0 3.431341052988651 7.104355088952277 1.2529010044972908 0 0 0
241 0 1 0 5.350329832486751 12.625195167050846 5.1790334428018605 0 0 0
242 0 2 0 6.069759436112855 11.9754038035001 5.364069535895455 0 0 0
243 0 2 0 4.713904520791353 12.108058818591706 4.707021539976413 0 0 0
244 0 1 0 0.8044917830202982 9.768538501576082 4.910525971692375 0 0 0
245 0 2 0 1.0779981620375094 9.196092671926898 4.125640004720305 0 0 0
246 0 2 0 0.6632719011100026 9.246858905900272 5.738829964444059 0 0 0
247 0 1 0 0.07009269042231558 8.980025875519827 19.142483739484696 0 0 -1
248 0 2 0 6.434764018883652 9.45517298199365 0.3851315205639644 0 0 0
249 0 2 0 -0.5229590392213046 8.356132445378028 18.700322621672953 0 0 -1
250 0 1 0 -4.874491827649775 13.651807802647774 19.068485084964195 0 0 -1
251 0 2 0 -5.31891477450162 14.469664679013077 18.792205868088686 0 0 -1
252 0 2 0 2.8995971626277313 13.907214374708621 0.3911058932973296 0 0 0
253 0 1 0 15.549788725574734 8.682436033254442 4.883690815525445 0 0 0
255 0 2 0 15.586949403248203 8.957652347004933 3.9914247242889194 0 0 0
256 0 1 0 12.753855935025445 8.86002019295813 5.319949952306682 0 0 0
257 0 2 0 13.732022114578715 8.65141159099907 5.300002695677671 0 0 0
258 0 2 0 12.558692313751164 9.179335204698374 6.1885492998070575 0 0 0
259 0 1 0 8.200197727564907 14.19754099447611 4.9725721361722615 0 0 0
260 0 2 0 9.12945884516136 14.395883083158422 5.135094547385558 0 0 0
261 0 2 0 8.194158113009086 13.50902242199987 4.221095178272133 0 0 0
262 0 1 0 10.89266186187513 14.249963661935515 4.817243863351879 0 0 0
263 0 2 0 10.877601477079882 14.14539169065914 3.8578381173140746 0 0 0
264 0 2 0 11.555477799990618 14.899420582822806 5.063160647902193 0 0 0
265 0 1 0 13.957533113315634 12.56277314748799 9.445532194069903 0 0 0
267 0 2 0 13.960453773282424 13.028397217864862 8.573113815815553 0 0 0
268 0 1 0 14.546686089682964 12.301103477542062 0.2469484066048694 0 0 0
269 0 2 0 14.48453693008527 12.797111431662413 1.0940330707209935 0 0 0
270 0 2 0 13.97381788468674 11.544572229017989 0.3129703659001563 0 0 0
271 0 1 0 10.145946944411252 10.367353055518917 0.2667814044547874 0 0 0
272 0 2 0 11.172768924721161 10.254596804697602 0.24679762465747582 0 0 0
273 0 2 0 9.921850609716227 9.938614452587164 1.095459905312142 0 0 0
274 0 1 0 9.36956172275464 10.191569935855584 9.394020692042588 0 0 0
275 0 2 0 9.95142256159022 10.941010936249674 9.538818887113866 0 0 0
276 0 2 0 9.56856824613264 9.824715071150422 8.52377737936053 0 0 0
277 0 1 0 13.481482130691209 14.194007059087161 7.123504380398244 0 0 0
278 0 2 0 13.950467053277546 14.822279867427289 7.699823358139907 0 0 0
279 0 2 0 12.54510065136378 14.303994233778482 7.4659440237360615 0 0 0
280 0 1 0 14.75346307338262 13.801886525472 2.571033332161187 0 0 0
281 0 2 0 14.571229864717358 13.440883139797073 3.455156255521194 0 0 0
282 0 2 0 15.68155330247231 14.005188172484868 2.4349005856257397 0 0 0
283 0 1 0 10.339067641727075 8.698768483580714 2.7279447103343597 0 0 0
284 0 2 0 9.707990835565914 8.06650910863777 2.3804332914358866 0 0 0
285 0 2 0 11.220745622814164 8.526846657785256 2.403877000222485 0 0 0
286 0 1 0 8.962798384202436 8.600381996708245 7.069947636574701 0 0 0
287 0 2 0 8.020444772334788 8.588149529270284 7.253565799149568 0 0 0
288 0 2 0 9.089559431172336 8.923969330910603 6.145909357591582 0 0 0
289 0 1 0 15.347814163251318 10.11915119532966 2.4666892303318897 0 0 0
290 0 2 0 15.979122678684604 10.812372856380353 2.7681337815329954 0 0 0
291 0 2 0 14.445872986750542 10.498524340131139 2.4722319315135954 0 0 0
292 0 1 0 13.116336814055174 10.269683368427529 7.588589584168767 0 0 0
293 0 2 0 14.070135238286188 10.453203011082808 7.473622308249799 0 0 0
294 0 2 0 12.869847455747665 9.861254644922141 8.40920138481262 0 0 0
295 0 1 0 8.418816638578363 12.701915047847267 7.361858558291109 0 0 0
296 0 2 0 8.28908619905135 13.290056614963339 6.579239465355348 0 0 0
297 0 2 0 9.309843032770942 12.3833217206538 7.328938152907738 0 0 0
298 0 1 0 10.873541410021485 12.751956455490307 2.3645463846135413 0 0 0
299 0 2 0 11.189619381282531 12.842170546766393 1.4233183690170215 0 0 0
300 0 2 0 11.532550556612327 12.107657324304531 2.732761572883588 0 0 0
303 0 2 0 -1.798583304778869 11.193262369256635 7.1489280761740215 1 0 0
304 0 1 0 12.75038947807957 10.721629062522855 3.3158143603742762 0 0 0
305 0 2 0 12.530236584936361 9.957704678699292 3.912109771815644 0 0 0
306 0 2 0 13.048232497640434 11.385145685036454 3.9747890974116875 0 0 0
307 0 1 0 8.098160435444383 11.764622751652094 3.371074340584428 0 0 0
308 0 2 0 8.841844416699509 12.164477573118475 2.9244350795746277 0 0 0
309 0 2 0 8.519775068551912 11.05165747184795 3.9088978326748958 0 0 0
310 0 1 0 10.96383825232141 11.874594337958294 6.4694428958097205 0 0 0
311 0 2 0 11.800432420083093 11.642233478049835 6.957555188242105 0 0 0
312 0 2 0 11.159936220809717 12.634716289182773 5.882064284103235 0 0 0
314 0 2 0 0.04559432764377902 14.765576810871108 1.9932156034743813 1 0 0
316 0 1 0 10.912879056008405 14.713389297883522 8.405373041693982 0 0 0
317 0 2 0 10.67316886714487 13.780909899491004 8.645431495278093 0 0 0
318 0 2 0 11.172840961543228 15.183387132274447 9.221425244216096 0 0 0
319 0 1 0 6.699328472139346 8.100845237797502 8.36098726412768 0 0 0
320 0 2 0 7.106079677193883 7.384014028126828 8.867106517618227 0 0 0
321 0 2 0 5.992126472719719 7.562970771537036 7.948421972891304 0 0 0
322 0 1 0 12.812027088053924 7.908199071650912 1.8304338892903809 0 0 0
323 0 2 0 12.502626002040982 7.1572785457729236 1.2272531862018679 0 0 0
324 0 2 0 13.53005964678865 7.548945022131728 2.376875972704302 0 0 0
325 0 1 0 14.036157147288085 12.547402771033715 5.0959011581516425 0 0 0
326 0 2 0 14.646027541879128 12.000858058417222 5.565294570850638 0 0 0
327 0 2 0 13.822339297967556 13.301465257386178 5.610285813732236 0 0 0
328 0 1 0 9.545793022957762 9.945085963419485 5.022492967304251 0 0 0
329 0 2 0 10.004242439375677 9.643812158612326 4.202331151073079 0 0 0
330 0 2 0 10.182278119124131 10.510677714506524 5.4847888049686695 0 0 0
331 0 1 0 16.4481137965905 8.881575370640823 0.33502834987191443 0 0 0
332 0 2 0 16.065053391259188 9.401943098581661 1.0369396522963803 0 0 0
333 0 2 0 9.51331002765425 9.609417264894528 18.809782937282847 0 0 -1
334 0 1 0 4.41518734919726 14.073001772036806 19.158255478451743 0 0 -1
335 0 2 0 4.704406844800218 13.384293803850282 18.53872838065964 0 0 -1
336 0 2 0 3.575729948887272 14.394988028825285 18.780704469952 0 0 -1
337 0 1 0 6.165287936573211 16.08006068563273 4.980198222133601 0 0 0
338 0 2 0 6.806858416092421 15.381004890357268 5.14786576043115 0 0 0
339 0 2 0 6.152142474240032 16.207097609318094 4.030989395917657 0 0 0
340 0 1 0 3.3323339659104025 16.23465841608101 5.199587027463715 0 0 0
341 0 2 0 3.0603479785768517 15.392202412179605 4.853520758883096 0 0 0
342 0 2 0 4.3175760858355625 16.15785247415241 5.208240838612045 0 0 0
343 0 1 0 -0.8121174854417105 21.699682280801795 5.047712966831255 0 0 0
344 0 2 0 -0.9216777624735943 21.32574470286873 5.926562732091306 0 0 0
346 0 1 0 2.009651595639629 21.71856635189027 4.604700905484588 0 0 0
347 0 2 0 2.219662700040878 20.911283840613216 5.103000775609444 0 0 0
348 0 2 0 1.1401525461267241 21.91572048082695 4.9060871970300495 0 0 0
349 0 1 0 5.288417717193987 20.456720311345507 9.532967941676002 0 0 0
350 0 2 0 5.321168138648436 21.164524151359384 10.160737853744175 0 0 0
351 0 2 0 5.1356668215758345 20.86879927675689 8.667191220462255 0 0 0
352 0 1 0 5.693340746915119 19.731020119868262 0.22673643751561623 0 0 0
353 0 2 0 4.944936938066849 19.030706924637183 0.2349752795658498 0 0 0
354 0 2 0 5.690007395221944 20.304755524505342 1.0325372818954268 0 0 0
355 0 1 0 0.8791496636065271 17.697423721933447 0.39931435196510695 0 0 0
356 0 2 0 0.751224364416951 17.447025434395528 1.3441586289230432 0 0 0
357 0 2 0 -6.247684311986476 16.935630808044152 19.162903071088735 0 0 -1
358 0 1 0 0.38947485899505985 18.235277484199308 9.528212459354803 0 0 0
359 0 2 0 0.4661824793938192 17.41487541637867 10.077576058129651 0 0 0
360 0 2 0 1.147522019907702 18.742728707771565 9.70453589689071 0 0 0
361 0 1 0 4.223512218306933 21.664925370041164 7.300508554679377 0 0 0
362 0 2 0 4.843803138496321 22.42982618552688 7.37110097510152 0 0 0
363 0 2 0 3.335790199186234 21.85122468769805 7.740627884305571 0 0 0
364 0 1 0 5.837218560697639 21.268383112466857 2.5876148408039175 0 0 0
365 0 2 0 6.784387557480031 21.437777502296726 2.654956187568588 0 0 0
366 0 2 0 5.573435506940707 20.924408993169287 3.45203393175096 0 0 0
367 0 1 0 0.9433293327609916 16.107330848454136 2.572611616459054 0 0 0
368 0 2 0 1.8780958226850673 15.955367319864198 2.5134003745250832 0 0 0
369 0 2 0 0.8101660373502304 16.371466821306246 3.4890111651105853 0 0 0
370 0 1 0 -0.03384956320908916 16.26695816802798 7.426758773111011 0 0 0
371 0 2 0 0.2396216785185339 17.056379145265872 7.939963163430003 0 0 0
372 0 2 0 0.010684486760117018 16.609095541475888 6.513385121548955 0 0 0
373 0 1 0 6.213932772511262 17.69046800807805 2.477467340509974 0 0 0
374 0 2 0 6.2395850607894445 17.552358911040436 1.5157240336120585 0 0 0
375 0 2 0 5.323408790678791 17.990310035442246 2.6933276756928657 0 0 0
376 0 1 0 3.881091478123629 18.220171035961567 7.338602191814974 0 0 0
377 0 2 0 3.5151426574912 17.611744574420214 6.671282469954705 0 0 0
378 0 2 0 4.876617421253792 18.324606564338264 7.206723943605705 0 0 0
379 0 1 0 -0.4322023623479283 19.982085481279995 7.481338935765764 0 0 0
380 0 2 0 -1.0951712352977587 19.320480054492176 7.243288300884261 0 0 0
381 0 2 0 -0.5604646268806301 20.27558152332852 8.370848628070767 0 0 0
382 0 1 0 1.6559641550326512 20.028810120622705 2.2743764876914425 0 0 0
383 0 2 0 2.372367099868609 19.35815294556935 2.448837886893895 0 0 0
384 0 2 0 1.728313505640869 20.729582941500848 2.9613527695159965 0 0 0
385 0 1 0 6.352338403154349 18.541274296705016 6.57295234258507 0 0 0
386 0 2 0 7.180205313338343 18.906719979026274 6.921573263893115 0 0 0
387 0 2 0 6.581331087908938 17.807345256270004 5.963257186453486 0 0 0
388 0 1 0 3.754691095277128 18.36898207352696 3.4416465344212672 0 0 0
389 0 2 0 3.562969655140055 17.656749218768145 4.056143231166954 0 0 0
390 0 2 0 3.975253042321513 19.084591003267825 4.063774888765269 0 0 0
391 0 1 0 -1.0502774751305624 19.336258050650684 3.5963470120496472 0 0 0
392 0 2 0 -0.21484652313407326 19.5066116569033 3.159907217432493 0 0 0
393 0 2 0 -1.2017584298157766 20.160730685629662 3.990000530960939 0 0 0
394 0 1 0 1.9157021450145448 19.571048162502723 6.137482786633178 0 0 0
395 0 2 0 1.1649346261757096 19.752276322113158 6.681805850567939 0 0 0
396 0 2 0 2.6670539094767194 19.29476342056398 6.6880038806461455 0 0 0
397 0 1 0 8.38813646745558 21.81217428625136 1.835051158784937 0 0 0
398 0 2 0 8.463399057611179 21.22138637641667 1.0725358327365284 0 0 0
399 0 2 0 9.247905934083601 22.112398946548577 2.085126809170255 0 0 0
400 0 1 0 1.9679033438876434 22.302486266365406 8.573995677880871 0 0 0
401 0 2 0 2.1325321796242265 0.28581770601627227 9.151556716012044 0 1 0
402 0 2 0 1.1571535228003067 22.608529848996984 8.071148389192167 0 0 0
403 0 1 0 -2.5969001031151575 15.466936442613653 8.57608207208637 0 0 0
404 0 2 0 -1.869824322076298 15.938174491064656 8.16472652908404 0 0 0
405 0 2 0 -2.8898946528479375 16.211673967172064 9.122096351367732 0 0 0
406 0 1 0 3.5993114630688163 15.721186719881045 1.5767853219057646 0 0 0
407 0 2 0 4.263806023513212 15.371196385791288 2.2257951363560977 0 0 0
408 0 2 0 3.944187497717271 16.630716101438228 1.3741973021762461 0 0 0
409 0 1 0 4.9282959709606295 20.353998741238307 5.06090243514149 0 0 0
410 0 2 0 5.681956253322107 19.81051511643993 5.3729088062710675 0 0 0
411 0 2 0 4.523058609176306 20.84765994242243 5.805523180547102 0 0 0
412 0 1 0 0.3618739075139281 17.48583391770985 5.004247968500022 0 0 0
413 0 2 0 1.1069588244096396 18.083039648175962 5.088497656101838 0 0 0
414 0 2 0 -0.26136625869459684 18.10926272488851 4.560917772437696 0 0 0
415 0 1 0 -0.4817859230372834 16.641041651157835 19.255224023849372 0 0 -1
416 0 2 0 7.353060493640016 16.13666794747566 0.43022536930321514 0 0 0
417 0 2 0 -0.23965470743274775 16.949117902789403 18.33172388155483 0 0 -1
418 0 1 0 -4.52430928195676 21.397446620701576 19.176857176711543 0 0 -1
419 0 2 0 2.1895879469478405 20.610040615463447 0.5557560274450881 0 0 0
420 0 2 0 2.9587306134056983 21.85990982791373 0.5970624748274204 0 0 0
421 0 1 0 15.501808221757788 15.830070176506506 5.086860628762604 0 0 0
422 0 2 0 15.734501599614127 16.40779699263721 5.818357431883161 0 0 0
423 0 2 0 15.764568369785502 16.269644351144155 4.283023418792495 0 0 0
424 0 1 0 12.706018381287304 16.2647690355632 5.209136882013968 0 0 0
425 0 2 0 13.535580797261458 15.796048239256853 5.423934676930883 0 0 0
426 0 2 0 12.867252367355348 16.947052100614744 4.5405306544422155 0 0 0
427 0 1 0 8.373614896317179 21.695909466342666 5.029509404902479 0 0 0