LAMMPS (29 Sep 2021 - Update 2)
  using 1 OpenMP thread(s) per MPI task
echo both

include		in.partitions
variable        pid world 0
include		in.temp
variable        temperature equal 250
variable        tempDamp equal 0.100 # this is 0.1 ps
include		in.pressure
variable        pressure equal 5066.25
variable        pressureDamp equal 1.0 #this is 1ps
include		in.seed
variable        seed world 745823

units           metal
atom_style	full
include		in.box
read_data       iceV.data
Reading data file ...
  triclinic box = (0.0000000 0.0000000 0.0000000) to (18.399555 22.570389 19.505716) with tilt (0.0000000 -6.7926110 0.0000000)
  1 by 1 by 1 MPI processor grid
  reading atoms ...
  1008 atoms
Finding 1-2 1-3 1-4 neighbors ...
  special bond factors lj:    0        0        0       
  special bond factors coul:  0        0        0       
     0 = max # of 1-2 neighbors
     0 = max # of 1-3 neighbors
     0 = max # of 1-4 neighbors
     1 = max # of special neighbors
  special bonds CPU = 0.000 seconds
  read_data CPU = 1.556 seconds
include 	in.setup
variable	out_freq equal 500
variable	out_freq2 equal 500

timestep        0.0005

neigh_modify    delay 7 every 1

include         in.deepmd
# This is deepMD model

# create groups ###
#group ox type 2
#group hy type 1

mass 2 15.999
mass 1 1.008

pair_style      deepmd ../graph.pb
pair_coeff      * *

bond_style      none
angle_style     none
dihedral_style  none
improper_style  none
neigh_modify exclude none


neighbor        2.0 bin
neigh_modify    every 10 delay 0 check no

thermo          ${out_freq}
thermo          500
thermo_style 	custom step temp pe etotal epair emol press lx ly lz xy xz yz vol pxx pyy pzz pxy pxz pyz

restart 	${out_freq} restart.lmp.${pid} restart2.lmp.${pid}
restart 	500 restart.lmp.${pid} restart2.lmp.${pid}
restart 	500 restart.lmp.0 restart2.lmp.${pid}
restart 	500 restart.lmp.0 restart2.lmp.0


include         in.dump
dump            myDump all atom ${out_freq2} dump.water.${pid}
dump            myDump all atom 500 dump.water.${pid}
dump            myDump all atom 500 dump.water.0
dump            myDump2 all dcd ${out_freq2} dump.dcd
dump            myDump2 all dcd 500 dump.dcd
dump_modify     myDump append yes
dump_modify     myDump2 append yes


timer           timeout 03:55:00 every 1000
New timer settings: style=normal  mode=nosync  timeout=03:55:00

fix             2 all nph tri ${pressure} ${pressure} ${pressureDamp}
fix             2 all nph tri 5066.25 ${pressure} ${pressureDamp}
fix             2 all nph tri 5066.25 5066.25 ${pressureDamp}
fix             2 all nph tri 5066.25 5066.25 1
fix             3 all temp/csvr ${temperature} ${temperature} ${tempDamp} ${seed}
fix             3 all temp/csvr 250 ${temperature} ${tempDamp} ${seed}
fix             3 all temp/csvr 250 250 ${tempDamp} ${seed}
fix             3 all temp/csvr 250 250 0.1 ${seed}
fix             3 all temp/csvr 250 250 0.1 745823
velocity 	all create ${temperature} ${seed} dist gaussian
velocity 	all create 250 ${seed} dist gaussian
velocity 	all create 250 745823 dist gaussian

run             400000

CITE-CITE-CITE-CITE-CITE-CITE-CITE-CITE-CITE-CITE-CITE-CITE-CITE

Your simulation uses code contributions which should be cited:

- USER-DEEPMD package:

@article{Wang_ComputPhysCommun_2018_v228_p178,
  author = {Wang, Han and Zhang, Linfeng and Han, Jiequn and E, Weinan},
  doi = {10.1016/j.cpc.2018.03.016},
  url = {https://doi.org/10.1016/j.cpc.2018.03.016},
  year = 2018,
  month = {jul},
  publisher = {Elsevier {BV}},
  volume = 228,
  journal = {Comput. Phys. Commun.},
  title = {{DeePMD-kit: A deep learning package for many-body potential energy representation and molecular dynamics}},
  pages = {178--184}
}

CITE-CITE-CITE-CITE-CITE-CITE-CITE-CITE-CITE-CITE-CITE-CITE-CITE

Neighbor list info ...
  update every 10 steps, delay 0 steps, check no
  max neighbors/atom: 2000, page size: 100000
  master list distance cutoff = 8
  ghost atom cutoff = 8
  binsize = 4, bins = 7 6 5
  1 neighbor lists, perpetual/occasional/extra = 1 0 0
  (1) pair deepmd, perpetual
      attributes: full, newton on
      pair build: full/bin
      stencil: full/bin/3d
      bin: standard
Per MPI rank memory allocation (min/avg/max) = 7.699 | 7.699 | 7.699 Mbytes
Step Temp PotEng TotEng E_pair E_mol Press Lx Ly Lz Xy Xz Yz Volume Pxx Pyy Pzz Pxy Pxz Pyz 
       0          250   -178.42725   -145.88601   -178.42725            0    35902.978    18.399555    22.570389    19.505716            0    -6.792611            0    8100.4335    35443.664    36667.176    35598.094   -447.67289    1249.5323    368.63596 
     500    246.98699    -166.2294   -134.08034    -166.2294            0    10855.754    18.066939    22.282622    19.308778 -0.029252138   -6.7721028 -0.0076487039    7773.3042      9780.82    11308.199    11478.242   -2485.8446    28.970605   -306.59594 
    1000    250.55465   -165.68278   -133.06935   -165.68278            0    6275.5295    18.084249    22.662798    19.535132 -0.027182658    -6.901816  0.017026136    8006.2726    7364.8255     6618.821    4842.9419    2034.8264   -155.04307   -1219.1455 
    1500     245.1114    -165.9462   -134.04128    -165.9462            0      16452.5    18.068619    22.722305    19.400138 -0.019162324   -6.9681232 0.00091177626    7964.9338    19322.567    14061.515    15973.417   -1661.2469    2760.8819    1627.0504 
    2000    247.94297   -164.26097   -131.98749   -164.26097            0   -2592.1816    18.070744    22.680592    19.302083 -0.0043625815   -6.9998484 -0.041247384    7911.0583    203.84007    444.71161   -8425.0966   -426.16452    548.68912   -60.643642 
    2500    253.36797   -164.18873   -131.20909   -164.18873            0    6353.2844    18.200217    22.869065    19.357259 -0.0081536232   -7.0559034 -0.056456836    8056.9158    5321.4116    5373.5216    8364.9201   -2316.3215    -706.2675   -250.57201 
    3000    255.10322   -163.85541    -130.6499   -163.85541            0    10485.854    18.047191    22.646027    19.219261 -0.0016161111   -7.0176019 0.0045541918     7854.858    9198.7979    11905.634    10353.129    902.24286    2201.8077     546.6918 
    3500    245.54433   -164.86238   -132.90111   -164.86238            0    12.588488    18.142687    22.751653    19.420175 0.0015119703   -7.0752797   0.13990699    8016.1845    1239.2988   -447.24641   -754.28689    173.99842    279.89907   -4661.5492 
    4000    239.23809   -164.31903   -133.17861   -164.31903            0    7207.8345     18.13145     22.68717    19.395078 -0.015098918   -7.0592275   0.16754944    7978.1903    7142.1869    5818.5659    8662.7508    472.85918   -385.74252    2409.1529 
    4500    251.09696   -165.62713    -132.9431   -165.62713            0    7002.8886    18.104547    22.527313    19.316477 -0.055653246   -6.9781517  0.063628649    7878.1631    4959.4678    7177.2606    8871.9374   -477.85977   -1333.4024    753.87481 
    5000    240.30485   -163.90216   -132.62289   -163.90216            0    1943.2038    18.188287    22.662702    19.444383 -0.092741752   -6.8976457  -0.12847919    8014.8917    1288.5122    905.30956    3635.7895      2153.12    158.33522   -1398.9816 
    5500    251.77468   -166.23533   -133.46309   -166.23533            0    9610.2828    18.058645    22.614572    19.339292 -0.017582435   -6.7680794  -0.17632274    7897.9448     8870.774     7043.932    12916.142   -239.61848   -483.15673   -2184.6529 
    6000    255.28564   -165.55459   -132.32534   -165.55459            0     4418.187    18.161809     22.69582    19.322176  0.075906771   -6.7693636 -0.057413259    7964.5457    1930.0093     6770.115    4554.4368   -207.90604    -956.8852    1424.9461 
    6500    241.08121    -164.7092   -133.32888    -164.7092            0    3242.7152    18.114594    22.911163    19.215702   0.15129155   -6.8072384   0.22097898    7975.0238    4294.1459    1814.0453    3619.9545   -217.42172     123.3247    799.61497 
    7000    246.81143   -163.02281   -130.89661   -163.02281            0     4653.645     18.01305    22.943841    19.248959   0.14716726   -6.8770832   0.35941381    7955.3746    2955.5393    4085.7561    6919.6394   -2208.1172   -918.11526   -3105.4169 
    7500    247.59036    -163.7068   -131.47921    -163.7068            0    4243.3985    17.984417    22.853792    19.409628  -0.15713915   -6.9972958  0.043383808    7977.5925    5432.3244    4747.9069    2549.9643    931.72318    -498.1049    1535.4486 
    8000    251.76042   -165.48694   -132.71656   -165.48694            0    8857.7367    18.109693    22.615861    19.438654  -0.40694074    -7.082613  -0.28385728    7961.4175     12121.96    6683.0239    7768.2267    589.15949   -753.48742    2789.3523 
    8500    246.33383    -165.5997   -133.53566    -165.5997            0    7258.9691    18.300495    22.377658    19.360781  -0.30107795   -7.1389097  -0.17936314      7928.67    8854.9975    8337.8347    4584.0751    2844.8436    954.67584    2553.4256 
    9000    264.23391    -165.5295    -131.1355    -165.5295            0     4911.341    18.354545    22.459169    19.407264  0.065463242   -7.1008617   0.10657382    8000.2142    2719.5956    7155.7346    4858.6929    -3789.426     1017.157     256.4879 
    9500    258.58184   -164.96263   -131.30433   -164.96263            0    4730.1345    18.130927    22.581945    19.419506   0.20438296   -6.9752362   0.18702243    7950.9591    6410.4453    3354.7967    4425.1613    1260.0571    292.30966     1517.563 
   10000    253.31004   -163.93364   -130.96155   -163.93364            0    5335.0826    18.019433    22.787043    19.445095  0.094533178   -6.8541307  0.079604894    7984.3422    2014.8429    6876.4437    7113.9612   -418.81001   -1750.7677    4345.4717 
   10500    266.06906   -163.97935   -129.34648   -163.97935            0    1597.6041    18.040368    22.876702    19.357057 -0.031932157   -6.8299376  -0.10705069    7988.7369    1301.3849    1162.0511    2329.3762    2118.3126    1670.7053     4037.954 
   11000    256.73086   -164.99312   -131.57575   -164.99312            0    6989.1681    18.080995    22.828223    19.257404  -0.03808643   -6.8468104  -0.11130057    7948.6281    1883.6571    9143.0886    9940.7587    1481.6599    2221.1557   -2384.4786 
   11500    248.16077   -164.78768   -132.48584   -164.78768            0    3873.3198    18.164592    22.656415     19.33191 -0.019656773   -6.9045066  0.035748285    7955.9422    1831.9526     4581.651    5206.3559    60.364388   -1086.0682     -1981.92 
   12000    259.34187   -164.35215   -130.59492   -164.35215            0    2264.4384    18.199484    22.360989    19.526221 -0.0060523168   -7.0431546   0.23675281    7946.3606    2600.4486    3194.3202    998.54627    1239.7319   -47.080199    134.82501 
   12500    252.88805   -163.50519   -130.58802   -163.50519            0    7942.7196    18.234293    22.213737    19.681507 -0.044430523   -7.2033005   0.24249809      7972.03    5214.2296     9149.852    9464.0773    354.66062    2764.3562   -1413.1142 
   13000    256.38703   -163.39486   -130.02225   -163.39486            0    3737.6565    18.253882    22.324442    19.579064  -0.13669677   -7.2556929 -0.0006749284      7978.62    2232.1394    5956.1162     3024.714    44.152389    19.269534    3125.5087 
   13500    246.26868   -164.59054   -132.53498   -164.59054            0    6433.8424      18.1755    22.657855    19.258608  -0.09873714   -7.1578515  -0.19721896    7931.0385    2454.6325    6545.4541    10301.441    467.06649    239.20644    4655.3215 
   14000    240.65089   -165.16248   -133.83817   -165.16248            0    1846.7942    18.063762     23.07574     19.14336  0.068892265   -6.9770776 -0.030047752    7979.6161    1017.5633    1546.6024    2976.2167   -1058.8388    425.76891    3752.0925 
   14500     242.7322   -165.73754   -134.14231   -165.73754            0    5340.3188    17.839784    23.143549    19.185871   0.12320821   -6.7600831   0.11920582    7921.3837    7721.5695     4744.559    3554.8278   -1614.9907    639.99889   -1920.4522 
   15000    251.45917   -164.33112   -131.59995   -164.33112            0    3184.9232    17.882985    23.013212    19.324065  0.020583212   -6.6738096  0.056541272    7952.7212    -237.1031    2925.9999    6865.8728   -1149.2074   -2474.4673    598.99728 
   15500    241.69429   -163.56521   -132.10509   -163.56521            0    6656.7409    18.100348    22.700747     19.35008   -0.1744963   -6.6595965 -0.080539956    7950.7818    3607.8024    6605.4252    9756.9953   -564.59423   -1704.6994    3754.3193 
   16000    250.01458   -163.63107   -131.08793   -163.63107            0    6727.6954     18.27729    22.456494     19.39592   -0.2391623   -6.7219611  -0.14572416    7960.9361    6572.3247    3875.6336    9735.1279    230.10216   -2319.2171   -138.03924 
   16500    242.83868   -163.04174   -131.43265   -163.04174            0    5955.2045    18.278139    22.296445    19.483456  -0.13555149   -6.8427802 -0.068165162    7940.2394    6354.8822    6308.6793    5202.0518   -80.961274   -3373.8963   -2764.1401 
   17000    248.55128   -163.86439   -131.51172   -163.86439            0    4923.4723    18.106781    22.441967    19.551385   0.10073115   -6.9694017   0.15472223    7944.7405    2906.5081    5936.4771    5927.4317   -3200.4981    1673.2577   -843.00174 
   17500    245.14845   -164.04363   -132.13389   -164.04363            0    3130.0241    18.025717    22.667599    19.455273   0.20184011     -7.12329   0.28231805    7949.4195     1122.751    5130.5702    3136.7512    871.88625     1373.962   -3369.1459 
   18000    243.00651   -165.51172   -133.88079   -165.51172            0    9505.1447    18.055133    22.921242    19.189275    0.1281096   -7.1795482  0.050860073    7941.4061    8696.8348    9977.7819    9840.8175    -447.8708    538.16274   -1404.0069 
   18500    246.89601   -165.47176   -133.33455   -165.47176            0     1306.382     18.18276    22.883146    19.089299 -0.049634479   -7.1452446  -0.15262866    7942.6519    3503.1528    2160.1933   -1744.2001   -1650.0852    2301.7483    -660.5362 
   19000    255.58495   -165.84919   -132.58099   -165.84919            0    6398.6592    18.113788    22.766844    19.221673 -0.052235469   -7.0052599   -0.1817618    7926.8985    3442.8481    8438.1761    7314.9535   -1688.1819   -735.84345   -1109.0414 
   19500    247.15377   -164.49639   -132.32563   -164.49639            0    2250.4872    18.041975    22.649815    19.510427  0.054837155   -6.9146167 -0.041797726    7972.8853    5893.9707   -574.89467    1432.3854   -534.23636   -3862.9278    1311.3623 
   20000    244.71137     -165.815   -133.96215     -165.815            0     3052.217    18.042779    22.439371    19.523025   0.11785293    -6.808695   0.12007666    7904.2599    2325.0995    3489.8042    3341.7472    2242.4945    706.03481    1735.6454 
   20500    249.79776   -166.04643   -133.53151   -166.04643            0     2315.405      18.1794     22.45865    19.454445  0.028762105   -6.7497302   0.17497307    7942.9539    1533.0374    1644.5717    3768.6059   -316.35617    195.76532   -903.76728 
   21000    246.94529   -165.19588   -133.05226   -165.19588            0     3923.276    18.230312    22.604802    19.286027  -0.17025063   -6.7396966  0.021719091    7947.6288    5409.7262    3461.9414    2898.1603   -1943.3189   -2038.3953   -2656.8252 
   21500    240.64863   -166.16305   -134.83903   -166.16305            0    6785.0965    18.073933    22.789129    19.140046  -0.43081719   -6.7784579  -0.20399209    7883.5777    7688.9559    6784.3595    5881.9741    2427.1356   -609.60476    1844.6643 
   22000    252.09212   -165.21975   -132.40619   -165.21975            0    3494.5441    17.890184    23.186008    19.332496  -0.31375043   -6.8793208 -0.074716856    8019.1567    4384.9667    3952.8154      2145.85     603.0482    197.53635   -229.78229 
   22500    259.23734     -165.703   -131.95938     -165.703            0    4744.0327    17.788096    22.974443    19.303478 -0.036044165     -7.00329   0.22847755    7888.7833    8690.0449    2702.4049    2839.6485   -1596.9441   -1633.2345   -2811.1039 
   23000    244.36857   -166.06534   -134.25712   -166.06534            0    3254.2896    18.046661    22.831083    19.340545  0.080951784   -7.0967995   0.22208547    7968.7845    2882.6752    2236.2838    4643.9099    4604.2367   -374.54603   -1264.6171 
   23500    256.38198   -165.96834   -132.59638   -165.96834            0    4519.3271    18.278567    22.591748    19.324079  0.051779808   -7.1137456 -0.021374612     7979.778    6378.4446    3362.7107    3816.8259   -2266.5742     1744.994   -1349.0107 
   24000    260.94375    -164.5108   -130.54507    -164.5108            0    4913.8247     18.29968    22.382157      19.3051 -0.010957294   -7.0042738 -0.098879158    7907.1045    6216.3284    1981.7924    6543.3532    1102.3344    291.26171    1282.8033 
   24500    257.44848   -165.41085   -131.90007   -165.41085            0    4842.3515    18.162614    22.489799    19.537595 -0.010953224   -6.9042744  0.018179076    7980.5905    4953.0373      5129.74    4444.2773     1195.828    685.22551     4532.928 
   25000    252.10119   -164.38012   -131.56538   -164.38012            0    5554.4943    18.043966    22.506931    19.577138 -0.0085957854   -6.8265245   0.15302473    7950.5557    8637.5864    5076.0691    2949.8274   -924.69937    -2154.972     541.5709 
   25500    252.44081   -163.97327   -131.11432   -163.97327            0     6088.548    18.089467    22.755982    19.332088 -0.019020502    -6.754718   0.17436278      7957.93    4313.4221    6006.2809    7945.9409    724.10661    406.71313    162.22275 
   26000    252.87744   -163.29584   -130.38005   -163.29584            0    9183.7467    18.140278    22.967731    19.040284 -0.065011198   -6.7016472  0.030993066    7932.9638    6957.1772     7820.944    12773.119    1052.6195   -1877.8358    790.04438 
   26500    241.70414   -164.53295   -133.07154   -164.53295            0     4828.005    18.142343    23.087624    19.075174  -0.11164235   -6.7110683 -0.044943698    7989.8964    7144.5165    2795.6806     4543.818    1989.7499    2384.3379   -129.03315 
   27000    261.93028   -164.20009   -130.10595   -164.20009            0    4472.9074    17.953004    22.795162    19.349591  -0.11958666   -6.7796476 -0.024600286    7918.6581     4001.095    3318.8076    6098.8194    1196.9024   -2541.2773    3530.4003 
   27500    253.20959   -164.94969   -131.99067   -164.94969            0    5586.0077    17.999318    22.564446    19.657313 -0.052036934   -7.0058879  0.065802737    7983.7128    2648.8411    8013.7119    6095.4702    805.07734    416.93439    1553.9233 
   28000    250.22733   -165.21905   -132.64822   -165.21905            0     4583.961    18.142932    22.384113    19.513164  0.003295834   -7.2091611   0.14195139    7924.5581    3646.4592    4731.3802    5374.0436   -1414.7785    1204.6329   -412.06403 
   28500    242.57355   -163.45312   -131.87854   -163.45312            0    3797.0197    18.451805    22.451799    19.253967 -0.037932019   -7.3427718  0.094967502    7976.4603    3222.6909    4420.4509    3747.9173   -118.20428   -1014.6132   -1977.0683 
   29000    248.48023   -164.64882    -132.3054   -164.64882            0    3777.3566     18.42535    22.595845    19.146106  -0.15238071   -7.2539008   0.01791384      7971.22   -4912.3894    6830.9725    9413.4868    -1263.384    2108.6726   -1148.5688 
   29500    255.06508   -163.77685   -130.57631   -163.77685            0    5939.9683    18.058824    22.746072    19.329875  -0.15705024   -6.9792505 0.0038518056    7940.0809    7747.1512    4388.6531    5684.1005    1201.2396   -492.28278    2231.4204 
   30000    268.51753   -163.49152   -128.53994   -163.49152            0    4935.9037    17.951682     22.91627     19.48816 -0.069740999   -6.7954374  0.073829098    8017.1481    3821.2267    5274.0139    5712.4704   -2142.3304    172.38061     269.2988 
   30500    253.73517    -163.8391   -130.81167    -163.8391            0    6312.3537     17.96757    22.882785    19.319666 -0.012666689   -6.7276402  0.085514925    7943.2432    5324.8598    6803.0397    6809.1614   -243.94186    388.90336    739.88658 
   31000     265.0606   -164.97727   -130.47566   -164.97727            0    5790.5416    18.185219    22.834341    19.242136 0.00080293088   -6.7731507   0.08884986    7990.2485    5438.4659    5362.0772    6571.0816       775.43   -227.24839     3655.708 
   31500    259.36687   -164.59197   -130.83149   -164.59197            0    4152.9487    18.176066    22.687031    19.271098  -0.10020246   -6.8341088 -0.010634097    7946.6488    5689.6475    2544.0479    4225.1507   -965.30138   -2896.7678   -685.43678 
   32000    258.97127    -166.2633   -132.55431    -166.2633            0    7722.3603    18.155927    22.527117    19.418428  -0.13130576   -6.9139244 -0.093952494    7942.1504    7224.7298     7321.068    8621.2831   -1110.2058    1270.5463    4816.1995 
   32500    253.40768   -164.51688   -131.53208   -164.51688            0    4366.5741    18.036913    22.463143    19.530738 -0.071326935   -6.9344054 -0.037185222    7913.1863    6513.9314    3752.1343    2833.6567    1189.0378   -1627.8159   -490.67183 
   33000    240.51011   -162.78891   -131.48292   -162.78891            0    2771.5073    18.042708     22.73154    19.441226  0.097049841   -6.9856582   0.11312981     7973.596    4564.8312    2669.7362    1079.9546    1139.9226   -1585.5248   -1529.5754 
   33500    254.36133   -165.48329   -132.37436   -165.48329            0    4154.8592    18.095853    22.957306    19.119695   0.18170115   -6.9499874   0.21346705    7942.9341    5033.8051     2942.261    4488.5114   -739.19741    919.34745    870.71705 
   34000    240.40903   -165.21903    -133.9262   -165.21903            0    5197.6068    18.008198    23.051968     18.95159 -0.027667025   -6.8785902  0.078429175     7867.268    5616.0099    4193.2838    5783.5266    -1078.416    1892.5375    116.76843 
   34500    240.51288   -166.12568   -134.81933   -166.12568            0    3084.9365    17.969228    23.136513      19.2796  -0.30563896   -6.8082432  -0.18173757    8015.4026    2055.6963    4030.8499    3168.2635   -2173.8615     819.5612   -1344.4876 
   35000    244.70551   -166.75844   -134.90636   -166.75844            0    6352.7835     17.87894    22.709816    19.341262  -0.23368332   -6.7504863   -0.1876966    7853.0831    7908.4514    6046.8394    5103.0597    2129.0406    776.40307    6423.7504 
   35500    252.01807   -166.34341   -133.53949   -166.34341            0    2677.6207    18.174123    22.558363    19.454243  0.059266216   -6.7671269  0.035595252    7975.8207    3580.8274    2697.9854    1754.0492    2532.7933   -1145.2212   -1557.2146 
   36000    248.33652   -165.10111    -132.7764   -165.10111            0    5984.7577    18.268193    22.398627    19.340267   0.16997492    -6.823466   0.14303461    7913.6976    8430.9727     3771.203    5752.0974      596.589   -513.12684     1493.032 
   36500    243.60702    -164.0509    -132.3418    -164.0509            0    6343.2646     18.21224    22.414269    19.432732  0.092764233   -6.9222789  0.075471689    7932.7141    5595.6565    6043.1343     7391.003   -2565.9223   -648.34028    1154.1167 
   37000    257.25922   -165.92531   -132.43917   -165.92531            0    5496.6458    18.064897    22.540092    19.555887 -0.030641574   -6.9991391 -0.055552215    7962.8526    7395.8349    5315.9998    3778.1026    950.50788   -452.38527    1245.3964 
   37500    259.15203   -166.25504   -132.52253   -166.25504            0    5139.5579    18.007014    22.701533      19.3907 0.0037830118   -7.0007584 -0.058279198    7926.6623    6086.8958    5813.4073    3518.3705    784.23254    -162.4786    840.90983 
   38000    260.75944   -165.09431   -131.15257   -165.09431            0    2782.2535    18.155853    22.843326    19.198234   0.11920684   -7.0483264  0.047863395    7962.2769    2858.5836     2609.395    2878.7817    -974.2002    1995.5636    1449.6812 
   38500    256.63437   -165.37005   -131.96525   -165.37005            0    3961.9257     18.18992    22.820226    19.187416   0.12566671   -6.9515787    0.1115919    7964.6599    3690.3423    1813.3892    6382.0455   -944.03966    781.98683    2477.5985 
   39000    251.36299   -165.99768   -133.27903   -165.99768            0    6428.7041    18.017749    22.611317    19.450127 -0.085511666   -6.6769226   0.07968656    7924.0793    9941.4859    6709.4475    2635.1789   -521.07157     -490.409    1073.5261 
   39500    255.06541   -164.65149   -131.45091   -164.65149            0    1014.9336    17.997069    22.442644    19.699484  -0.33287191   -6.4958786 -0.051163515    7956.6576    2073.0144    1269.9269   -298.14037    3209.8646   -1335.9349    1891.8309 
   40000    249.13604   -164.59337   -132.16458   -164.59337            0    4564.4092    18.111302     22.47688     19.57304  -0.31449207   -6.5057192 -0.021292356    7967.9017    3772.5527    4232.6539    5688.0211    2733.5673   -1943.6241    819.97209 
   40500    250.09349   -165.83752   -133.28411   -165.83752            0    5116.8914    18.215277    22.601696    19.295984 -0.015197683   -6.6718074   0.16728765    7944.0821    6694.2924    1419.9535    7236.4283     355.9398   -2545.4938   -295.90495 
   41000    248.42714   -165.53227   -133.19576   -165.53227            0    5222.8325    18.178467    22.833326    19.219807   0.20274962   -6.8777769    0.1839889    7977.6592    6881.1699    2009.2434    6778.0843    -1020.271    1407.2716   -2938.6048 
   41500    256.08156   -164.97819   -131.64534   -164.97819            0    7067.0503    17.968402    22.821209    19.233083   0.18632803   -7.0015235  0.010142913    7886.7306    6378.4886    8629.4224      6193.24   -2265.0696   -980.20484     763.5876 
   42000    245.50472   -164.67419   -132.71808   -164.67419            0    5038.5757    17.968306    22.851665    19.439935  0.046873514   -7.1304081  -0.10705537    7982.1486    6501.1579    4268.9053    4345.6639    67.271863    1017.4164   -1555.4332 
   42500    255.21973   -165.17631   -131.95564   -165.17631            0    6019.7943    18.054447    22.669055    19.451168  -0.11081276   -7.1982693  -0.06498661    7960.9204    6080.9258    8415.3997    3563.0575   -1336.3759   -877.47171    790.20111 
   43000    260.48625   -164.90643   -131.00025   -164.90643            0    5022.6587    18.287444    22.451691    19.376377  -0.15172077   -7.1918442   0.11945165    7955.6311    4277.3145    7869.7231    2920.9384   -3172.7781     1016.452   -833.49894 
   43500    253.19121   -164.87382   -131.91719   -164.87382            0    6806.6755    18.254241    22.432793    19.365725 -0.046048187   -6.9899814   0.23935994    7930.1409    6043.7935    5641.7557    8734.4773   -221.59799   -2470.8659   -457.81004 
   44000    244.65418   -164.48128   -132.63587   -164.48128            0    2018.4772    18.095113     22.60289    19.516794 0.0035997938   -6.7312022   0.15647274    7982.4048    1865.9483     1998.704    2190.7794   -1833.9589     -393.991     1082.426 
   44500    256.93774   -165.68832   -132.24403   -165.68832            0     5771.957    17.934763    22.788567    19.448756 -0.0045339317   -6.4664996 -0.063511422    7948.8532    8871.2932    4457.1383    3987.4395   -494.41917   -2629.6014   -1570.4032 
   45000    247.12537   -166.29945   -134.13238   -166.29945            0    9438.8674    18.017933    22.916328    19.234296  0.025517463   -6.4870822  -0.27810399    7941.9348    10572.284    8932.0153    8812.3031    2574.5259    477.95845    3414.8709 
   45500     242.0543   -164.81636   -133.30938   -164.81636            0     1530.504    18.238936    22.878541    19.154278   0.16246574   -6.7513528  -0.24750281    7992.7021   -1999.9552    982.00602    5609.4612    440.16412   -2190.0972    1703.6463 
   46000    247.14446   -164.96301   -132.79346   -164.96301            0    8710.6654     18.07543    22.623597    19.209883   0.24038902   -6.9907653 -0.045403503    7855.5214    9429.9633    8459.1795    8242.8534    148.30416   -2908.3229    447.13348 
   46500    249.36728   -165.15473   -132.69585   -165.15473            0    3814.6466    18.144624    22.674686    19.560848   0.12225107   -7.1896896   0.13551028    8047.7954    3323.3316    4538.0872    3582.5211   -1792.7008    1519.1025    -3283.273 
   47000    248.93188   -164.46221      -132.06   -164.46221            0    2086.7707    18.031859     22.54377    19.452129 -0.057948868   -7.1588632   0.17622599    7907.4087    835.02316     2294.419      3130.87    1807.2183    -1227.774   -2027.5402 
   47500    256.52963   -164.57152   -131.18035   -164.57152            0    4384.5258     18.19402     22.61398    19.409631  -0.16778594    -7.085889   0.12722022    7985.8832    7071.8801    1211.4077    4870.2895   -4058.2218    2372.5991   -186.93106 
   48000    259.89983   -165.29136    -131.4615   -165.29136            0    3955.8885    18.197851    22.678711    19.346533  -0.14766412   -6.9392832   0.01093369    7984.3876    2525.8313    5146.8765    4194.9577   -277.79696    7.3479915    1919.1455 
   48500    255.23855   -165.03611     -131.813   -165.03611            0    3519.8636    18.060774     22.73087    19.345906 0.0083553525   -6.7492669 -0.090370067    7942.2125    4496.9435    1876.3466    4186.3009    -1583.343   -1078.0722     335.3156 
   49000    264.09649   -165.15974   -130.78363   -165.15974            0    5208.8345    17.929448    22.834167    19.397406    0.1552294   -6.7252918 -0.078454593    7941.3758    241.55308    6220.6778    9164.2726   -861.13274   -914.56419   -105.66022 
   49500     266.8489   -161.95679   -127.22241   -161.95679            0    4176.4307    18.073318    22.877829    19.462618   0.27654829   -6.9167852  0.077449602    8047.3694    3296.9209     6226.573    3005.7983    1587.3661    871.75316    27.914587 
   50000    262.71324   -164.17309   -129.97703   -164.17309            0     7242.462    18.190936    22.567066    19.235946   0.19992093   -7.1001875   0.20775671    7896.6646    8362.9715    7076.0448    6288.3697   -337.40402    699.46545   -986.56599 
   50500    247.35849   -165.08063   -132.88323   -165.08063            0    3929.5487    18.338075    22.443928    19.325649  -0.12848057   -7.2559723   0.17012776    7954.0203    2361.9894     4708.497    4718.1599    1030.5718    430.48647    -2487.049 
   51000    253.45571   -164.12121   -131.13016   -164.12121            0    5628.7298    18.223705    22.462607    19.540074  -0.40523001   -7.1697637  0.052088515    7998.7668    4708.4744    3617.3287    8560.3863   -247.85291   -930.97067   -2884.0519 
   51500    255.22127   -165.69112   -132.47025   -165.69112            0    6258.0548    18.104497    22.482929    19.463562  -0.44119985    -6.944639  0.017478184    7922.4898     5210.761    9799.6553    3763.7482   -159.15803    2545.9827   -215.26651 
   52000    241.49352   -165.26125   -133.82726   -165.26125            0    478.31363    18.124647    22.745242    19.297257  -0.11873486   -6.6586866   0.11121805    7955.2839    530.90967    851.53467    52.496545   -1325.8587    808.82457   -212.58049 
   52500    253.25628   -163.61273   -130.64763   -163.61273            0    5062.9888    18.051417    22.894057    19.210509   0.16164339   -6.4955314    0.1048056    7939.1302    3148.0972    3182.4185    8858.4507   -2693.4996   -2372.7622   -2609.9192 
   53000     249.6669   -165.06635   -132.56847   -165.06635            0    5059.1656    17.972753    22.973242    19.334521   0.24428744    -6.457141 -0.069118427    7983.0769    4661.9011    6127.8218    4387.7738    1263.2903    2374.6457    1292.7856 
   53500    246.10964   -163.99195    -131.9571   -163.99195            0    1581.9439    17.891467    22.781434    19.423179   0.16484753   -6.6387855  -0.27751091    7916.7575    3735.1087    1295.7455   -285.02253   -3691.0598   -2327.8041   -2600.3887 
   54000    253.41926   -164.05506   -131.06875   -164.05506            0    7669.8477    18.095647    22.569411    19.533658 -0.021767482   -6.9894688  -0.34267853    7977.7044    7927.7352      8548.49    6533.3178    -66.79328   -677.64663    1231.4416 
   54500    250.62583   -166.24499   -133.62229   -166.24499            0    2281.0297     18.28617    22.356413    19.467623 -0.075282167   -7.2666798  -0.12730068    7958.6208    865.58731    5372.2324    605.26943   -278.46783   -692.37986   -263.61898 
   55000    238.59081   -163.64132   -132.58516   -163.64132            0    6541.5987    18.318323    22.313044     19.33746  -0.05479693    -7.334499   0.16593502    7903.9458    4269.8718    7203.6181    8151.3062    4200.3185    1005.2499   -266.47083 
   55500    235.06011   -165.26564   -134.66905   -165.26564            0    2514.0802    18.284395    22.601528    19.462503 0.0080814337   -7.2106873    0.2775262    8042.9819    -1920.405    5246.1845    4216.4611   -3574.0034    294.05996   -2975.4695 
   56000    261.24208   -164.42419   -130.41962   -164.42419            0    6253.4337    17.969572    22.684861    19.393681 -0.0028829172   -6.8716972   0.18405769    7905.5866    6897.6548    4920.9139    6941.7325    3116.8401   -976.74951   -352.76101 
   56500    246.24488   -163.88614   -131.83368   -163.88614            0    5471.4111    17.923513    22.889878    19.389457 -0.053539296    -6.658606   0.04924761    7954.8549    5993.6138    4518.7874     5901.832    1022.4705   -1443.9225    2908.9394 
   57000    251.30404   -164.85465   -132.14367   -164.85465            0    2177.6838    18.139658    22.895243    19.255031 -0.052592496   -6.6010051 0.0099805443    7996.8434     803.0645    727.90456    5002.0822   -407.66055   -2397.2033   -3531.8754 
   57500    255.55899   -165.28348   -132.01866   -165.28348            0     9420.627     18.14429    22.608376    19.138268  -0.02636483   -6.6578691  0.061123243    7850.7649    11053.202    8372.0241    8836.6552   -3027.4502    754.47688   -1059.5647 
   58000     248.1352   -164.70802   -132.40951   -164.70802            0    2590.2499    18.293782    22.593855    19.517424 -0.0006417563     -6.86449   0.11926875    8067.0792    2960.9193     3777.456    1032.3744     504.9503    169.56196    1068.1288 
   58500    253.78873   -164.91524   -131.88083   -164.91524            0    5054.7985    18.046895    22.332041    19.512122 -0.0086947123   -6.9406028  0.062702833    7863.8535    3408.1456    8067.4993    3688.7507   -2467.3782    1103.3759   -1491.9664 
   59000    257.25021    -165.0438   -131.55884    -165.0438            0    4492.1939    18.105319    22.587086     19.53538  -0.11000052   -7.0166515 -0.058869719    7988.9234    1944.6332    7349.1294    4182.8192    -315.6056    1627.5712   -743.34621 
   59500    260.15967   -164.72915   -130.86548   -164.72915            0    3690.3915    18.156068    22.643533    19.373801 -0.093023932   -6.9712633 -0.083960968     7964.909    4557.9627    4075.4849    2437.7269   -946.46999    216.72078   -251.99487 
   60000    241.92667   -164.86106   -133.37068   -164.86106            0    6761.9371    18.077415    22.617868    19.278019   0.04470125   -6.8660313 0.0036392246    7882.2535    9576.7259    2635.8307    8073.2545    1022.8299    300.02976   -1617.2842 
   60500    243.25833   -165.24767   -133.58396   -165.24767            0    3626.9521    18.157544     22.74816    19.469489   0.15076878   -6.8277629   0.12606926    8041.8862    4088.1965    4724.4175    2068.2425   -1059.7986    2098.1456   -3389.5792 
   61000     246.5387   -164.30188   -132.21118   -164.30188            0    7085.6884    18.012337    22.513021    19.328288   0.21457469   -6.7321237  0.095595912    7837.8551    5383.9302    7420.3254    8452.8098   -2030.0423   -661.71252    -6154.508 
   61500    254.99446   -165.48145   -132.29011   -165.48145            0    5622.4932    18.160129     22.63352    19.420025  0.013287752   -6.7895974  -0.10985787    7982.1672    3055.2103    7427.0123    6385.2571   -2309.0049    267.78401    763.09583 
   62000     260.0749   -165.17434    -131.3217   -165.17434            0    4824.0694    18.247892    22.481299    19.394003  -0.23333866   -6.9155543  -0.17624571    7956.1242    1312.1585    4665.3075    8494.7421    4824.8445   -450.50481    1699.4909 
   62500    249.90851   -164.94841   -132.41908   -164.94841            0    5544.2546    18.157004    22.453625    19.388367   -0.2002738   -6.9414177  0.077387136    7904.4541    4293.6618     9874.025     2465.077    1403.8498    2620.6252   -465.99236 
   63000    250.23967   -162.29741   -129.72497   -162.29741            0    4910.6866    18.078977    22.814567    19.425199 -0.0087073969   -6.9657299   0.46461847    8012.1959    5860.9314    3045.5569    5825.5716   -2266.3548    342.55478   -4082.1101 
   63500    252.56375   -164.97203   -132.09708   -164.97203            0    2292.2678    17.944207    22.902772    19.330868   0.13112099   -6.8662074   0.45241225     7944.447    958.74802    3740.6606    2177.3946    2989.8699   -2120.2104   -3381.3727 
   64000    262.16044   -165.70622   -131.58212   -165.70622            0    4444.4712    17.935268    22.922624    19.184308  0.042160212   -6.7459959 -0.027858852    7887.1181    6516.9143     1243.594    5572.9052   -964.94202    748.17953   -1224.9472 
   64500    249.79836   -164.63615   -132.12115   -164.63615            0    2500.8897    18.143234    22.977513    19.271137 -0.083624836   -6.7510201  -0.35536984    8033.8745    5833.4816    1760.5867    -91.39923   -1697.4988   -821.35999   -118.11669 
   65000    241.43673   -165.60007   -134.17347   -165.60007            0    6691.6727    18.070228     22.68533    19.239238 -0.0057214667   -6.7512264  -0.26196113    7886.7229    7010.1967    8645.8243    4418.9972    1045.0078   -1059.4515    1923.8075 
   65500    235.43598   -164.12214   -133.47663   -164.12214            0    4756.1243    18.135746    22.609518    19.466322  0.096557845   -6.8845397  0.040574046    7981.9802      6750.19    4598.3261    2919.8568    1381.0967    249.37492   -1516.7385 
   66000    262.39566   -164.16698   -130.01225   -164.16698            0    5137.0396    18.130173    22.499007    19.461493   0.08451926   -6.9322862   0.21862784     7938.555    2100.8073    4725.0683    8585.2431   -18.737646    261.43049   -2550.1344 
   66500    252.27692   -163.17718   -130.33957   -163.17718            0    4389.1555    18.191015     22.59321     19.35578 -0.059529456   -6.9967546   0.20279579    7955.0984    5606.2351    1502.9229    6058.3085   -741.65678    1069.4531   -3219.7706 
   67000     244.4437    -164.7737    -132.9557    -164.7737            0    1374.6621    18.179383    22.753234    19.245596  -0.23705974   -6.9708185  0.024519456    7960.7437    268.06201    1199.3938    2656.5304   -79.434002    2039.8884    292.89607 
   67500    252.69384    -165.1747   -132.28282    -165.1747            0    2817.3575    17.993289    22.882132    19.251829  -0.32547819   -6.8504391  -0.17545202    7926.4556    216.01669    2756.4276    5479.6282    3056.3042   -199.65554    1776.5047 
   68000    246.73904   -165.16699   -133.05021   -165.16699            0     7063.739    17.865729    23.029612    19.400749  0.010057393   -6.6984354  -0.13550005    7982.2595    11953.916    5592.3647    3644.9361    1483.5919   -1641.0248    114.27335 
   68500    250.09496   -163.67943   -131.12583   -163.67943            0    6196.0962     17.87976    22.857087    19.305483   0.41854162   -6.6926043  0.058017667      7889.75    10484.359    4935.8719     3168.058   -4503.6458    718.70853   -2640.1554 
   69000    237.30517   -164.69991   -133.81109   -164.69991            0    4673.2022    18.196674     22.80143    19.284059   0.52267679   -6.8644466   0.14394212    8001.1527    4220.7699    5426.5093    4372.3275   -1246.6779    -2458.117   -5731.1416 
   69500    252.15145   -166.47875   -133.65747   -166.47875            0    4459.7876    18.187339      22.5891    19.244342   0.13313832   -6.9702596 -0.00076664331    7906.2614    2788.9599    4860.3191    5730.0838   -461.29261    245.94214    1719.3752 
   70000    251.90697   -166.06625   -133.27679   -166.06625            0    4073.5103     18.16964    22.587201    19.412936  -0.23382247   -7.0436777  -0.10917164    7967.0944    5522.1499    3259.8247    3438.5562    111.59827   -934.08428   -415.45716 
   70500    238.86516   -164.79673   -133.70485   -164.79673            0    2848.5408    18.108395    22.576561    19.453491  -0.22408254   -7.0858412 -0.013693452    7953.0792    2636.8003    2623.0908    3285.7313     294.6504   -1290.5187   -4493.1055 
   71000    253.79869   -165.72359    -132.6879   -165.72359            0    2999.2768    18.082979    22.633758    19.389954 -0.018116461   -7.0777167   0.16477009    7936.0325    3212.9721    3613.8544    2171.0039   -181.72865    853.52245   -587.75382 
   71500    246.24364    -164.8388   -132.78651    -164.8388            0    5162.4171    18.054122    22.747533    19.351672   0.11456231   -7.0521897    0.1583055     7947.475    7070.1434    4127.7768    4289.3311    1205.3249   -1291.2592    1041.8381 
   72000    252.96468   -162.36445   -129.43731   -162.36445            0    3954.0669    18.101655    22.802281    19.321556   0.10227476   -7.0058492 -0.072036168    7975.1467    5603.9056    1500.0602    4758.2349   -572.44226   -2466.3236   -548.30556 
   72500    250.45273   -164.57869   -131.97852   -164.57869            0    4879.2956    18.153513    22.761308    19.185308 -0.0076036062   -6.8815542  -0.34170356     7927.325    3959.1939    4662.3274    6016.3656    1527.4789    3518.9954    652.27173 
   73000    245.10656   -165.58526   -133.68098   -165.58526            0    3387.5714    18.196895     22.74322    19.329319 -0.059243276   -6.6995218  -0.34891771    7999.5542    2207.4977    4448.2725    3506.9439    1017.2546   -1981.0161    2308.7845 
   73500    258.90898   -165.01411   -131.31323   -165.01411            0    7470.3597    18.038944    22.510073    19.424159 -0.054192813    -6.514027  0.086019451     7887.334     9049.162    7393.6075    5968.3097   -436.16166    558.01785   -1810.6571 
   74000    245.19933   -164.69411   -132.77774   -164.69411            0    5636.2959    18.144407    22.494711    19.590961 -0.053145124    -6.572181   0.41092221    7996.1137    5901.8379    5148.2179    5858.8319    -983.2215   -3950.3043   -1688.6822 
   74500    249.45798   -165.26548   -132.79479   -165.26548            0     7193.882     18.15312    22.455647    19.524434  -0.16872136   -6.7660628   0.34144436    7958.9413    8501.9517    4400.3155    8679.3787   -2707.1066    -1488.177    301.01046 
   75000    252.77296   -164.36844   -131.46626   -164.36844            0    5051.2532    18.173416    22.501539    19.370674  -0.25777401   -6.9809816 0.0045959747    7921.2463    6015.1257    6726.1712    2412.4628    893.33796    974.00924    -1337.308 
   75500    247.46069   -165.32362    -133.1129   -165.32362            0     2071.062    18.171914    22.768771    19.380808  -0.16284388   -7.1146503  -0.19280661    8018.8511    2101.5388   -440.97256    4552.6199   -1180.9094    818.39483    215.83772 
   76000    246.30614   -164.07874   -132.01831   -164.07874            0    7119.1614    18.083616    22.707662    19.257125   0.10478237   -7.1438142  -0.11539837     7907.681    6621.4107    8330.6836    6405.3898    636.37573    2418.0367    3365.4429 
   76500    234.53492   -166.67344   -136.14521   -166.67344            0    1117.6663    18.120322    22.783833    19.354618   0.26820999   -7.0936831  0.071280116    7990.5617    1340.4981    1426.7484    585.75232   -743.53845    -372.9361   -1470.0169 
   77000    247.63126   -167.38673   -135.15382   -167.38673            0    8173.7628    18.010617    22.673836    19.315784   0.16912272   -6.8545149  0.063038091    7887.9824    9357.9167    6987.5309    8175.8408   -37.710711   -570.47148    1224.6221 
   77500    246.38932   -164.46775   -132.39649   -164.46775            0    1407.8438    18.178256    22.660686    19.356341  -0.13259897   -6.6878785 -0.064796154    7973.4915    1646.3234    1981.0896    596.11823   -3309.9552   -2538.3953    2629.2176 
   78000    258.54382   -163.54393   -129.89058   -163.54393            0    4417.4063     18.23032    22.557382    19.411816   -0.3880885    -6.538602  -0.14240399    7982.6884    7492.8811    2175.9882    3583.3496    201.15527    46.882827    292.82215 
   78500     246.0587   -165.83015   -133.80193   -165.83015            0    4997.5951    18.102355    22.449485    19.472053  -0.28771385   -6.4727756  0.020535295    7913.2193    5592.6731    5514.1494    3885.9628    429.88702    349.95693    2870.7555 
   79000    242.77471   -165.17556    -133.5748   -165.17556            0    4741.0312    18.055761    22.606627    19.519873  0.056795273   -6.6704244    0.3397467    7967.6189    6657.5762    4756.3393    2809.1781   -3281.2555    1360.3384    932.42276 
   79500    242.90004    -163.1629   -131.54583    -163.1629            0    3178.5869    18.045929     22.83178    19.365899   0.22950093   -6.9094773   0.31898677     7979.151    4984.6897    4285.5905     265.4806   -1592.5303    -920.0575    1767.1409 
   80000     259.5623   -164.81964   -131.03373   -164.81964            0    6053.6938    18.027814    22.888798    19.186358   0.14345461   -7.0891502  0.005245687    7916.9626    5223.6955    6909.5003    6027.8854    333.38525    377.78442   -3591.4364 
   80500    244.99163   -163.77816   -131.88884   -163.77816            0    3545.8793     18.10692     22.94307    19.285898 0.0030199184   -7.1716694  -0.26002308    8011.9084    1039.1168    4173.8099     5424.711    -1467.544   -797.66099   -299.92015 
   81000    251.54426     -164.997   -132.25475     -164.997            0    7212.5059    18.049022    22.721485    19.336045 -0.078016047   -7.0845982   -0.2490285    7929.7232    7328.5566    7492.9445    6816.0167   -148.34019   -616.51959    -1165.733 
   81500    248.40696   -165.40927   -133.07539   -165.40927            0    1779.7183    18.116664    22.556173    19.446534  -0.06182668   -6.9777977 -0.061936202    7946.6827    2609.2325     1221.157    1508.7655   -936.30099   -1905.3764     2965.699 
   82000    246.20403   -165.55844    -133.5113   -165.55844            0     4811.736    18.227743    22.449313    19.491345  0.017761723   -6.8957306  0.059882999    7975.8646    7729.7564     3169.947    3535.5045   -2429.1519    226.96466   -2828.2165 
   82500    255.18623   -163.29569   -130.07939   -163.29569            0    2243.5597     18.23434    22.354654    19.448436  0.013147779   -6.7713316  0.097494409    7927.6175    4275.8648    1613.8425    840.97187   -1149.3569   -479.91861   -1564.0038 
   83000    240.24566   -162.77212   -131.50056   -162.77212            0    2471.4258    18.190556    22.607211    19.434051 -0.0075298732   -6.6130857  0.094608782    7992.0151    3268.3628    1905.8615    2240.0532    567.37876    2456.8639   -73.372207 
   83500     247.2995   -163.97596   -131.78623   -163.97596            0    4996.7949    17.831753    22.997185    19.368863 -0.030176239   -6.4226362 -0.019379708    7942.7857     5972.089    3828.6692    5189.6266    2295.6178   -227.76768   -3573.2732 
   84000    255.86985   -162.98472   -129.67943   -162.98472            0    5444.7791    17.748043     23.28165    19.219566  -0.14472626   -6.4349407  -0.18451193    7941.5963    7259.9667    5244.0891    3830.2815    2138.3505     1160.097    1514.5654 
   84500    255.89772   -164.88387   -131.57496   -164.88387            0    3245.5921    17.985231    23.319269    19.096717  -0.21082781   -6.7239701  -0.18673897    8009.2096    1989.8529    2432.9832      5313.94    2351.9508    349.69271    226.23499 
   85000    248.07069   -164.75026   -132.46015   -164.75026            0    7925.1025    18.207962    22.755543    19.037229 -0.051654121   -7.1573806  0.068250029    7887.7345    8509.0237    6819.5811    8446.7028   -1021.7579    1772.9986   -1269.6644 
   85500    254.33418   -164.30461   -131.19921   -164.30461            0    2873.1095    18.315197    22.519483    19.350566  0.019424792   -7.3380621   0.23384593    7981.1169    2671.2426     4500.086    1447.9999    2813.4215    2807.7419   -806.00152 
   86000    253.28189   -164.95404   -131.98561   -164.95404            0    5212.6602    18.174224    22.465588    19.507952 -0.042527913   -7.2835866   0.16773256     7964.992    1331.0917    8001.9963    6304.8925    333.17117    1848.2735   -209.35791 
   86500     244.6999   -165.18906   -133.33771   -165.18906            0    5202.6952    18.031229    22.522262    19.552159  -0.11829248   -7.0496079  0.025947527    7940.2114    4808.9228    7898.1278    2901.0351     1946.068    2761.7563    1294.6332 
   87000    248.48559   -166.14447   -133.80036   -166.14447            0    2399.5228    18.080759    22.662905    19.422884 -0.074886297   -6.7922992 -0.062422793    7958.7701    1595.1742     4418.045    1185.3491    2988.8951   -674.66941   -2919.7146 
   87500     252.1217   -165.64158   -132.82416   -165.64158            0    6759.2902     18.10884    22.852801    19.212003  0.064483461   -6.5619431  -0.04611923    7950.6516     8037.706    3863.4731    8376.6915    1656.2784   -997.39689    -376.6803 
   88000    253.52559   -164.61614   -131.61599   -164.61614            0    4783.0615    18.040885     22.89306    19.216008  0.099612464   -6.4658286 -0.019815455    7936.4241     5801.464    5484.1009    3063.6196   -3851.5838    765.92504   -1195.8145 
   88500    248.08867    -165.6012   -133.30874    -165.6012            0       3765.5    17.976543    22.803553    19.404735 -0.024930194   -6.5985058 -0.013490489    7954.5649    5849.1027    2468.0862    2979.3111    1937.4304   -2095.1613    1595.0972 
   89000    237.61215   -165.84941   -134.92063   -165.84941            0    8398.9121    18.078969      22.5236    19.592252  -0.17958117   -6.9347193 -0.012970103    7978.0332    9694.6686    8464.1215    7037.9462   -2650.8692   -316.01178    556.80779 
   89500    235.63992   -165.39709   -134.72502   -165.39709            0    9343.8915    18.170495    22.239618    19.441736   -0.2314381   -7.2851681  0.020779941    7856.5001     9295.374    8620.4133    10115.887    1317.7983    1423.8153   -1541.1701 
   90000    235.58624   -165.52409   -134.85902   -165.52409            0    4009.7884    18.396368    22.430768     19.42529  -0.12696253   -7.5334699  0.091983601     8015.742    1353.6546    4803.1052    5872.6055    110.96001    1611.4246    1445.0844 
   90500    253.36552   -165.29721   -132.31789   -165.29721            0    9662.5417    18.196904    22.515965    19.305196  -0.04140217   -7.4000378   0.11434474    7909.7415    6256.7231     10456.15    12274.752    46.333636    1030.6411   -2493.4109 
   91000    255.79847   -166.08285   -132.78685   -166.08285            0     2119.695    18.025363    22.744481    19.409068 -0.013610661   -7.0730271  0.057008639    7957.2816    581.75044     965.1072    4812.2273    817.81787   -1219.9175    852.28107 
   91500    230.14703   -165.81409   -135.85701   -165.81409            0    4777.8962    17.949398    22.913916    19.404198  0.018216999   -6.7466437 -0.018568339    7980.7722    2730.0845    4822.2199    6781.3841    2316.8146    752.88015   -669.47669 
   92000    255.40953   -166.27268   -133.02731   -166.27268            0    10078.869    17.941181    22.783129     19.30706   0.10239946   -6.5917573 -0.038038245    7891.8815    9564.9469    8845.9657    11825.695   -4607.3997   -2473.8635   -873.37307 
   92500      241.998   -165.08791   -133.58824   -165.08791            0    6099.7278     18.13083    22.805846    19.395054   0.14100636   -6.6468543 -0.0041119247    8019.6397    5312.1981    5059.3217    7927.6636    2914.7625   -283.08687   -719.62951 
   93000    247.82911   -164.62642   -132.36775   -164.62642            0    7077.7029    18.125179    22.627175    19.241337  0.078039589   -6.7592482  0.044870855    7891.2879    6566.9527    7213.7572    7452.3986   -2713.8136   -2109.6873   -3797.6579 
   93500    243.57267   -165.04086   -133.33623   -165.04086            0     2588.801    18.298002    22.539551    19.353107   -0.1721395   -7.0840844  0.049688812    7981.7777   -1352.9271    3994.2324    5125.0977    3032.8339    1373.2478   -238.54508 
   94000     236.1783   -164.35917   -133.61703   -164.35917            0    7522.6653    18.131208    22.545268    19.402711  -0.40538754    -7.261488 0.0081083647    7931.3033    6112.1439    9284.8307    7171.0214   -3355.3647    2211.5751    517.90074 
   94500     246.0147   -165.14854   -133.12605   -165.14854            0    4577.9169    18.028079    22.740415    19.461629  -0.40431636   -7.2236816   0.13135193    7978.6059    8126.1891    5027.9096    579.65199   -725.49586    1328.6412    -1830.346 
   95000    244.84514   -166.70333   -134.83307   -166.70333            0     4133.836    17.965433     22.89215    19.333963 -0.032593635   -7.0819025   0.31356936    7951.4286    5146.8214    5012.2985    2242.3882    16.686076    470.84642   -221.09927 
   95500     243.9874   -163.88442   -132.12581   -163.88442            0    5480.3209    17.981514    23.060174    19.148793   0.39001121   -6.8387851   0.26878373    7940.1781    1634.2519    5279.1267    9527.5841   -407.36895    535.33478   -3000.2758 
   96000    247.99889   -163.41972   -131.13895   -163.41972            0    3641.9701    18.078889    22.950339    19.222063   0.35750254   -6.7025347 -0.0025996745    7975.5537    2496.5763    4029.0427    4400.2913   -1814.8001    2088.0636    -719.3166 
   96500    261.52748   -165.46645   -131.42473   -165.46645            0      4498.93    18.036048    22.715874    19.386489   0.13067829   -6.5612569  -0.25673857    7942.7339    5870.6983    3628.9053    3997.1864    285.20821   -370.44463    166.46296 
   97000     254.1747   -165.49023   -132.40559   -165.49023            0    5441.0658    18.182121    22.536615    19.434668  0.039792691   -6.6433212  -0.20173105    7963.6165    3807.8712     6856.045    5659.2813    494.60868    962.13336    955.16464 
   97500    249.07951   -164.30509   -131.88366   -164.30509            0    5182.1802    18.228065    22.476991    19.400619 -0.029462129   -6.7571924  0.035527215    7948.6673    3853.5698    7406.6695    4286.3013    1379.9041     1516.808    1308.9512 
   98000    246.22766   -166.06563   -134.01542   -166.06563            0    7800.6118    18.106576    22.604333     19.39515  -0.10819903   -6.8490334   0.23114646    7938.1841    9853.5171    8447.3057    5101.0126    1770.6435   -938.47574    84.713808 
   98500    250.78213   -165.94218   -133.29913   -165.94218            0     5571.672    18.066634    22.728465    19.374745 -0.095759072   -6.9929037   0.22532293    7955.7909    6069.8844    5169.5678     5475.564    1377.3127    2459.2713   -1979.2072 
   99000    246.95882   -164.83349   -132.68811   -164.83349            0    4934.9344    18.016789    22.726418     19.26316   -0.1272928   -7.0715785  0.084665907     7887.437    5967.8135    6670.1525    2166.8372    1964.1967    -698.3714    -1361.348 
   99500    248.82113   -163.34871   -130.96092   -163.34871            0    3984.1444    18.196745     22.84503    19.332302 -0.098726443   -7.1686909 -0.090237976    8036.5379    2882.1973    4775.9674    4294.2686   -1199.1125    -14.65973   -520.43686 
  100000    246.29361   -164.41804   -132.35924   -164.41804            0    2331.7703    18.179852    22.610455     19.32972   0.10186809   -7.1034104  -0.17366943    7945.5725    943.58318   -238.42961    6290.1573    1392.4519   -2238.7991    1904.8378 
  100500    241.13743   -163.88661   -132.49897   -163.88661            0    4378.8299    18.233132    22.471753    19.430936   0.21465827   -6.9273883 -0.096258628    7961.4459    5676.4915    3066.4364    4393.5617   -2251.7005    -894.2084    4778.8695 
  101000    253.23993   -165.88759   -132.92462   -165.88759            0    4036.7589    18.216218    22.387505    19.576269   0.13083511   -6.7414055   0.08267017    7983.5093    4441.4449    3864.2645    3804.5674      1550.85    2065.3978     2144.097 
  101500    245.15528   -164.61377   -132.70314   -164.61377            0    5715.8793    18.059901    22.458613    19.488167 -0.076054339   -6.6049674   0.16878094    7904.4071    5254.0221    4877.8062    7015.8097   -53.977133   -4900.5761   -1228.7282 
  102000    249.14146   -165.38358   -132.95409   -165.38358            0    4415.3479    18.072123    22.805238    19.423816  -0.26516143   -6.6866867  0.052047326    8005.3134    2834.6119    5335.7667    5075.6652    1451.4893    410.42926    424.11306 
  102500    245.69367   -165.35257   -133.37186   -165.35257            0    5323.4769    18.019367    22.974207    19.163213  -0.30159918   -6.7810921 -0.071291669    7933.1999    5337.5897     5597.212    5035.6291    473.20701   -928.28575    3403.9611 
  103000    256.36667   -165.71253   -132.34257   -165.71253            0    4049.0841    18.066168    22.992375    19.139902 -0.077814457   -6.9949654 -0.041388566    7950.4112    3746.7529    5345.1307    3055.3688    449.27174    1762.3204    929.47542 
  103500    237.07818   -164.66025   -133.80097   -164.66025            0    7658.3316     18.07493    22.840508    19.310804    0.2545227   -7.1741524  0.056751259    7972.2837    9659.3075    4107.8613    9207.8259    4.0556675     -307.996   -1205.6764 
  104000    251.56425   -164.61219   -131.86734   -164.61219            0    3886.9049    18.117847    22.592093    19.448724   0.34022397   -7.2425215  0.035068689    7960.7532    2957.4591    4517.7987    4185.4569   -2715.4025    330.34662     2275.658 
  104500    241.87206   -165.24763   -133.76436   -165.24763            0    2788.4058    18.234733    22.431197    19.518299  0.070387024   -7.1816112 -0.030732441    7983.5091    845.57194    2818.1962    4701.4492   -2350.7571    1612.2562   -1080.5825 
  105000    249.33755   -163.37876   -130.92375   -163.37876            0      5905.17    18.347406    22.330641    19.436958  -0.30199458   -6.9835155  0.019348391    7963.5031    5533.3608    6307.0352    5875.1141    251.59016    -70.34601   -1307.7716 
  105500    253.87157   -164.03057   -130.98539   -164.03057            0    6062.7341    18.252415    22.445005    19.430499  -0.41049645   -6.7298809   0.17637262    7960.2007    4087.3672    6691.5723    7409.2629    584.39951   -340.15894   -460.85874 
  106000    262.35554   -166.47595   -132.32645   -166.47595            0    4100.3391    18.070437    22.769178    19.488831  -0.29144385      -6.5205   0.31571163    8018.6599    4082.7525    2962.2219     5256.043   -1282.5341    -3368.959   -701.78492 
  106500    247.99453   -164.50419   -132.22399   -164.50419            0    6015.4679    17.900224    22.852321    19.279294 -0.054357228   -6.5065342   0.26374059    7886.4201    6483.2391    7738.5767    3824.5878    3713.8607   -2463.1718    704.63555 
  107000    244.62725   -164.82283   -132.98093   -164.82283            0    3187.7299    18.043931    23.036609    19.273718   0.17814049   -6.6560623  0.055263318    8011.5257    2946.6153    1369.9199    5246.6546    1023.6533   -117.72168    1714.8098 
  107500    253.07715   -165.05877   -132.11699   -165.05877            0    6371.7216    18.086178    22.811538    19.193808   0.19464267   -6.7793041  -0.16265696    7918.8572    6394.4603    6538.7889    6181.9157   -4402.7024   -806.24175   -345.32162 
  108000    248.78695    -164.1121   -131.72875    -164.1121            0    4883.2028    18.156792    22.663713    19.337272   0.10904861   -6.9457199  -0.24654513    7957.2935    5992.1744    3838.6879     4818.746    341.79334   -1181.1829   -1763.7201 
  108500    251.70038   -163.55185   -130.78928   -163.55185            0    5023.8861    18.170296    22.629377    19.506644   0.02804403    -7.030476  -0.10669663    8020.7903    5799.8066      4697.72    4574.1318   -979.28975    1810.2017    1280.9641 
  109000     248.0514   -164.10635   -131.81875   -164.10635            0    8396.7428    18.081572    22.484015    19.452738 -0.034771203   -6.9416706    0.1364437    7908.4391    7605.0185    8865.0676    8720.1423   -2294.5008   -405.27653    2215.6113 
  109500    244.78559   -164.10528   -132.24277   -164.10528            0    1214.2267    18.187308    22.507883    19.470108  -0.15687129   -6.9368327   0.28340896    7970.2405    665.23098     807.5153    2169.9337   -612.02249     332.3486   -2963.0541 
  110000    243.36946   -164.14508    -132.4669   -164.14508            0    4064.5995     18.18246    22.644531    19.407943  -0.28335933   -6.9064231   0.15621106    7990.8957    3304.2206    4317.3608    4572.2171   -1397.3125    1821.3649   -145.02856 
  110500    241.85065   -165.01287   -133.53238   -165.01287            0    3301.7252    18.161712    22.636059    19.211606   -0.3562789   -6.8587249  -0.15235935    7898.0752     5418.423    2479.2143    2007.5384    280.71059   -3922.7564    2068.6813 
  111000    244.06697   -163.88935   -132.12038   -163.88935            0     3142.877    18.184508    22.803394    19.325562 -0.028842099   -6.8541534  -0.31093841    8013.7021    1997.4219    2958.4187    4472.7904    2212.4852   -581.30024    1646.6933 
  111500    256.09184   -165.57203   -132.23784   -165.57203            0    5470.1023    17.968635    22.793725    19.464055   0.41833632   -6.7817487  -0.14491892    7971.9344    7201.4157    4504.7428    4704.1484    1357.1651   -1522.0778    -630.6886 
  112000    247.00198    -164.0354    -131.8844    -164.0354            0    6298.5437    17.894724    22.729611    19.448387   0.50412243   -6.7861039  0.081955669    7910.4389     2969.975    7843.3681     8082.288    1194.8736   -252.61459   -641.02839 
  112500    237.34923   -164.49674   -133.60218   -164.49674            0    6728.0649    18.198048    22.741936    19.442543   0.16704174   -6.9068413   0.11836327    8046.4684    8541.1589    5455.1945    6187.8412    1312.5203    807.70727    2153.6191 
  113000    245.26891   -165.12155   -133.19613   -165.12155            0    6801.8561    18.205271    22.487044    19.253558  -0.20053023   -6.9140809  0.021156071    7882.0741     6166.666     6879.179    7359.7235    512.40563    1898.6579   -2689.1453 
  113500    248.40674   -165.07354   -132.73968   -165.07354            0    4940.9058    18.255658    22.627226    19.350882  -0.24095409   -6.9505989 -0.0035070355     7993.364    3117.5107    8057.1068    3648.0999   -435.22847   -309.28987    908.72655 
  114000     251.8047   -165.55166   -132.77551   -165.55166            0    3338.2041    18.077489    22.658071    19.437023  -0.15644962    -6.911585  0.046464273    7961.4247    1996.5693    2753.0619    5264.9813    1967.6376    582.25116    1503.0116 
  114500    256.02775    -164.5686   -131.24276    -164.5686            0    5839.8233     17.96745    22.724252    19.459136  0.028932907    -6.786262  0.094092919    7945.1045    5292.4316    5459.5678    6767.4705   -56.384387   -333.51107    1729.6002 
  115000    256.56909   -164.87762   -131.48132   -164.87762            0    4940.9295     18.07233     22.84146    19.377714   0.17818578   -6.7292939   0.07827196    7999.0892      4886.31    5411.2363    4525.2421     1599.017   -1772.1151    190.01426 
  115500    263.87879   -165.33173   -130.98396   -165.33173            0    3761.6636    18.116566    22.723369    19.249117   0.16696589   -6.6851808 -0.011083401    7924.2732    1517.7058    3509.0239    6258.2612   -208.30907   -2558.1134    1822.1718 
  116000    249.29339   -165.74808   -133.29882   -165.74808            0     4716.469    18.138337    22.655912     19.33022 -0.030916425   -6.8000677  -0.18352421    7943.5716     2586.088     5327.576    6235.7429   -3473.7142    -1840.552    359.94166 
  116500    254.52615   -164.37576   -131.24537   -164.37576            0    1584.0782    18.174089    22.603805    19.579231  -0.19960436   -6.9919365  -0.17463252    8043.2178    368.74409    2224.4922    2158.9983    2090.1273    157.49312    941.33856 
  117000    260.39129   -167.61868   -133.72486   -167.61868            0    7396.6157    18.050648    22.327343    19.467255  -0.19156507   -7.0904721  0.050720801    7845.7513    9027.8565    5987.9583    7174.0323    223.89946    352.60513     2323.045 
  117500    242.14063   -165.35064   -133.83241   -165.35064            0    2284.7895      18.3059    22.493088    19.554169  -0.10011358   -7.2092986   0.30140876    8051.5508    1680.5833    1656.1624    3517.6228    2581.9297    585.21369    2555.8268 
  118000    238.78774   -164.82194   -133.74014   -164.82194            0    4175.1359    18.207892     22.47236     19.33501 -0.0013127572   -7.1001869   0.26500729    7911.3895    2683.6011    3340.4968    6501.3099   -2474.9217   -1726.8012    -1047.472 
  118500    254.55168   -165.57746   -132.44375   -165.57746            0    4689.0797    18.144167    22.642102    19.327056  0.016747587   -6.9375639 -0.016951244    7939.9813      3407.81    4210.1107    6449.3183    914.21416     552.3306     649.0732 
  119000    252.21372   -165.88318   -133.05379   -165.88318            0    2900.8097    18.099539    22.904547    19.390116  0.034526567   -6.7981374  -0.26267679    8038.4004     4563.333    702.71903    3436.3771    1518.1373   -1051.7635    977.83634 
  119500    254.25638   -164.58244   -131.48716   -164.58244            0    7897.4431    17.944108    22.866543    19.251392  0.064447654     -6.67728  -0.23237014    7899.2255    10185.463    5759.6738    7747.1928   -4495.0149    1065.0968    1233.6393 
  120000    241.83389   -163.67791   -132.19961   -163.67791            0    2954.7946    18.133222    22.892042    19.363384    0.1141376   -6.7592955 -0.016917644    8037.8661     2258.848    2886.6579    3718.8778   -2160.8842    1146.9267   -974.00007 
  120500     250.1398   -164.77017   -132.21073   -164.77017            0    5453.0879    18.081622    22.580278    19.347947  0.045292902   -6.8023672   0.17754085    7899.5355    7948.0917    4763.8325    3647.3394    2141.4157    2723.6176   -561.02489 
  121000    246.72177   -164.94927   -132.83474   -164.94927            0    5941.6828    18.236921    22.514745    19.479722   -0.1776145   -6.9675295   0.11701156    7998.3666    1982.5352     7205.611    8636.9024    228.15014    458.30779   -322.75233 
  121500    240.13724   -163.31189   -132.05443   -163.31189            0    6249.4865    18.193083    22.534643    19.469426  -0.28897829   -7.0585054 -0.049072407     7981.971    6789.1429    4152.7481    7806.5684   -442.95722    -1340.241   -621.98995 
  122000    255.26956   -164.13606    -130.9089   -164.13606            0    4459.4457     18.13408    22.532584    19.467068  -0.10898714   -7.0624544 -0.044878189    7954.3936    5116.5557    4000.6483     4261.133    2709.1512    1267.9107   -157.55634 
  122500    263.80896   -163.79762   -129.45894   -163.79762            0    5233.7044    18.164877    22.702274    19.427293   0.30027275   -7.0407057   0.16474599     8011.505    3914.6142    3637.4953    8149.0037    -2144.397    79.953175   -2969.3042 
  123000    250.84672   -164.45966    -131.8082   -164.45966            0    2364.7779    18.154061    22.733283    19.308304   0.55375102   -6.9424497   0.21912479    7968.5643   -1075.5031    3821.1553    4348.6815   -5330.0642    1480.8915   -5170.6743 
  123500    255.00356   -164.83607   -131.64354   -164.83607            0    3855.5257    18.062925    22.699985    19.222596   0.30738897   -6.7907381 -0.085884438    7881.8054    3466.2592    2301.5643    5798.7537    328.27936   -1995.1903   -633.22605 
  124000    254.53418   -165.07586   -131.94443   -165.07586            0    3444.9586    18.107034    22.857775    19.414739  -0.18585924    -6.727868  -0.42430039    8035.4986    4044.9224    3539.1387    2750.8147    1743.3697    3270.4835    1743.9657 
  124500    259.77329   -164.68664   -130.87326   -164.68664            0     3853.864     18.07678     22.78297    19.282486  -0.35167671   -6.7020008  -0.28527158    7941.3518    6582.9591    3459.6057    1519.0272      1053.99   -1199.7983    2758.5814 
  125000    263.08489   -164.79433    -130.5499   -164.79433            0    6863.0648    18.141574    22.701438    19.321475  -0.20589858   -6.7852588   0.10162536    7957.3523    8281.5864    2565.0335    9742.5744    1017.9136   -2732.6982    1201.6469 
  125500    254.97307   -164.55745   -131.36889   -164.55745            0    5757.9126    18.153469    22.648269    19.495372 -0.065703991   -6.9341936   0.30327275    8015.4181     5677.175    4324.5943    7271.9685   -891.00577   -1128.8272    -1417.723 
  126000    249.24834   -164.03425   -131.59084   -164.03425            0    5998.8716     18.12738    22.552465    19.543249 -0.021428073   -6.9816433   0.16241178    7989.6146    7218.6402    6229.4874    4548.4872   -256.68402    680.00366   -2242.0025 
  126500     249.9618    -166.9041   -134.36783    -166.9041            0    4650.5676    18.138882    22.516205    19.438568  -0.18073872   -6.9193106  -0.10966241    7939.0768    5347.1016    5272.8964    3331.7047    2089.9088    1413.6221    1330.7787 
  127000    247.05732   -164.75054   -132.59234   -164.75054            0    2768.2802    18.196788     22.76514    19.364154  -0.21444565   -6.7743276  -0.21742555    8021.6481    2098.3906    2334.2962    3872.1538     439.6596   -959.19349   -92.019939 
  127500    246.95954   -163.35714   -131.21166   -163.35714            0    6720.9784    18.124265    22.863614    19.266331  0.020667752   -6.6340594 -0.021362464    7983.7016    8176.3325    4002.4433    7984.1593   -1124.3107    1938.9726    -3214.434 
  128000    250.62324   -164.74667    -132.1243   -164.74667            0     4267.092    17.931554    22.854296    19.276319   0.27270703   -6.6380885   0.17608304    7899.6868    1198.0687    5080.7062    6522.5012   -2139.1856    1629.6802    -4651.401 
  128500    249.03844   -164.43119   -132.01511   -164.43119            0    2364.7022    18.023497    23.026998    19.442941   0.20899783   -6.7412879   0.13573284    8069.3459    216.19385    -11.22934    6889.1421     2332.859   -2293.3496    4324.0333 
  129000    265.33645   -165.00866   -130.47115   -165.00866            0    6824.1441    18.043051    22.652985    19.390978 -0.064041334     -6.92125  -0.11382895    7925.6542    6837.1703     6367.451    7267.8111    -1144.855   -3918.1521    1060.3458 
  129500    244.62599   -163.18094    -131.3392   -163.18094            0    6377.9453    18.170061     22.50126    19.465018  -0.21350365    -7.092579  -0.23196936    7958.2585    9309.5973    5018.0758    4806.1629   -348.52823   -1491.9453    1313.4695 
  130000    250.23849   -165.59233   -133.02004   -165.59233            0     4455.112    18.282118    22.489745    19.471796  -0.16919644   -7.1578958 -0.087659093    8006.0271    3335.1756    4247.1069    5783.0536   -391.39253    100.50593    1291.1689 
  130500    252.83453    -164.7369   -131.82671    -164.7369            0     5011.868    18.190692    22.472742     19.35787 -0.0069944932    -7.043116   0.17134144    7913.3951    672.09237    8331.3606     6032.151   -97.277727    1827.9819   -782.27679 
  131000    244.50861   -165.66741   -133.84096   -165.66741            0    3316.1669    18.079858    22.757619    19.420669  0.055008038   -6.8835226   0.22597799    7990.7224     5356.185    1064.5614    3527.7543    1620.3865   -107.01246    1229.8622 
  131500    234.47163   -164.15776   -133.63777   -164.15776            0    2111.3941    17.972182    22.935761    19.332291 -0.0068073266   -6.6947014  0.024049428    7968.8801    1345.8498     2113.375    2874.9576   -820.87365   -597.74213   -636.16541 
  132000    249.80881   -164.97023   -132.45387   -164.97023            0    6660.7372    17.923405    22.919525    19.231528 -0.082237683    -6.569886   -0.1887188    7900.2333    5746.7907    9396.6264    4838.7943    444.43483   -635.19499    -1218.626 
  132500    254.44641   -163.67886   -130.55885   -163.67886            0    3650.0491    18.159853    22.988607    19.375386  -0.15257675   -6.6852948  -0.20355852    8088.6371    3624.6258    2967.4032    4358.1183   -246.19159    1161.0712   -721.93865 
  133000    257.30762   -163.59585   -130.10341   -163.59585            0    6495.3096    18.161053    22.524801    19.355757  -0.15966512   -6.7781967 0.0026339127    7917.9394    8462.7937    5314.1407    5708.9945    2584.3665   -934.09852    1751.6557 
  133500    255.69717   -164.25863   -130.97581   -164.25863            0     6836.998    18.264223    22.267459    19.612558 -0.0091066735   -7.0145055   0.24710551     7976.385    7829.6671    6469.7382    6211.5887   -1588.1285    17.986577    1165.5156 
  134000    236.20452   -165.14375    -134.3982   -165.14375            0    5038.7947    18.320675    22.256039    19.635244 0.0016288129   -7.2337022   0.23486459    8006.1855    4263.9083    4853.2845    5999.1912    656.02109   -1083.8598   -1577.2197 
  134500    244.61255   -164.63045   -132.79046   -164.63045            0    4549.3463    18.169765    22.371286    19.396861  -0.06124029   -7.2665686   0.06197062    7884.4558    2161.1095    6373.4424     5113.487   -1213.9098    2650.6019    868.08086 
  135000    242.90211   -166.11099   -134.49364   -166.11099            0    4954.2612    18.215575    22.786588    19.387779 -0.032792118   -7.2290568 -0.033677376    8047.3009    7204.5563    5743.9386    1914.2885    644.78429    508.46421   -2981.7926 
  135500      250.563   -165.14821   -132.53368   -165.14821            0    6759.4478    18.051999    22.859859    19.220435   0.02572844   -7.0407155 -0.030987504     7931.623    6261.6325    6543.8298    7472.8811    2180.7155    743.72619    833.50079 
  136000    252.01858   -164.51687   -131.71288   -164.51687            0    3097.8834     18.07333    22.907907    19.271824   0.06018836   -6.8434141  0.052848565    7978.9627      2972.48    1676.3011    4644.8691   -1418.3346    76.415971    570.41803 
  136500    246.18981   -163.86034   -131.81505   -163.86034            0    8530.5112    18.055812    22.734392    19.380742  0.053539458    -6.683569  0.062265116      7955.56    8081.7837    11234.103    6275.6469   -2106.9878    1246.4185    2122.5632 
  137000    250.13095   -165.01376   -132.45547   -165.01376            0    7673.5023      18.1754    22.534462     19.46005 -0.030121323   -6.6010065 -0.039163578    7970.3084    10968.307     8129.278    3922.9222    1860.0724    646.23936    1388.2484 
  137500    259.26988   -163.88038   -130.13252   -163.88038            0    8613.6308    18.323845    22.384948     19.46692 -0.089625728   -6.6320109 -0.062469027    7984.9086    6407.2435    10373.002    9060.6472    2530.0036   -3158.5967    4040.1913 
  138000    241.21575   -163.15277   -131.75493   -163.15277            0    5450.9898    18.329585    22.354145    19.487157 -0.025983746   -6.8328871  0.026793939    7984.7107    4493.1408    5836.0136    6023.8152    574.47667    226.62516    403.92044 
  138500    246.63338   -164.38622    -132.2832   -164.38622            0    3084.0936    18.122216    22.507596    19.536306   0.13931062   -7.1344621   0.26750462    7968.6149    1755.3469    5244.9755    2251.9585   -1552.6761    512.35505   -996.54215 
  139000    250.13059   -166.80696   -134.24872   -166.80696            0    4360.1083    18.015422    22.774041    19.385556  0.081691712   -7.3971582   0.31012816    7953.5827    4925.0249    5267.6333    2887.6666   -1176.0183    1790.5248   -1292.9235 
  139500    244.89446    -165.1494   -133.27272    -165.1494            0    6720.0699    18.084837    22.981384    19.160222  -0.10118225   -7.4659807   0.10013269    7963.2677    6243.0355     7359.909    6557.2652     990.4021    1388.2216    2044.5199 
  140000    248.61498   -163.77929   -131.41833   -163.77929            0    1892.0093    18.084296    23.059521    19.150085  -0.26500909   -7.2727033  -0.10608332    7985.8764    3089.1532    30.264431    2556.6104    1821.4496    2306.3124    1785.0339 
  140500    258.93959   -164.45994   -130.75508   -164.45994            0    6354.4702     18.04911    22.951868    19.333597  -0.22123279   -6.9609575  -0.13319299    8009.1514    3193.3361    7908.6123    7961.4623    1990.6025    2333.0996   -1325.4727 
  141000     241.8275   -163.83886   -132.36139   -163.83886            0    5337.1325    18.040447    22.679733    19.456056 -0.035633294   -6.6526862  0.035247226    7960.4938    6238.4399    4592.3057    5180.6519     1663.332    818.24571     2404.634 
  141500    246.52715   -164.81357   -132.72437   -164.81357            0    4254.4558    18.181418    22.482254     19.47109   0.12751165   -6.4948709   0.15489726    7958.9884    3823.5202    4312.8455    4627.0019   -400.29083   -1425.6749   -2417.8165 
  142000    245.82633   -164.70865   -132.71068   -164.70865            0    5134.7823    18.263297    22.493845    19.415795   0.13076965   -6.5339787   0.11175784    7976.2375     4755.177    5394.5977    5254.5722   -585.28164   -1588.0919   -1460.4217 
  142500     253.4044   -164.16617    -131.1818   -164.16617            0    4924.2696    18.244698    22.640083    19.327073 -0.030587389   -6.7497041  -0.11146755    7983.2691    6123.2386    5705.6454    2943.9248   -2324.6812   -1699.6791    817.89104 
  143000    249.25217   -163.38766   -130.94376   -163.38766            0    3363.0577    18.141122    22.861498    19.362523  -0.20292873   -6.9639219  -0.27508539    8030.2818    1872.2074    2129.9156      6087.05    714.35008   -899.46193   -797.90471 
  143500    257.20266   -165.38653   -131.90776   -165.38653            0    6646.3565    17.953773    22.848981    19.344258  -0.13401497   -7.0986163  -0.08574961    7935.5064    8721.3482    6905.1943     4312.527   -1380.6799    1623.3033   -870.56346 
  144000    243.24292   -163.76738   -132.10568   -163.76738            0     3576.412    18.062842    22.786064    19.434964   0.10652733   -7.2261573   0.16972583    7999.0637    7502.1677    4071.4109   -844.34279    310.78615    603.22201    -189.8402 
  144500    251.56966   -164.70266    -131.9571   -164.70266            0    6291.2892     18.15755    22.642886    19.367771   0.11515103   -7.1843585    0.1951764    7962.8527    6357.5482    4064.8184     8451.501    82.442292    1403.5849   -616.31641 
  145000    259.54567   -164.88029   -131.09654   -164.88029            0    6335.4065    18.171583    22.558307    19.366472 -0.065199035     -7.01913 -0.024346154    7938.7068    6158.4094    2975.5018    9872.3082    3255.9351    563.25248    4036.1575 
  145500    260.64167   -164.98912   -131.06271   -164.98912            0    3371.5259     18.22743    22.613073    19.437166   -0.1991803   -6.8596906  -0.18608975    8011.5765    2735.4602    861.36301    6517.7545    327.65656    -717.2422    2295.6143 
  146000     247.2842    -165.0378   -132.85006    -165.0378            0    6422.6908    18.113008    22.592126    19.371436  -0.11868491   -6.6958904 -0.076166008    7927.0113    7384.8114    5566.9532    6316.3077   -1063.5211    370.20251    1413.8809 
  146500    244.55464   -165.09748   -133.26503   -165.09748            0    4188.3843     17.94508    22.754334     19.49282   0.16291801   -6.5932164   0.22234421    7959.4712    3516.7218    4985.5569    4062.8743    -884.1107   -1004.5103     704.9548 
[...]
  365000     257.2082   -165.92428   -132.44478   -165.92428            0    5150.5859    18.216344    22.417454       19.413   0.18740641   -7.2895635   0.03019477    7927.5716    2491.0702    5157.3805    7803.3072    2018.5797    1022.1416     997.3565 
  365500    247.80405     -164.639   -132.38359     -164.639            0    5383.9937    18.495576     22.26446     19.47427   0.16065747   -7.0753405 -0.013438745    8019.3879    3238.7116    6072.1547    6841.1147   -518.74207    547.10639    4792.3087 
  366000    263.68735   -164.93164   -130.60878   -164.93164            0      5949.42    18.266463    22.280512    19.375023 -0.011451984   -6.6926914  -0.10016702    7885.3658    5662.9433    5419.4211    6765.8955   -64.311246   -1306.4486    706.36059 
  366500    242.49404   -164.11056   -132.54633   -164.11056            0     4514.745    18.087229    22.688195    19.524306  -0.10461044   -6.5364488  -0.07375202    8012.1225    5102.3186     4167.309    4274.6076    844.37656    872.24863    2867.9542 
  367000    248.09306   -164.62197   -132.32894   -164.62197            0    5766.6449    17.902492    22.830561    19.424994 -0.052691191   -6.5131925  0.053546224    7939.4601    9565.8495    5306.2972     2427.788     768.9239    435.06672   -761.03075 
  367500    256.16664   -165.26861   -131.92469   -165.26861            0    6920.3879    18.027473    22.824882    19.286552 0.0069641014   -6.7361013    0.1401911    7935.9332    6056.7063    5504.2526    9200.2048   -2377.7102    564.41881   -2223.2486 
  368000    258.69977    -165.3733   -131.69966    -165.3733            0    4572.6533    18.161709    22.783396    19.313827   0.08491081   -6.9751531  0.090489784      7991.78    4667.4799    3618.3643    5432.1156     759.2652   -680.05088    1467.0021 
  368500    249.36621   -164.48628   -132.02754   -164.48628            0    9338.1664    18.190143     22.63973    19.275655   0.13922831   -7.1469766 -0.070654309    7938.0988    11083.994    7533.3469    9397.1582    919.37972    966.44733   -24.096174 
  369000    247.65193   -164.89232   -132.65672   -164.89232            0    7736.2144    18.194456      22.5825    19.369696  0.090668926   -7.2122688  -0.15769941     7958.549    5446.1273    9409.7726    8352.7433     2741.375   -2292.2583    1158.7572 
  369500    253.02134   -164.87332   -131.93881   -164.87332            0    3642.0304    18.170153    22.707035    19.470023 -0.032430352   -7.1771268 -0.075854504    8033.1425    1301.9039    2821.4579    6802.7294   -1074.8043   -25.344067    807.40543 
  370000    254.46073   -163.18912   -130.06724   -163.18912            0    8140.7277    17.994447    22.597685    19.388893  -0.22285053   -7.0372679   0.19532278     7884.161    6550.3152    10977.153    6894.7147    25.982815    461.83534    1946.6894 
  370500     252.9985   -165.45984   -132.52829   -165.45984            0    5608.2392    18.043181    22.884116    19.408749  -0.35767755   -6.8866876   0.46790523     8013.916    5189.4849    7688.7266    3946.5062    1583.4025    3619.6477   -1030.1254 
  371000    245.93864    -164.5846     -132.572    -164.5846            0    2544.0856    18.087802    22.837821    19.243578  -0.52624134   -6.7179439   0.39381641    7949.2522    663.58233    2144.0123    4824.6623    -711.8182   -687.24287   -849.23331 
  371500    248.80971   -165.66076   -133.27446   -165.66076            0    6429.4791    18.117476      22.6979    19.192724  -0.48414425   -6.6489857  0.052491479    7892.5982    6266.3993    9165.5275    3856.5105    5059.3685    910.42946    2341.8469 
  372000    245.08429   -164.56776   -132.66637   -164.56776            0    6082.7935    18.213839    22.661051    19.443268  -0.16631263   -6.7744204  -0.16622303    8025.1063    3412.0385    6366.2483    8470.0938   -1987.3903   -934.78079   -1326.8361 
  372500    243.97836   -165.02751   -133.27007   -165.02751            0    3731.6064    18.125622     22.53521     19.47157   0.17609612   -6.8652514  -0.22222969     7953.449    2911.2695    4840.8511    3442.6985   -79.076943   -396.67699    4051.8722 
  373000    234.07247   -166.18304     -135.715   -166.18304            0    7546.8986    18.056423    22.515529    19.446305   0.34730502   -7.0015081 -0.097318482    7905.8938    7828.2494    6822.7331    7989.7134   -3096.7655   -539.99552   -2273.4056 
  373500    245.26816    -165.9125   -133.98718    -165.9125            0    3869.2703    18.184512    22.700183    19.356458   0.19768847   -7.1793717  0.027222023    7990.1863    5871.0439    2647.3149    3089.4521    110.19488   -328.11455    169.12092 
  374000    251.37322   -163.77052   -131.05054   -163.77052            0    9171.4436    18.165561    22.756003    19.193187  -0.15101572   -7.1580014  0.054114077    7933.9942    8740.3497    9708.5587    9065.4224    244.97813    2840.2461    302.79716 
  374500    259.28254   -164.31924   -130.56974   -164.31924            0    5797.8579    18.052479    22.867647    19.323097  -0.41961756   -6.9471719   0.11157192    7976.9167     6042.244    5311.0308    6040.2988   -181.58485   -67.375161    -1760.831 
  375000    251.49924   -162.47725   -129.74086   -162.47725            0    6193.4947    17.995954    22.808171    19.495975  -0.43699047   -6.7353735   0.24448148    8002.2164    6160.7947    7416.6754    5003.0139    2578.8146    686.21302    1919.1422 
  375500    241.69101   -163.45552   -131.99582   -163.45552            0    6516.2549     18.01448    22.607036    19.487871  -0.14381014   -6.4870874     0.270255    7936.5132    8090.8508    5243.4425    6214.4715    2022.2736    435.78519    2712.5246 
  376000    239.30884   -162.71266   -131.56304   -162.71266            0    6945.2363    18.210887    22.577065    19.443029    0.1837279    -6.457273   0.11830417    7993.9698    7759.8219    5768.6356    7307.2514    782.20106   -2125.7946   -89.307989 
  376500    258.71709   -164.18865   -130.51275   -164.18865            0    4947.8632    18.300831    22.572186    19.358129   0.31502049   -6.5482944 -0.097575782    7996.6452    5719.0668    5960.1574    3164.3655   -1263.0868   -683.87615   -1485.9831 
  377000    240.55977   -165.17345   -133.86099   -165.17345            0    2413.2688    18.163348     22.63591    19.320447   0.27150644   -6.6802102  -0.22468872    7943.4846    6925.6666    572.52253   -258.38267   -432.08919   -3460.4705   -384.70282 
  377500    245.88616   -165.12589   -133.12013   -165.12589            0    7583.5798    18.020652    22.723079    19.431826  0.024885686    -6.898087  -0.13477499    7957.0355    9375.9797     6431.812    6942.9477   -317.21005   -27.224484    1690.3098 
  378000    250.48703   -164.62155   -132.01691   -164.62155            0     1650.531    17.991601    22.797236    19.487504   -0.2053467   -7.0607795   0.14206791    7992.9709    3013.7207    438.65525    1499.2171    650.45411    656.96485    240.71059 
  378500    242.64721   -165.49693   -133.91277   -165.49693            0    5327.0196    18.113032    22.646581    19.354431  -0.35739311   -7.2094714    0.3095289    7939.1535     8218.924    3452.6001    4309.5348    771.54747   -774.01709   -6817.7106 
  379000    244.92199   -163.92024   -132.03997   -163.92024            0    6928.0251    18.288082     22.68326    19.315973  -0.39134534   -7.1823472   0.21776342    8012.9091    8406.9424    4812.2999     7564.833    2325.3338    1199.6253   -1014.0895 
  379500    242.75819   -164.44768   -132.84907   -164.44768            0    4283.4214    18.229729    22.625001    19.321177   -0.2441299   -6.9561361 -0.004907136    7968.9739   -1776.6905    7730.8634    6896.0914    3.2741974   -1590.3391    56.652416 
  380000    249.60096   -165.72292   -133.23362   -165.72292            0    5079.2462    18.092697    22.609373    19.347745  0.093777217   -6.7666874  -0.17844963    7914.4766     4462.156    5034.8719    5740.7107    351.26187    435.17161    1554.1411 
  380500    246.31721   -166.28038   -134.21851   -166.28038            0    7501.2567    18.097537    22.729889    19.342108   0.36417699   -6.6819032  -0.15408768    7956.4728    4138.7404    8044.8392     10320.19    815.61161   -1618.3159     1288.501 
  381000    249.37256   -165.36486   -132.90529   -165.36486            0    6495.7121    18.055872    22.695538    19.365899   0.42779106   -6.7185381 -0.0090762296    7935.9079    4568.6493    7337.8556    7580.6315   -5657.7722    980.50884   -3267.2332 
  381500    267.81897   -164.51937   -129.65872   -164.51937            0    5522.6028    18.070724    22.814752     19.49326   0.02025057   -6.8315478   0.10580793    8036.6635    6316.6825    5455.8491    4795.2767    1762.4241    1936.2754    520.31786 
  382000    251.92796   -164.66183   -131.86964   -164.66183            0    4808.6282    18.073704    22.632263    19.478375  -0.52338632   -6.9794631  0.056723514    7967.6063    3955.2782    6759.5186    3711.0878    659.80867    2382.1917   -2753.5836 
  382500    256.11429   -163.18666   -129.84955   -163.18666            0    5231.5954    18.177547    22.576396    19.396216  -0.58311154   -7.1095649  0.050382529    7959.8871    4483.1114    7577.4872    3634.1876    1932.3776    -806.2716   -2419.3794 
  383000    240.71782   -162.15515   -130.82213   -162.15515            0    2359.4027    18.259928    22.668356    19.437158  -0.22201894   -7.1398152    0.1006052    8045.4782    624.60512     2741.256    3712.3468     733.3685    148.37876     1966.958 
  383500    256.88962   -162.44689   -129.00886   -162.44689            0    5636.5288    18.110575    22.545456    19.390337   0.18818142   -6.9851626   0.10059131    7917.2913    3609.5183    7040.5889    6259.4793    1318.9985   -1005.2578    355.94066 
  384000    249.97372    -164.9189   -132.38108    -164.9189            0    6847.4565    18.125633    22.766244    19.436538    0.2938842   -6.8729881 -0.027999977    8020.5376    5388.9992     8658.383    6494.9874    -2971.431   -237.69629   -1879.3796 
  384500    254.70881   -165.82119   -132.66703   -165.82119            0    7842.9829     18.02533    22.710315    19.319736   0.13719309   -6.7466464  -0.13038086    7908.7453    8219.0895      6336.76    8973.0993   -411.19138     15.70426     1783.015 
  385000    246.10251   -165.76196   -133.72803   -165.76196            0     2647.203    18.053599    22.737912    19.381755  -0.08734368   -6.7360605  -0.11165258    7956.2331    1211.2678    3566.4535    3163.8879   -167.35243    673.88917   -2071.8501 
  385500    244.21246   -165.74234   -133.95443   -165.74234            0    7460.1038    18.074287    22.688754    19.399679  -0.29820628   -6.7957687   0.03318842    7955.4792    7440.6159     6884.618    8055.0776   -805.33296   -669.34149    2202.0834 
  386000    248.05265   -165.26052   -132.97276   -165.26052            0    4764.0854    18.113739     22.70538    19.427254  -0.41684816   -6.8896581    0.2368664    7990.0281    3761.6712    6528.4413    4002.1438    1005.4795   -342.97161    1461.9093 
  386500    254.80311   -164.02989   -130.86345   -164.02989            0    4044.6755    18.155269    22.687337    19.366687  -0.30174181   -7.0911661    0.3522127    7977.0353    2261.7744    4907.6862     4964.566   -1891.9643    -2086.966    11.161662 
  387000    255.41062    -165.6795   -132.43398    -165.6795            0    4736.2607    18.129066    22.519163    19.330445 0.0068230564   -7.3413886   0.20279726    7891.6811    5849.3593    4828.8329      3530.59   -113.44223    1996.7963   -827.35211 
  387500     242.6552   -164.44268   -132.85747   -164.44268            0    7246.1156    18.228793    22.710867    19.469136   0.20433097   -7.4794081   -0.1399072    8060.0604     7544.895    7522.2731    6671.1787   -142.37994   -136.32868    1341.7966 
  388000    241.24548   -166.09211    -134.6904   -166.09211            0     8134.732    18.091182    22.603383    19.324046   0.23869952   -7.3394423   -0.3701726    7902.0256    9994.9203    8769.5632    5639.7124   -1775.0783    221.46437    1603.7552 
  388500    241.39631   -165.89443   -134.47308   -165.89443            0    6343.8632    18.072199    22.746739    19.380889   0.18939583   -7.0430023  -0.25038626    7967.1656    6719.8333    6629.8893     5681.867    1307.8214    1491.3561     1252.426 
  389000    242.36983   -165.26752   -133.71946   -165.26752            0    9332.8198    18.019214    22.746024    19.341198  0.064827962   -6.7437135  0.086867895    7927.2894    12305.723    8046.1429    7646.5939    1550.1355     967.1707    735.27723 
  389500    244.81702   -166.16614   -134.29954   -166.16614            0    3884.6435    18.058486    22.663796    19.355696  -0.11008864    -6.632157   0.23026325    7921.7804    1409.8023    3851.6336    6392.4947    1320.6003   -1198.2487   -2142.9379 
  390000    243.48207   -166.12695   -134.43412   -166.12695            0    1965.3478    18.177665    22.655655    19.426773  -0.22657553    -6.667423   0.17444959    8000.4678    330.04759    1289.0458    4276.9499   -1444.6424    182.87336    2293.8709 
  390500    254.89251   -165.16104   -131.98297   -165.16104            0     7638.938    18.171416    22.485923    19.370877  -0.25402741   -6.7894357 -0.019269855     7914.961    4092.6066    8597.0356    10227.172   -2794.8985   -1112.9911   -492.92757 
  391000    250.84798   -163.92422    -131.2726   -163.92422            0    3127.1468    18.194614    22.576666    19.461198  -0.14201497    -7.050973  -0.15990941    7994.1488    1884.4342     5729.855    1767.1512    1052.0092   -249.39833    4719.0006 
  391500    266.72055   -164.06216   -129.34449   -164.06216            0    5718.4823    18.099356    22.751796    19.394129   0.13289433   -7.2413935  -0.05924987     7986.364    6951.6115     3752.683    6451.1523   -567.18072    784.05954    -548.8476 
  392000    245.97217   -166.96497   -134.94801   -166.96497            0    2367.7572    17.998018    22.878246    19.216587   0.21237682   -7.2804696   0.10028034    7912.6812    2872.8968    1243.3244    2987.0505   -1890.4321    2647.0491    1383.1034 
  392500    251.04645   -166.99595    -134.3185   -166.99595            0    2883.7327    18.006633    23.011376    19.275929 -0.015550077   -7.1601664  0.075037701    7987.1239    2424.1877    2741.3195     3485.691    -863.6154   -956.26648    2046.9232 
  393000    259.53267   -165.08041   -131.29835   -165.08041            0    2126.9078    17.978471    22.846669    19.362854  -0.32752856    -6.818029 -0.030220852    7953.2569    4641.3656    3613.4747    -1874.117    381.72424     2206.646   -1539.8872 
  393500    264.02349   -163.35432   -128.98771   -163.35432            0    6248.7705    18.090765    22.656951    19.391761  -0.37014825   -6.6114433 -0.043032312    7948.3258    7181.6712    8077.9221     3486.718    380.05358    976.64833    4163.5525 
  394000    253.21773   -165.76589   -132.80582   -165.76589            0    1286.9159    18.350326    22.559552    19.395189 -0.098265559    -6.593596  0.093600027    8029.1263     479.6735    1553.5038    1827.5703   -566.49585   -171.13887   -171.49242 
  394500    244.03745   -164.95101   -133.18589   -164.95101            0    4668.3409    18.239312    22.460136     19.28454   0.14606787   -6.6318996   0.16311567     7900.055    4841.4958    5763.7032    3399.8238   -575.89902   -1923.0926   -4278.0051 
  395000    245.80559   -164.24888   -132.25361   -164.24888            0     3185.056    18.110891    22.685582    19.450203   0.21499732   -6.8273201  0.017202002    7991.2347    4668.7908    2266.1767    2620.2004   -1629.3267      1178.53    1779.6883 
  395500     251.5156   -166.26749   -133.52897   -166.26749            0    8427.6835     17.95108    22.716657    19.502495   0.07202994   -7.0569015  -0.14818149    7952.8935    8373.3809    10137.873    6771.7968    1252.3753    933.86123    1137.6248 
  396000    240.05891   -165.90666    -134.6594   -165.90666            0    4360.6994    17.953855    22.764602    19.408323 -0.054964671   -7.1920598  -0.13324001    7932.4215    7734.2851     1601.103    3746.7102    3455.5755   -164.60175    2246.3974 
  396500    242.97564   -166.40931    -134.7824   -166.40931            0    5206.6008    18.125257    22.818145    19.313603 -0.080047071   -7.2357123 -0.029945998     7987.811    4899.8037    5385.1134    5334.8855   -1201.1382    504.65043    529.34697 
  397000    252.79742    -165.5705   -132.66513    -165.5705            0    8761.4875    18.193464    22.646837    19.225934 -0.075808948    -7.075085   0.15255996    7921.5543    11163.155    8311.9253    6809.3826   -2615.5841   -810.40008   -598.43734 
  397500    247.57351   -164.46815   -132.24275   -164.46815            0    2541.7256      18.1802    22.633634    19.421869 -0.030536562   -6.8182265   0.30206332    7991.7885    4859.1452    2844.0515   -78.019927   -2156.5935   -587.01533   -689.97652 
  398000    250.29136   -164.98201   -132.40284   -164.98201            0    5749.9082    18.069031    22.485928    19.555435 -0.031930198   -6.5372975   0.17865394    7945.3522    7207.8278    4419.1198     5622.777   -4020.3551   -1117.4826   -1981.7014 
  398500    255.60981   -164.40543   -131.13398   -164.40543            0    3641.3303    18.040229     22.47691    19.533934  -0.11792953   -6.4012511  -0.11983869    7920.7878    5497.9883    5494.1152   -68.112633    3237.7717   -1451.4631    1340.8689 
  399000    237.97399   -166.79755   -135.82167   -166.79755            0    2603.0621    18.182397    22.645726    19.448358    -0.105573   -6.5121035  -0.22517366    8007.9314    5616.7662    1040.8895    1151.5307   -569.91431    515.37007   -1171.3634 
  399500    243.50528   -164.48223   -132.78637   -164.48223            0    6956.0919    18.172551    22.739862    19.171049  0.039232346   -6.7287394  -0.07684209    7922.2696    6475.7902    6309.5417    8082.9439   -2991.2361   -82.418732   -1583.2646 
  400000    240.66183   -166.27016   -134.94442   -166.27016            0    5119.3712    18.133219    22.788757    19.224415  0.069504838   -7.0518477   0.10503704    7944.1725     4005.227    4347.3132    7005.5734   -1456.8331   -1347.7973   -1229.6868 
Loop time of 2565.12 on 1 procs for 400000 steps with 1008 atoms

Performance: 6.737 ns/day, 3.563 hours/ns, 155.938 timesteps/s
71.8% CPU use with 1 MPI tasks x 1 OpenMP threads

MPI task timing breakdown:
Section |  min time  |  avg time  |  max time  |%varavg| %total
---------------------------------------------------------------
Pair    | 2204.3     | 2204.3     | 2204.3     |   0.0 | 85.94
Bond    | 0.072918   | 0.072918   | 0.072918   |   0.0 |  0.00
Neigh   | 328.08     | 328.08     | 328.08     |   0.0 | 12.79
Comm    | 11.473     | 11.473     | 11.473     |   0.0 |  0.45
Output  | 2.2199     | 2.2199     | 2.2199     |   0.0 |  0.09
Modify  | 17.324     | 17.324     | 17.324     |   0.0 |  0.68
Other   |            | 1.612      |            |       |  0.06

Nlocal:        1008.00 ave        1008 max        1008 min
Histogram: 1 0 0 0 0 0 0 0 0 0
Nghost:        5066.00 ave        5066 max        5066 min
Histogram: 1 0 0 0 0 0 0 0 0 0
Neighs:         0.00000 ave           0 max           0 min
Histogram: 1 0 0 0 0 0 0 0 0 0
FullNghs:      270842.0 ave      270842 max      270842 min
Histogram: 1 0 0 0 0 0 0 0 0 0

Total # of neighbors = 270842
Ave neighs/atom = 268.69246
Ave special neighs/atom = 0.0000000
Neighbor list builds = 40000
Dangerous builds not checked

unfix		3
unfix		2

write_data	data.final.${pid}
write_data	data.final.0
System init for write_data ...

write_restart   restart.lmp.${pid}
write_restart   restart.lmp.0
System init for write_restart ...
Total wall time: 0:42:50
