LAMMPS data file via MDAnalysis

        1512  atoms
           0  bonds
           0  angles
           0  dihedrals
           0  impropers

           2  atom types
           0  bond types
           0  angle types
           0  dihedral types
           0  improper types

0.000000 27.599335 xlo xhi
0.000000 22.570389 ylo yhi
0.000000 19.505716 zlo zhi
0.000000 -6.792608 0.000000 xy xz yz


Masses

1 15.999000
2 1.008000

Atoms

1 0 1 0.000000 6.590000 1.070000 4.790000
2 0 2 0.000000 7.240000 0.370000 4.720000
3 0 2 0.000000 6.600000 1.500000 3.930000
4 0 1 0.000000 3.730000 1.020000 5.050000
5 0 2 0.000000 4.680000 0.900000 5.040000
6 0 2 0.000000 3.580000 1.790000 4.510000
7 0 1 0.000000 -0.780000 6.450000 4.970000
8 0 2 0.000000 -0.800000 6.030000 5.820000
9 0 2 0.000000 -1.440000 7.150000 5.040000
10 0 1 0.000000 2.050000 6.410000 4.720000
11 0 2 0.000000 1.120000 6.600000 4.850000
12 0 2 0.000000 2.490000 7.250000 4.860000
13 0 1 0.000000 4.930000 4.750000 9.620000
14 0 2 0.000000 4.820000 5.190000 8.780001
15 0 2 0.000000 4.950000 5.460000 10.260000
16 0 1 0.000000 5.520000 4.810000 0.190000
17 0 2 0.000000 4.850000 4.170000 -0.030000
18 0 2 0.000000 5.390000 5.520000 -0.450000
19 0 1 0.000000 0.870000 2.770000 0.130000
20 0 2 0.000000 0.860000 2.060000 -0.510000
21 0 2 0.000000 0.980000 2.330000 0.970000
22 0 1 0.000000 0.380000 2.730000 9.639999
23 0 2 0.000000 -0.550000 2.810000 9.850000
24 0 2 0.000000 0.400000 2.200000 8.840000
25 0 1 0.000000 4.600000 6.330000 7.250000
26 0 2 0.000000 5.260000 6.910000 7.620000
27 0 2 0.000000 3.770000 6.630000 7.620000
28 0 1 0.000000 5.830000 6.440000 2.460000
29 0 2 0.000000 5.600000 5.930000 3.240000
30 0 2 0.000000 5.690000 5.830000 1.730000
31 0 1 0.000000 1.270000 1.150000 2.430000
32 0 2 0.000000 1.000000 1.550000 3.260000
33 0 2 0.000000 0.520000 0.630000 2.160000
34 0 1 0.000000 0.040000 1.130000 7.330000
35 0 2 0.000000 -0.890000 0.960000 7.490000
36 0 2 0.000000 0.060000 1.550000 6.470000
37 0 1 0.000000 6.340000 2.630000 2.450000
38 0 2 0.000000 5.410000 2.800000 2.620000
39 0 2 0.000000 6.360000 2.210000 1.590000
40 0 1 0.000000 4.080000 2.630000 7.390000
41 0 2 0.000000 3.840000 2.070000 6.650000
42 0 2 0.000000 4.950000 2.950000 7.180000
43 0 1 0.000000 -0.500000 4.960000 7.380000
44 0 2 0.000000 -1.160000 4.370000 7.010000
45 0 2 0.000000 0.330000 4.650000 7.010000
46 0 1 0.000000 1.670000 4.850000 2.420000
47 0 2 0.000000 1.810000 5.450000 3.150000
48 0 2 0.000000 1.900000 5.350000 1.640000
49 0 1 0.000000 6.580000 3.360000 6.400000
50 0 2 0.000000 7.420000 3.750000 6.610000
51 0 2 0.000000 6.800000 2.610000 5.840000
52 0 1 0.000000 3.780000 3.270000 3.360000
53 0 2 0.000000 4.290000 3.890000 3.890000
54 0 2 0.000000 3.050000 3.800000 3.020000
55 0 1 0.000000 -0.870000 4.140000 3.360000
56 0 2 0.000000 -0.990000 4.880000 3.960000
57 0 2 0.000000 -0.020000 4.280000 2.960000
58 0 1 0.000000 1.980000 4.170000 6.400000
59 0 2 0.000000 2.820000 3.770000 6.610000
60 0 2 0.000000 2.200000 4.910000 5.840000
61 0 1 0.000000 8.349999 7.070000 1.450000
62 0 2 0.000000 7.550000 6.970000 1.970000
63 0 2 0.000000 8.910000 7.650000 1.970000
64 0 1 0.000000 2.130000 7.120000 8.230000
65 0 2 0.000000 1.910000 6.370000 8.790000
66 0 2 0.000000 1.280000 7.510000 8.010000
67 0 1 0.000000 -2.470000 0.410000 8.230000
68 0 2 0.000000 -2.690000 1.150000 8.790000
69 0 2 0.000000 -3.320000 0.010000 8.010000
70 0 1 0.000000 3.800000 0.440000 1.510000
71 0 2 0.000000 3.020000 0.810000 1.940000
72 0 2 0.000000 3.460000 -0.230000 0.930000
73 0 1 0.000000 5.190000 5.160000 4.810000
74 0 2 0.000000 4.900000 5.680000 5.560000
75 0 2 0.000000 5.720000 4.460000 5.200000
76 0 1 0.000000 0.600000 2.310000 4.880000
77 0 2 0.000000 0.080000 2.890000 4.330000
78 0 2 0.000000 1.120000 2.890000 5.420000
79 0 1 0.000000 6.910000 1.400000 0.060000
80 0 2 0.000000 6.380000 0.700000 -0.320000
81 0 2 0.000000 7.200000 1.920000 -0.680000
82 0 1 0.000000 2.310000 6.120000 0.060000
83 0 2 0.000000 2.600000 5.600000 -0.680000
84 0 2 0.000000 1.780000 6.820000 -0.320000
85 0 1 0.000000 15.870000 1.030000 4.770000
86 0 2 0.000000 14.940000 0.950000 4.980000
87 0 2 0.000000 15.900001 1.560000 3.970000
88 0 1 0.000000 13.020000 1.070000 4.970000
89 0 2 0.000000 13.000000 1.500000 5.820000
90 0 2 0.000000 12.360000 0.370000 5.040000
91 0 1 0.000000 8.330000 6.500000 5.050000
92 0 2 0.000000 8.180000 5.730000 4.510000
93 0 2 0.000000 9.280000 6.620000 5.040000
94 0 1 0.000000 11.180000 6.470000 4.690000
95 0 2 0.000000 11.849999 7.120000 4.910000
96 0 2 0.000000 11.310000 5.770000 5.320000
97 0 1 0.000000 14.090000 4.830000 9.660000
98 0 2 0.000000 14.099999 5.260000 8.800000
99 0 2 0.000000 14.740000 4.140000 9.590000
100 0 1 0.000000 14.670000 4.750000 0.130000
101 0 2 0.000000 14.780001 5.190000 0.970000
102 0 2 0.000000 14.650001 5.460000 -0.510000
103 0 1 0.000000 10.110001 2.690000 0.090000
104 0 2 0.000000 9.460000 3.390000 0.160000
105 0 2 0.000000 10.100000 2.270000 0.950000
106 0 1 0.000000 9.490000 2.690000 9.660000
107 0 2 0.000000 10.140000 3.390000 9.590000
108 0 2 0.000000 9.500000 2.270000 8.800000
109 0 1 0.000000 13.730000 6.370000 7.320000
110 0 2 0.000000 14.010000 5.980000 6.490000
111 0 2 0.000000 14.490000 6.890000 7.600000
112 0 1 0.000000 14.960001 6.390000 2.420000
113 0 2 0.000000 15.889999 6.560000 2.260000
114 0 2 0.000000 14.940000 5.970000 3.280000
115 0 1 0.000000 10.400000 1.200000 2.500000
116 0 2 0.000000 9.740000 0.610000 2.130000
117 0 2 0.000000 11.230000 0.890000 2.130000
118 0 1 0.000000 9.240000 1.130000 7.330000
119 0 2 0.000000 8.309999 0.960000 7.490000
120 0 2 0.000000 9.260000 1.550000 6.470000
121 0 1 0.000000 15.540000 2.630000 2.450000
122 0 2 0.000000 14.610000 2.800000 2.620000
123 0 2 0.000000 15.559999 2.210000 1.590000
124 0 1 0.000000 13.260000 2.630000 7.300000
125 0 2 0.000000 13.240000 2.210000 8.160000
126 0 2 0.000000 14.190001 2.800000 7.140000
127 0 1 0.000000 8.679999 4.900000 7.390000
128 0 2 0.000000 8.440000 5.460000 6.650000
129 0 2 0.000000 9.550000 4.570000 7.180000
130 0 1 0.000000 10.870000 4.850000 2.420000
131 0 2 0.000000 11.100000 5.350000 1.640000
132 0 2 0.000000 11.009999 5.450000 3.150000
133 0 1 0.000000 15.780000 3.360000 6.400000
134 0 2 0.000000 16.000000 2.610000 5.840000
135 0 2 0.000000 16.619999 3.750000 6.610000
136 0 1 0.000000 13.030000 3.360000 3.350000
137 0 2 0.000000 12.810000 2.610000 3.910000
138 0 2 0.000000 12.180000 3.750000 3.140000
139 0 1 0.000000 8.349999 4.210000 3.430000
140 0 2 0.000000 7.800000 3.640000 2.900000
141 0 2 0.000000 9.150001 4.320000 2.910000
142 0 1 0.000000 11.219999 4.250000 6.390000
143 0 2 0.000000 11.950001 3.730000 6.730000
144 0 2 0.000000 10.710000 3.640000 5.870000
145 0 1 0.000000 17.469999 7.120000 1.530000
146 0 2 0.000000 18.320000 7.510000 1.740000
147 0 2 0.000000 17.690001 6.370000 0.970000
148 0 1 0.000000 11.210001 7.080000 8.240000
149 0 2 0.000000 11.549999 7.760000 8.820001
150 0 2 0.000000 11.980000 6.720000 7.810000
151 0 1 0.000000 6.640000 0.420000 8.190001
152 0 2 0.000000 6.640000 1.200000 8.740000
153 0 2 0.000000 7.140000 -0.230000 8.700000
154 0 1 0.000000 12.960000 0.420000 1.560000
155 0 2 0.000000 12.970000 1.200000 1.020000
156 0 2 0.000000 12.469999 -0.230000 1.060000
157 0 1 0.000000 14.400001 5.220000 4.880000
158 0 2 0.000000 14.920000 4.630000 5.420000
159 0 2 0.000000 13.880000 4.630000 4.330000
160 0 1 0.000000 9.810000 2.360000 4.940000
161 0 2 0.000000 9.280000 3.060000 4.550000
162 0 2 0.000000 10.110001 1.840000 4.190000
163 0 1 0.000000 16.109999 1.400000 0.060000
164 0 2 0.000000 16.400000 1.920000 -0.680000
165 0 2 0.000000 15.580000 0.700000 -0.320000
166 0 1 0.000000 11.510000 6.120000 0.060000
167 0 2 0.000000 11.799999 5.600000 -0.680000
168 0 2 0.000000 10.980000 6.820000 -0.320000
169 0 1 0.000000 24.990002 1.070000 4.790000
170 0 2 0.000000 25.639999 0.370000 4.720000
171 0 2 0.000000 25.000000 1.500000 3.930000
172 0 1 0.000000 22.150000 1.110000 5.030000
173 0 2 0.000000 23.080002 0.920000 4.900000
174 0 2 0.000000 21.709999 0.280000 4.900000
175 0 1 0.000000 17.530001 6.500000 5.050000
176 0 2 0.000000 18.480000 6.620000 5.040000
177 0 2 0.000000 17.380001 5.730000 4.510000
178 0 1 0.000000 20.430000 6.530000 4.750000
179 0 2 0.000000 20.450001 5.820000 5.390000
180 0 2 0.000000 20.320000 6.090000 3.900000
181 0 1 0.000000 23.380001 4.790000 9.639999
182 0 2 0.000000 23.400000 5.320000 8.840000
183 0 2 0.000000 22.449999 4.720000 9.850000
184 0 1 0.000000 23.850000 4.880000 0.160000
185 0 2 0.000000 23.410000 4.040000 0.020000
186 0 2 0.000000 24.779999 4.680000 0.020000
187 0 1 0.000000 19.320000 2.710000 0.190000
188 0 2 0.000000 19.190001 2.000000 -0.450000
189 0 2 0.000000 18.650000 3.360000 -0.030000
190 0 1 0.000000 18.780001 2.730000 9.639999
191 0 2 0.000000 18.799999 2.200000 8.840000
192 0 2 0.000000 17.850000 2.810000 9.850000
193 0 1 0.000000 23.000000 6.330000 7.250000
194 0 2 0.000000 23.660000 6.910000 7.620000
195 0 2 0.000000 22.170000 6.630000 7.620000
196 0 1 0.000000 24.230001 6.440000 2.460000
197 0 2 0.000000 24.000000 5.930000 3.240000
198 0 2 0.000000 24.090000 5.830000 1.730000
199 0 1 0.000000 19.650000 1.150000 2.510000
200 0 2 0.000000 18.950001 0.520000 2.310000
201 0 2 0.000000 19.650000 1.760000 1.780000
202 0 1 0.000000 18.330000 1.150000 7.320000
203 0 2 0.000000 19.090000 0.630000 7.600000
204 0 2 0.000000 18.609999 1.550000 6.490000
205 0 1 0.000000 24.700001 2.560000 2.370000
206 0 2 0.000000 25.360001 3.150000 2.750000
207 0 2 0.000000 23.870001 2.870000 2.740000
208 0 1 0.000000 22.530001 2.680000 7.330000
209 0 2 0.000000 22.299999 2.170000 8.110000
210 0 2 0.000000 22.390001 2.070000 6.610000
211 0 1 0.000000 17.930000 4.850000 7.330000
212 0 2 0.000000 17.790001 5.450000 6.610000
213 0 2 0.000000 17.700001 5.350000 8.110000
214 0 1 0.000000 20.100000 4.960000 2.370000
215 0 2 0.000000 19.270000 4.650000 2.740000
216 0 2 0.000000 20.760000 4.370000 2.750000
217 0 1 0.000000 25.079998 3.390000 6.390000
218 0 2 0.000000 25.190001 2.650000 5.790000
219 0 2 0.000000 24.219999 3.240000 6.790000
220 0 1 0.000000 22.139999 3.340000 3.310000
221 0 2 0.000000 22.630001 3.990000 3.820000
222 0 2 0.000000 22.130001 2.560000 3.860000
223 0 1 0.000000 17.580000 4.250000 3.360000
224 0 2 0.000000 16.849998 3.730000 3.020000
225 0 2 0.000000 18.090000 3.640000 3.890000
226 0 1 0.000000 20.450001 4.210000 6.320000
227 0 2 0.000000 19.650000 4.320000 6.850000
228 0 2 0.000000 21.010000 3.640000 6.850000
229 0 1 0.000000 26.800001 7.080000 1.510000
230 0 2 0.000000 26.020000 6.720000 1.940000
231 0 2 0.000000 26.450001 7.760000 0.930000
232 0 1 0.000000 20.480001 7.040000 8.240000
233 0 2 0.000000 20.990000 7.650000 8.760000
234 0 2 0.000000 19.760000 7.560000 7.900000
235 0 1 0.000000 15.809999 0.440000 8.240000
236 0 2 0.000000 16.150000 -0.230000 8.820001
237 0 2 0.000000 16.580000 0.810000 7.810000
238 0 1 0.000000 22.200001 0.440000 1.510000
239 0 2 0.000000 21.860001 -0.230000 0.930000
240 0 2 0.000000 21.420000 0.810000 1.940000
241 0 1 0.000000 23.590000 5.160000 4.810000
242 0 2 0.000000 23.299999 5.680000 5.560000
243 0 2 0.000000 24.119999 4.460000 5.200000
244 0 1 0.000000 18.940001 2.360000 4.900000
245 0 2 0.000000 19.590000 2.960000 5.260000
246 0 2 0.000000 19.340000 2.050000 4.080000
247 0 1 0.000000 25.360001 1.410000 -0.030000
248 0 2 0.000000 24.709999 0.800000 -0.390000
249 0 2 0.000000 24.960001 1.710000 0.790000
250 0 1 0.000000 20.690001 6.120000 -0.060000
251 0 2 0.000000 20.400000 5.600000 0.680000
252 0 2 0.000000 21.219999 6.820000 0.320000
253 0 1 0.000000 6.580000 8.580000 4.690000
254 0 2 0.000000 7.250000 7.930000 4.910000
255 0 2 0.000000 6.710000 9.280000 5.320000
256 0 1 0.000000 3.730000 8.550000 4.990000
257 0 2 0.000000 4.660000 8.480000 4.780000
258 0 2 0.000000 3.700000 9.080000 5.780000
259 0 1 0.000000 -0.870000 14.020000 4.990000
260 0 2 0.000000 -0.900000 13.490000 5.780000
261 0 2 0.000000 0.060000 14.090000 4.780000
262 0 1 0.000000 1.980000 13.990001 4.690000
263 0 2 0.000000 2.650000 14.639999 4.910000
264 0 2 0.000000 2.110000 13.290000 5.320000
265 0 1 0.000000 4.930000 12.280001 9.620000
266 0 2 0.000000 4.820000 12.719999 8.780001
267 0 2 0.000000 4.950000 12.990000 10.260000
268 0 1 0.000000 5.430000 12.309999 0.170000
269 0 2 0.000000 5.280000 13.080000 -0.370000
270 0 2 0.000000 6.380000 12.190000 0.160000
271 0 1 0.000000 0.830000 10.250000 0.110000
272 0 2 0.000000 0.800000 9.730000 0.910000
273 0 2 0.000000 1.760000 10.330000 -0.100000
274 0 1 0.000000 0.290000 10.210000 9.660000
275 0 2 0.000000 0.940000 10.910000 9.590000
276 0 2 0.000000 0.300000 9.790000 8.800000
277 0 1 0.000000 4.530000 13.890000 7.320000
278 0 2 0.000000 4.810000 13.500000 6.490000
279 0 2 0.000000 5.290000 14.420000 7.600000
280 0 1 0.000000 5.850000 13.900000 2.510000
281 0 2 0.000000 5.850000 13.290000 1.780000
282 0 2 0.000000 5.150000 14.520000 2.310000
283 0 1 0.000000 1.200000 8.719999 2.500000
284 0 2 0.000000 2.030000 8.410000 2.130000
285 0 2 0.000000 0.540000 8.140000 2.130000
286 0 1 0.000000 0.040000 8.660000 7.330000
287 0 2 0.000000 0.060000 9.070000 6.470000
288 0 2 0.000000 -0.890000 8.480000 7.490000
289 0 1 0.000000 6.270000 10.200000 2.420000
290 0 2 0.000000 6.410000 9.599999 3.150000
291 0 2 0.000000 6.500000 9.700001 1.640000
292 0 1 0.000000 4.170000 10.130000 7.310000
293 0 2 0.000000 3.900000 9.740000 8.140000
294 0 2 0.000000 3.420000 10.660000 7.030000
295 0 1 0.000000 -0.430000 12.440000 7.310000
296 0 2 0.000000 -1.180000 11.920000 7.030000
297 0 2 0.000000 -0.700000 12.830000 8.140000
298 0 1 0.000000 1.650000 12.430000 2.360000
299 0 2 0.000000 1.650000 13.049999 3.100000
300 0 2 0.000000 2.350000 11.809999 2.570000
301 0 1 0.000000 6.700000 10.840000 6.390000
302 0 2 0.000000 6.360000 11.520000 5.809999
303 0 2 0.000000 5.920000 10.480000 6.820000
304 0 1 0.000000 3.730000 10.910000 3.360000
305 0 2 0.000000 4.580000 10.770000 2.960000
306 0 2 0.000000 3.610000 10.170000 3.960000
307 0 1 0.000000 -0.870000 11.660000 3.360000
308 0 2 0.000000 -0.990000 12.400000 3.960000
309 0 2 0.000000 -0.020000 11.799999 2.960000
310 0 1 0.000000 2.100000 11.730000 6.390000
311 0 2 0.000000 1.320000 12.090000 6.820000
312 0 2 0.000000 1.760000 11.050000 5.809999
313 0 1 0.000000 8.400000 14.600000 1.510000
314 0 2 0.000000 7.620000 14.240000 1.940000
315 0 2 0.000000 8.059999 15.280000 0.930000
316 0 1 0.000000 2.030000 14.670000 8.240000
317 0 2 0.000000 1.920000 13.930000 8.840000
318 0 2 0.000000 2.890000 14.530000 7.840000
319 0 1 0.000000 -2.560000 7.940001 8.190001
320 0 2 0.000000 -2.060000 7.300000 8.700000
321 0 2 0.000000 -2.560000 8.730000 8.740000
322 0 1 0.000000 3.720000 8.010000 1.520000
323 0 2 0.000000 4.450000 7.490000 1.860000
324 0 2 0.000000 3.210000 7.400000 0.990000
325 0 1 0.000000 5.220000 12.680000 4.940000
326 0 2 0.000000 5.510000 13.210000 4.190000
327 0 2 0.000000 4.680000 11.990000 4.550000
328 0 1 0.000000 0.620000 9.890000 4.940000
329 0 2 0.000000 0.080000 10.580000 4.550000
330 0 2 0.000000 0.910000 9.360000 4.190000
331 0 1 0.000000 6.900000 8.980000 -0.000000
332 0 2 0.000000 6.380000 8.389999 -0.550000
333 0 2 0.000000 7.420000 8.389999 0.550000
334 0 1 0.000000 2.290000 13.650000 -0.060000
335 0 2 0.000000 2.820000 14.340000 0.320000
336 0 2 0.000000 2.000000 13.120001 0.680000
337 0 1 0.000000 15.790000 8.590000 4.790000
338 0 2 0.000000 16.440001 7.900000 4.720000
339 0 2 0.000000 15.800000 9.020000 3.930000
340 0 1 0.000000 12.930000 8.540000 5.050000
341 0 2 0.000000 12.780000 9.320000 4.510000
342 0 2 0.000000 13.880000 8.420000 5.040000
343 0 1 0.000000 8.330000 14.030000 5.050000
344 0 2 0.000000 9.280000 14.150000 5.040000
345 0 2 0.000000 8.180000 13.250000 4.510000
346 0 1 0.000000 11.180000 13.990001 4.690000
347 0 2 0.000000 11.310000 13.290000 5.320000
348 0 2 0.000000 11.849999 14.639999 4.910000
349 0 1 0.000000 14.180000 12.320000 9.639999
350 0 2 0.000000 13.250000 12.240000 9.850000
351 0 2 0.000000 14.200000 12.840000 8.840000
352 0 1 0.000000 14.630001 12.309999 0.170000
353 0 2 0.000000 15.580000 12.190000 0.160000
354 0 2 0.000000 14.480000 13.080000 -0.370000
355 0 1 0.000000 10.030001 10.250000 0.110000
356 0 2 0.000000 10.000000 9.730000 0.910000
357 0 2 0.000000 10.959999 10.330000 -0.100000
358 0 1 0.000000 9.530000 10.290001 9.620000
359 0 2 0.000000 9.420000 9.850000 8.780001
360 0 2 0.000000 9.550000 9.580000 10.260000
361 0 1 0.000000 13.730000 13.890000 7.320000
362 0 2 0.000000 14.010000 13.500000 6.490000
363 0 2 0.000000 14.490000 14.420000 7.600000
364 0 1 0.000000 15.050000 13.900000 2.510000
365 0 2 0.000000 14.349999 14.520000 2.310000
366 0 2 0.000000 15.050000 13.290000 1.780000
367 0 1 0.000000 10.360001 8.660000 2.420000
368 0 2 0.000000 10.340000 9.070000 3.280000
369 0 2 0.000000 11.289999 8.480000 2.260000
370 0 1 0.000000 9.200000 8.719999 7.250000
371 0 2 0.000000 8.370000 8.410000 7.620000
372 0 2 0.000000 9.860000 8.140000 7.620000
373 0 1 0.000000 15.430000 10.130000 2.450000
374 0 2 0.000000 15.700001 9.740000 1.620000
375 0 2 0.000000 16.180000 10.660000 2.720000
376 0 1 0.000000 13.350000 10.140000 7.390000
377 0 2 0.000000 12.660000 10.760000 7.180000
378 0 2 0.000000 13.350000 9.520000 6.650000
379 0 1 0.000000 8.750000 12.430000 7.390000
380 0 2 0.000000 8.750000 13.049999 6.650000
381 0 2 0.000000 8.059999 11.809999 7.180000
382 0 1 0.000000 10.850000 12.430000 2.360000
383 0 2 0.000000 10.850000 13.049999 3.100000
384 0 2 0.000000 11.549999 11.809999 2.570000
385 0 1 0.000000 15.880001 10.910000 6.390000
386 0 2 0.000000 15.020000 10.770000 6.790000
387 0 2 0.000000 15.990000 10.170000 5.790000
388 0 1 0.000000 12.910000 10.840000 3.360000
389 0 2 0.000000 13.250000 11.520000 3.950000
390 0 2 0.000000 13.680000 10.480000 2.940000
391 0 1 0.000000 8.349999 11.740000 3.430000
392 0 2 0.000000 7.800000 11.160001 2.900000
393 0 2 0.000000 9.150001 11.840000 2.910000
394 0 1 0.000000 11.300000 11.730000 6.390000
395 0 2 0.000000 10.520000 12.090000 6.820000
396 0 2 0.000000 10.959999 11.050000 5.809999
397 0 1 0.000000 17.549999 14.600000 1.450000
398 0 2 0.000000 16.750000 14.490000 1.970000
399 0 2 0.000000 18.110001 15.170000 1.970000
400 0 1 0.000000 11.260000 14.600000 8.309999
401 0 2 0.000000 10.700001 15.170000 7.780000
402 0 2 0.000000 12.050000 14.490000 7.780000
403 0 1 0.000000 6.640000 7.940001 8.190001
404 0 2 0.000000 6.640000 8.730000 8.740000
405 0 2 0.000000 7.140000 7.300000 8.700000
406 0 1 0.000000 12.920000 8.010000 1.520000
407 0 2 0.000000 13.650000 7.490000 1.860000
408 0 2 0.000000 12.410001 7.400000 0.990000
409 0 1 0.000000 14.340000 12.690001 4.900000
410 0 2 0.000000 14.990000 12.080000 5.260000
411 0 2 0.000000 14.740000 13.000000 4.080000
412 0 1 0.000000 9.860000 9.880000 4.850000
413 0 2 0.000000 9.220000 10.490000 4.490000
414 0 2 0.000000 9.470000 9.570000 5.670000
415 0 1 0.000000 16.039999 8.930000 0.030000
416 0 2 0.000000 16.440001 9.240000 -0.790000
417 0 2 0.000000 16.690001 8.320000 0.390000
418 0 1 0.000000 11.560000 13.639999 -0.030000
419 0 2 0.000000 11.160001 13.330000 0.790000
420 0 2 0.000000 10.910000 14.250000 -0.390000
421 0 1 0.000000 25.070000 8.550000 4.770000
422 0 2 0.000000 24.139999 8.480000 4.980000
423 0 2 0.000000 25.100000 9.080000 3.970000
424 0 1 0.000000 22.209999 8.590000 4.970000
425 0 2 0.000000 21.559999 7.900000 5.040000
426 0 2 0.000000 22.200001 9.020000 5.820000
427 0 1 0.000000 17.619999 13.980000 4.970000
428 0 2 0.000000 16.959999 14.670000 5.040000
429 0 2 0.000000 17.600000 13.550000 5.820000
430 0 1 0.000000 20.450001 13.930000 4.720000
431 0 2 0.000000 20.889999 14.770000 4.860000
432 0 2 0.000000 19.520000 14.130000 4.850000
433 0 1 0.000000 23.350000 12.400000 9.599999
434 0 2 0.000000 22.430000 12.200001 9.730000
435 0 2 0.000000 23.800001 11.560000 9.730000
436 0 1 0.000000 23.920000 12.340000 0.190000
437 0 2 0.000000 23.789999 13.040000 -0.450000
438 0 2 0.000000 23.250000 11.690001 -0.030000
439 0 1 0.000000 19.320000 10.230000 0.190000
440 0 2 0.000000 19.190001 9.530000 -0.450000
441 0 2 0.000000 18.650000 10.880001 -0.030000
442 0 1 0.000000 18.750000 10.170000 9.599999
443 0 2 0.000000 19.199999 11.009999 9.730000
444 0 2 0.000000 17.830000 10.369999 9.730000
445 0 1 0.000000 22.969999 13.960000 7.300000
446 0 2 0.000000 23.110001 13.360000 8.020000
447 0 2 0.000000 23.199999 13.459999 6.520000
448 0 1 0.000000 24.180000 13.910000 2.510000
449 0 2 0.000000 23.940001 13.350000 1.780000
450 0 2 0.000000 25.050001 14.230000 2.300000
451 0 1 0.000000 19.580000 8.660000 2.510000
452 0 2 0.000000 19.340000 9.220000 1.780000
453 0 2 0.000000 20.450001 8.340000 2.300000
454 0 1 0.000000 18.370001 8.610000 7.300000
455 0 2 0.000000 18.510000 9.210000 8.020000
456 0 2 0.000000 18.600000 9.110001 6.520000
457 0 1 0.000000 24.700001 10.089999 2.370000
458 0 2 0.000000 23.870001 10.400000 2.740000
459 0 2 0.000000 25.360001 10.670000 2.750000
460 0 1 0.000000 22.500000 10.089999 7.380000
461 0 2 0.000000 23.330000 10.400000 7.010000
462 0 2 0.000000 21.840000 10.670000 7.010000
463 0 1 0.000000 17.970001 12.440000 7.310000
464 0 2 0.000000 17.219999 11.920000 7.030000
465 0 2 0.000000 17.700001 12.830000 8.140000
466 0 1 0.000000 20.120001 12.420000 2.360000
467 0 2 0.000000 20.360001 12.980000 3.100000
468 0 2 0.000000 19.250000 12.100000 2.580000
469 0 1 0.000000 25.060001 10.870000 6.440000
470 0 2 0.000000 24.570000 11.510000 5.930000
471 0 2 0.000000 25.070000 10.080000 5.890000
472 0 1 0.000000 22.230000 10.880001 3.350000
473 0 2 0.000000 22.010000 10.130000 3.910000
474 0 2 0.000000 21.380001 11.280001 3.140000
475 0 1 0.000000 17.539999 11.700000 3.310000
476 0 2 0.000000 17.530001 12.490000 3.860000
477 0 2 0.000000 18.040001 11.059999 3.820000
478 0 1 0.000000 20.480001 11.660000 6.390000
479 0 2 0.000000 20.590000 12.400000 5.790000
480 0 2 0.000000 19.620001 11.799999 6.790000
481 0 1 0.000000 26.760002 14.630001 1.560000
482 0 2 0.000000 26.270000 15.270000 1.060000
483 0 2 0.000000 26.770000 13.839999 1.020000
484 0 1 0.000000 20.459999 14.600000 8.309999
485 0 2 0.000000 21.250000 14.490000 7.780000
486 0 2 0.000000 19.900000 15.170000 7.780000
487 0 1 0.000000 15.809999 7.970000 8.240000
488 0 2 0.000000 16.580000 8.330000 7.810000
489 0 2 0.000000 16.150000 7.290000 8.820001
490 0 1 0.000000 22.070000 7.930000 1.530000
491 0 2 0.000000 22.920000 7.530000 1.740000
492 0 2 0.000000 22.290001 8.670000 0.970000
493 0 1 0.000000 23.610001 12.680000 4.940000
494 0 2 0.000000 23.910000 13.210000 4.190000
495 0 2 0.000000 23.080002 11.990000 4.550000
496 0 1 0.000000 18.940001 9.880000 4.900000
497 0 2 0.000000 19.590000 10.490000 5.260000
498 0 2 0.000000 19.340000 9.570000 4.080000
499 0 1 0.000000 25.360001 8.930000 -0.030000
500 0 2 0.000000 24.709999 8.320000 -0.390000
501 0 2 0.000000 24.960001 9.240000 0.790000
502 0 1 0.000000 20.690001 13.650000 -0.060000
503 0 2 0.000000 20.400000 13.120001 0.680000
504 0 2 0.000000 21.219999 14.340000 0.320000
505 0 1 0.000000 6.580000 16.100000 4.690000
506 0 2 0.000000 7.250000 15.450000 4.910000
507 0 2 0.000000 6.710000 16.799999 5.320000
508 0 1 0.000000 3.730000 16.070000 5.050000
509 0 2 0.000000 3.580000 16.840000 4.510000
510 0 2 0.000000 4.680000 15.950001 5.040000
511 0 1 0.000000 -0.830000 21.580000 5.010000
512 0 2 0.000000 -0.840000 20.869999 4.370000
513 0 2 0.000000 -0.710000 21.140001 5.850000
514 0 1 0.000000 2.050000 21.459999 4.720000
515 0 2 0.000000 1.120000 21.650000 4.850000
516 0 2 0.000000 2.490000 22.290001 4.860000
517 0 1 0.000000 4.890000 19.880001 9.660000
518 0 2 0.000000 5.540000 19.180000 9.590000
519 0 2 0.000000 4.900000 20.309999 8.800000
520 0 1 0.000000 5.430000 19.840000 0.110000
521 0 2 0.000000 5.400000 20.369999 0.910000
522 0 2 0.000000 6.360000 19.760000 -0.100000
523 0 1 0.000000 0.830000 17.780001 0.110000
524 0 2 0.000000 0.800000 17.250000 0.910000
525 0 2 0.000000 1.760000 17.850000 -0.100000
526 0 1 0.000000 0.290000 17.740000 9.660000
527 0 2 0.000000 0.300000 17.309999 8.800000
528 0 2 0.000000 0.940000 18.430000 9.590000
529 0 1 0.000000 4.600000 21.370001 7.250000
530 0 2 0.000000 3.770000 21.680000 7.620000
531 0 2 0.000000 5.260000 21.960001 7.620000
532 0 1 0.000000 5.800000 21.370001 2.500000
533 0 2 0.000000 5.140000 21.960001 2.130000
534 0 2 0.000000 6.630000 21.680000 2.130000
535 0 1 0.000000 1.270000 16.200001 2.430000
536 0 2 0.000000 1.000000 16.590000 3.260000
537 0 2 0.000000 0.520000 15.679999 2.160000
538 0 1 0.000000 0.000000 16.240000 7.250000
539 0 2 0.000000 -0.830000 15.940000 7.620000
540 0 2 0.000000 0.660000 15.660000 7.620000
541 0 1 0.000000 6.330000 17.670000 2.360000
542 0 2 0.000000 5.450000 18.000000 2.580000
543 0 2 0.000000 6.560000 17.110001 3.100000
544 0 1 0.000000 4.130000 17.719999 7.330000
545 0 2 0.000000 3.990000 17.120001 6.610000
546 0 2 0.000000 3.900000 17.219999 8.110000
547 0 1 0.000000 -0.540000 19.939999 7.300000
548 0 2 0.000000 -0.560000 20.360001 8.160000
549 0 2 0.000000 0.390000 19.770000 7.140000
550 0 1 0.000000 1.670000 19.889999 2.420000
551 0 2 0.000000 1.900000 20.400000 1.640000
552 0 2 0.000000 1.810000 20.500000 3.150000
553 0 1 0.000000 6.700000 18.370001 6.390000
554 0 2 0.000000 5.920000 18.000000 6.820000
555 0 2 0.000000 6.360000 19.040001 5.809999
556 0 1 0.000000 3.780000 18.320000 3.360000
557 0 2 0.000000 4.290000 18.930000 3.890000
558 0 2 0.000000 3.050000 18.840000 3.020000
559 0 1 0.000000 -0.890000 19.250000 3.360000
560 0 2 0.000000 -0.550000 18.570000 3.950000
561 0 2 0.000000 -0.120000 19.620001 2.940000
562 0 1 0.000000 1.980000 19.209999 6.400000
563 0 2 0.000000 2.820000 18.820000 6.610000
564 0 2 0.000000 2.200000 19.960001 5.840000
565 0 1 0.000000 8.360001 22.150000 1.560000
566 0 2 0.000000 8.370000 21.370001 1.020000
567 0 2 0.000000 7.870000 22.799999 1.060000
568 0 1 0.000000 2.080000 22.080000 8.240000
569 0 2 0.000000 1.360000 22.609999 7.900000
570 0 2 0.000000 2.590000 22.690001 8.760000
571 0 1 0.000000 -2.520000 15.540000 8.240000
572 0 2 0.000000 -3.240000 15.010000 7.900000
573 0 2 0.000000 -2.010000 14.920000 8.760000
574 0 1 0.000000 3.780000 15.420000 1.520000
575 0 2 0.000000 2.920000 15.570001 1.920000
576 0 2 0.000000 3.890000 16.160000 0.920000
577 0 1 0.000000 5.200000 20.130001 4.880000
578 0 2 0.000000 5.390000 20.720001 4.140000
579 0 2 0.000000 5.020000 20.720001 5.610000
580 0 1 0.000000 0.590000 17.410000 4.810000
581 0 2 0.000000 1.120000 18.110001 5.200000
582 0 2 0.000000 0.300000 16.889999 5.560000
583 0 1 0.000000 6.900000 16.369999 -0.000000
584 0 2 0.000000 7.090000 16.959999 -0.730000
585 0 2 0.000000 6.710000 16.959999 0.730000
586 0 1 0.000000 2.310000 21.170002 0.060000
587 0 2 0.000000 2.600000 20.650002 -0.680000
588 0 2 0.000000 1.780000 21.870001 -0.320000
589 0 1 0.000000 15.830000 16.039999 4.750000
590 0 2 0.000000 15.850000 16.750000 5.390000
591 0 2 0.000000 15.720000 16.480000 3.900000
592 0 1 0.000000 12.930000 16.080000 4.990000
593 0 2 0.000000 12.900000 16.610001 5.780000
594 0 2 0.000000 13.860001 16.000000 4.780000
595 0 1 0.000000 8.370000 21.580000 5.010000
596 0 2 0.000000 8.360001 20.869999 4.370000
597 0 2 0.000000 8.490000 21.140001 5.850000
598 0 1 0.000000 11.270000 21.549999 4.700000
599 0 2 0.000000 10.320000 21.670000 4.710000
600 0 2 0.000000 11.420000 20.780001 5.250000
601 0 1 0.000000 14.170000 19.830000 9.580000
602 0 2 0.000000 14.320001 20.599998 10.120000
603 0 2 0.000000 13.220000 19.709999 9.590000
604 0 1 0.000000 14.709999 19.880001 0.090000
605 0 2 0.000000 14.060000 19.180000 0.160000
606 0 2 0.000000 14.700001 20.309999 0.950000
607 0 1 0.000000 10.070000 17.820000 0.130000
608 0 2 0.000000 10.050000 17.110001 -0.510000
609 0 2 0.000000 10.180000 17.380001 0.970000
610 0 1 0.000000 9.480000 17.760000 9.559999
611 0 2 0.000000 10.150000 18.400000 9.780000
612 0 2 0.000000 9.610001 17.050001 10.200000
613 0 1 0.000000 13.750000 21.420000 7.240000
614 0 2 0.000000 13.750000 20.810001 7.980000
615 0 2 0.000000 14.450001 22.049999 7.450000
616 0 1 0.000000 15.070000 21.420000 2.430000
617 0 2 0.000000 14.320001 21.940001 2.160000
618 0 2 0.000000 14.800000 21.020000 3.260000
619 0 1 0.000000 10.470000 16.200001 2.430000
620 0 2 0.000000 9.720000 15.679999 2.160000
621 0 2 0.000000 10.200000 16.590000 3.260000
622 0 1 0.000000 9.230000 16.180000 7.240000
623 0 2 0.000000 9.460000 16.740000 7.980000
624 0 2 0.000000 8.349999 15.860000 7.450000
625 0 1 0.000000 15.540000 17.670000 2.450000
626 0 2 0.000000 14.610000 17.850000 2.620000
627 0 2 0.000000 15.559999 17.260000 1.590000
628 0 1 0.000000 13.370000 17.650000 7.310000
629 0 2 0.000000 12.620000 18.180000 7.030000
630 0 2 0.000000 13.099999 17.260000 8.140000
631 0 1 0.000000 8.770000 19.960001 7.310000
632 0 2 0.000000 8.500000 20.360001 8.140000
633 0 2 0.000000 8.020000 19.440001 7.030000
634 0 1 0.000000 10.850000 19.960001 2.360000
635 0 2 0.000000 11.549999 19.330000 2.570000
636 0 2 0.000000 10.850000 20.570000 3.100000
637 0 1 0.000000 15.850000 18.360001 6.320000
638 0 2 0.000000 15.050000 18.250000 6.850000
639 0 2 0.000000 16.410000 18.930000 6.850000
640 0 1 0.000000 12.940001 18.389999 3.310000
641 0 2 0.000000 13.440000 19.030001 3.820000
642 0 2 0.000000 12.930000 17.610001 3.860000
643 0 1 0.000000 8.349999 19.260000 3.430000
644 0 2 0.000000 9.150001 19.360001 2.910000
645 0 2 0.000000 7.800000 18.689999 2.900000
646 0 1 0.000000 11.300000 19.250000 6.390000
647 0 2 0.000000 10.959999 18.570000 5.809999
648 0 2 0.000000 10.520000 19.620001 6.820000
649 0 1 0.000000 17.600000 22.130001 1.510000
650 0 2 0.000000 16.820000 21.760002 1.940000
651 0 2 0.000000 17.260000 22.809999 0.930000
652 0 1 0.000000 11.260000 22.119999 8.309999
653 0 2 0.000000 10.700001 22.690001 7.780000
654 0 2 0.000000 12.050000 22.019999 7.780000
655 0 1 0.000000 6.640000 15.460000 8.190001
656 0 2 0.000000 6.640000 16.250000 8.740000
657 0 2 0.000000 7.140000 14.820000 8.700000