LAMMPS data file via MDAnalysis

        1728  atoms
           0  bonds
           0  angles
           0  dihedrals
           0  impropers

           2  atom types
           0  bond types
           0  angle types
           0  dihedral types
           0  improper types

0.000000 17.621000 xlo xhi
0.000000 45.801891 ylo yhi
0.000000 21.497999 zlo zhi


Masses

1 15.999400
2 1.007940

Atoms

1 0 1 -1.179400 1.216353 2.293128 1.910767
2 0 2 0.589700 0.412417 2.004598 2.280829
3 0 2 0.589700 1.241315 3.235377 2.071846
4 0 1 -1.179400 3.053849 6.483585 20.174356
5 0 2 0.589700 3.837549 6.197677 19.761539
6 0 2 0.589700 2.894049 7.355639 19.827044
7 0 1 -1.179400 7.481986 9.507577 16.446789
8 0 2 0.589700 7.572710 9.527167 17.369457
9 0 2 0.589700 6.637501 9.870205 16.288746
10 0 1 -1.179400 3.429296 6.594723 6.132302
11 0 2 0.589700 2.613609 6.183104 5.939752
12 0 2 0.589700 3.355869 7.479668 5.786662
13 0 1 -1.179400 0.216830 10.290941 8.582628
14 0 2 0.589700 0.260739 11.146805 8.995465
15 0 2 0.589700 0.953073 9.814828 8.908729
16 0 1 -1.179400 3.020632 14.805681 6.083334
17 0 2 0.589700 2.983167 14.777188 7.009470
18 0 2 0.589700 3.701831 14.197406 5.860477
19 0 1 -1.179400 1.082957 2.050085 20.747276
20 0 2 0.589700 1.149413 2.147669 0.182047
21 0 2 0.589700 1.193829 2.937007 20.416677
22 0 1 -1.179400 9.512945 13.224780 16.657291
23 0 2 0.589700 10.245096 13.753332 16.406521
24 0 2 0.589700 9.554684 13.196817 17.583261
25 0 1 -1.179400 0.661728 20.730234 19.786972
26 0 2 0.589700 0.697027 20.912443 18.877316
27 0 2 0.589700 0.333888 19.836634 19.843275
28 0 1 -1.179400 5.260455 2.487476 1.545937
29 0 2 0.589700 4.727927 1.891174 2.039114
30 0 2 0.589700 5.224979 3.315308 2.010052
31 0 1 -1.179400 7.052122 22.310419 6.394138
32 0 2 0.589700 7.812913 22.206215 5.872363
33 0 2 0.589700 6.399469 21.804647 5.952737
34 0 1 -1.179400 0.581430 2.308497 9.172287
35 0 2 0.589700 0.650841 3.218420 9.451503
36 0 2 0.589700 1.442090 1.959623 9.253837
37 0 1 -1.179400 2.440460 22.310049 8.195838
38 0 2 0.589700 1.663865 22.025229 8.622511
39 0 2 0.589700 3.119178 22.111471 8.798579
40 0 1 -1.179400 7.779277 1.195594 19.508451
41 0 2 0.589700 7.010746 1.634582 19.808041
42 0 2 0.589700 7.473680 46.186214 19.122480
43 0 1 -1.179400 0.658208 10.664864 1.607462
44 0 2 0.589700 1.440543 10.312597 1.971869
45 0 2 0.589700 0.543172 11.509381 2.028496
46 0 1 -1.179400 14.090001 20.841383 19.010773
47 0 2 0.589700 14.770098 21.248112 19.503889
48 0 2 0.589700 13.319738 21.297642 19.280191
49 0 1 -1.179400 7.234212 14.229675 15.599910
50 0 2 0.589700 7.240564 15.099424 15.986993
51 0 2 0.589700 7.972999 13.787617 15.963147
52 0 1 -1.179400 0.178911 13.248965 16.911329
53 0 2 0.589700 0.325269 13.378492 17.818398
54 0 2 0.589700 17.096857 13.827987 16.710562
55 0 1 -1.179400 13.537855 13.570035 2.595081
56 0 2 0.589700 13.573128 13.390532 3.505248
57 0 2 0.589700 13.768889 12.739754 2.195588
58 0 1 -1.179400 9.389672 12.876957 9.354300
59 0 2 0.589700 8.561442 13.236013 9.120790
60 0 2 0.589700 9.419490 12.950622 10.278372
61 0 1 -1.179400 11.259674 21.846897 1.294650
62 0 2 0.589700 12.075377 21.473021 1.549353
63 0 2 0.589700 11.280636 22.744001 1.617246
64 0 1 -1.179400 7.480077 9.082586 1.848368
65 0 2 0.589700 7.590412 8.156212 1.642791
66 0 2 0.589700 7.490803 9.112774 2.775148
67 0 1 -1.179400 9.604228 13.102283 12.135240
68 0 2 0.589700 9.767112 12.221124 12.458743
69 0 2 0.589700 10.327193 13.620173 12.429679
70 0 1 -1.179400 5.693380 2.263826 15.986676
71 0 2 0.589700 5.560179 2.359369 15.073647
72 0 2 0.589700 4.979187 1.729155 16.274239
73 0 1 -1.179400 13.781240 18.381996 20.368181
74 0 2 0.589700 14.003711 19.191471 19.926037
75 0 2 0.589700 12.979463 18.108376 19.983112
76 0 1 -1.179400 9.975328 2.849282 12.979297
77 0 2 0.589700 10.079477 3.641654 12.469625
78 0 2 0.589700 10.129192 3.135164 13.850823
79 0 1 -1.179400 2.770953 21.248434 0.144873
80 0 2 0.589700 2.085433 21.037571 21.039160
81 0 2 0.589700 3.217798 21.980322 21.232794
82 0 1 -1.179400 5.251574 2.459624 5.812993
83 0 2 0.589700 4.554131 1.831745 5.880655
84 0 2 0.589700 5.980146 1.934530 5.545566
85 0 1 -1.179400 6.967422 22.152380 9.041726
86 0 2 0.589700 6.982359 22.301088 8.125805
87 0 2 0.589700 7.799691 21.777269 9.233486
88 0 1 -1.179400 4.439595 21.190281 12.165109
89 0 2 0.589700 4.529891 21.254017 11.244271
90 0 2 0.589700 4.677630 20.288176 12.363918
91 0 1 -1.179400 12.224566 9.364050 2.110461
92 0 2 0.589700 12.078709 9.220439 3.015615
93 0 2 0.589700 11.496266 9.883749 1.832591
94 0 1 -1.179400 0.195469 21.301229 9.306887
95 0 2 0.589700 17.075298 21.771494 9.003781
96 0 2 0.589700 0.051638 21.194180 10.217100
97 0 1 -1.179400 16.196993 9.270041 16.581373
98 0 2 0.589700 16.245771 8.369617 16.270676
99 0 2 0.589700 15.359906 9.576166 16.311447
100 0 1 -1.179400 4.709764 18.367496 8.639954
101 0 2 0.589700 5.379336 17.722010 8.786730
102 0 2 0.589700 4.833434 18.646929 7.761692
103 0 1 -1.179400 10.024487 10.488544 12.968790
104 0 2 0.589700 9.327013 9.902081 12.741330
105 0 2 0.589700 10.030783 10.489065 13.896070
106 0 1 -1.179400 11.989356 1.125842 2.271360
107 0 2 0.589700 11.961651 1.248402 3.190610
108 0 2 0.589700 11.163829 1.437214 1.973044
109 0 1 -1.179400 14.217701 5.089295 1.987988
110 0 2 0.589700 13.627226 5.613844 1.484218
111 0 2 0.589700 14.991650 5.616464 2.026118
112 0 1 -1.179400 1.091330 5.212976 9.504487
113 0 2 0.589700 0.897308 5.314122 10.406004
114 0 2 0.589700 1.895251 5.676662 9.389131
115 0 1 -1.179400 9.667571 13.100100 19.292643
116 0 2 0.589700 10.249092 13.744420 19.657135
117 0 2 0.589700 8.821188 13.439157 19.485779
118 0 1 -1.179400 13.921246 21.416693 2.006895
119 0 2 0.589700 13.830621 21.597805 2.912936
120 0 2 0.589700 14.528143 22.071379 1.706678
121 0 1 -1.179400 3.166861 9.438728 2.527781
122 0 2 0.589700 3.312326 9.452738 3.443530
123 0 2 0.589700 2.878994 8.547282 2.350779
124 0 1 -1.179400 4.861109 13.152800 16.417435
125 0 2 0.589700 4.928589 13.321796 17.327675
126 0 2 0.589700 5.623701 13.550272 16.054918
127 0 1 -1.179400 9.520102 20.918901 19.214146
128 0 2 0.589700 8.844948 21.477627 19.548988
129 0 2 0.589700 10.306064 21.364111 19.454062
130 0 1 -1.179400 15.636705 22.935637 8.478129
131 0 2 0.589700 15.608108 23.840216 8.779887
132 0 2 0.589700 14.809548 22.571968 8.708711
133 0 1 -1.179400 1.262559 2.438978 15.710382
134 0 2 0.589700 1.024610 3.252479 16.137287
135 0 2 0.589700 0.534543 1.859552 15.836889
136 0 1 -1.179400 5.265362 5.010595 2.715185
137 0 2 0.589700 5.295280 5.124332 3.635433
138 0 2 0.589700 4.584306 5.593442 2.435388
139 0 1 -1.179400 7.537553 9.209000 19.074896
140 0 2 0.589700 6.863409 9.607403 19.582342
141 0 2 0.589700 7.612394 8.318160 19.405699
142 0 1 -1.179400 5.398520 5.093466 19.392183
143 0 2 0.589700 5.428629 4.197857 19.717943
144 0 2 0.589700 5.443745 4.994547 18.470953
145 0 1 -1.179400 8.026513 6.770269 5.458338
146 0 2 0.589700 7.244272 6.260225 5.385890
147 0 2 0.589700 8.128010 6.917336 6.369005
148 0 1 -1.179400 15.544506 14.341571 16.084661
149 0 2 0.589700 15.467865 15.242987 16.386913
150 0 2 0.589700 15.556273 14.418007 15.160396
151 0 1 -1.179400 14.179830 10.654096 20.445257
152 0 2 0.589700 14.253510 10.743875 21.365532
153 0 2 0.589700 14.147162 11.554048 20.131197
154 0 1 -1.179400 9.456740 13.142682 2.112195
155 0 2 0.589700 10.235414 13.615160 1.899006
156 0 2 0.589700 9.531329 12.309444 1.661992
157 0 1 -1.179400 6.884307 16.871370 19.301107
158 0 2 0.589700 7.561282 17.433657 19.626545
159 0 2 0.589700 7.027455 16.844423 18.385267
160 0 1 -1.179400 7.756583 6.649238 20.059965
161 0 2 0.589700 7.222793 6.073413 19.545755
162 0 2 0.589700 7.493184 6.476746 20.933319
163 0 1 -1.179400 10.138120 5.427968 4.736462
164 0 2 0.589700 10.850963 5.865429 5.152771
165 0 2 0.589700 9.390174 5.917789 5.013200
166 0 1 -1.179400 3.260019 44.954948 8.467964
167 0 2 0.589700 2.475027 44.451977 8.380369
168 0 2 0.589700 3.615192 44.671825 9.279624
169 0 1 -1.179400 11.030779 22.407763 5.301141
170 0 2 0.589700 11.876155 22.246908 4.950974
171 0 2 0.589700 10.873741 23.336035 5.138345
172 0 1 -1.179400 5.044771 12.785932 2.343455
173 0 2 0.589700 4.333922 13.147939 1.860997
174 0 2 0.589700 5.123421 11.885039 2.040233
175 0 1 -1.179400 9.566133 3.128823 8.179421
176 0 2 0.589700 8.790041 2.662995 8.414603
177 0 2 0.589700 9.597028 3.069638 7.254409
178 0 1 -1.179400 16.019606 14.479310 1.971186
179 0 2 0.589700 15.227713 14.065193 2.241925
180 0 2 0.589700 15.881623 15.414210 2.114440
181 0 1 -1.179400 1.191636 5.330566 5.345890
182 0 2 0.589700 0.414308 5.798544 5.572842
183 0 2 0.589700 1.061178 4.443082 5.667827
184 0 1 -1.179400 6.927497 16.674973 9.270167
185 0 2 0.589700 7.715634 17.140753 9.078978
186 0 2 0.589700 7.115518 15.759137 9.076866
187 0 1 -1.179400 4.877902 20.718386 1.869767
188 0 2 0.589700 5.544539 21.341904 1.642567
189 0 2 0.589700 4.204091 20.875216 1.250212
190 0 1 -1.179400 12.146568 6.715405 1.213759
191 0 2 0.589700 12.127289 6.836013 0.294050
192 0 2 0.589700 12.175743 7.604086 1.556946
193 0 1 -1.179400 16.080139 9.376804 12.340644
194 0 2 0.589700 16.016632 8.480807 12.660562
195 0 2 0.589700 16.006380 9.288581 11.420232
196 0 1 -1.179400 15.910129 6.897894 13.012192
197 0 2 0.589700 16.660505 6.443814 12.688747
198 0 2 0.589700 15.192921 6.420682 12.647561
199 0 1 -1.179400 4.974208 12.987047 5.167542
200 0 2 0.589700 4.848563 12.781953 4.270515
201 0 2 0.589700 5.830388 13.354620 5.209356
202 0 1 -1.179400 15.662791 17.091648 16.735420
203 0 2 0.589700 16.364458 17.525991 16.297659
204 0 2 0.589700 14.917547 17.621387 16.529510
205 0 1 -1.179400 16.205734 14.632353 5.859634
206 0 2 0.589700 16.362078 15.483457 5.465168
207 0 2 0.589700 16.018938 14.836698 6.746137
208 0 1 -1.179400 12.558800 1.770335 16.778053
209 0 2 0.589700 11.766428 2.127895 16.441143
210 0 2 0.589700 12.404779 1.678833 17.688200
211 0 1 -1.179400 11.481312 14.568853 8.364784
212 0 2 0.589700 10.811020 14.013629 8.714501
213 0 2 0.589700 11.273685 15.449368 8.663407
214 0 1 -1.179400 14.334133 2.382060 1.595725
215 0 2 0.589700 13.487142 2.102685 1.862023
216 0 2 0.589700 14.300559 3.338225 1.621143
217 0 1 -1.179400 5.236369 10.401011 1.172639
218 0 2 0.589700 6.030836 9.914932 1.264391
219 0 2 0.589700 4.590755 9.825253 1.537197
220 0 1 -1.179400 14.570929 4.896610 19.277313
221 0 2 0.589700 13.790167 5.211674 19.675497
222 0 2 0.589700 15.251615 5.344712 19.734663
223 0 1 -1.179400 3.085784 6.259769 16.122820
224 0 2 0.589700 3.032852 7.182018 16.365252
225 0 2 0.589700 3.145776 6.273506 15.197550
226 0 1 -1.179400 5.223634 18.108707 1.044828
227 0 2 0.589700 4.524696 17.666672 1.479712
228 0 2 0.589700 5.242930 18.985415 1.416438
229 0 1 -1.179400 11.702775 9.287558 4.594094
230 0 2 0.589700 11.885634 8.465860 5.033185
231 0 2 0.589700 12.446558 9.835364 4.756283
232 0 1 -1.179400 2.756819 14.665415 13.022626
233 0 2 0.589700 3.513381 14.164023 12.792656
234 0 2 0.589700 2.811251 14.760715 13.943717
235 0 1 -1.179400 16.834555 0.740183 16.031761
236 0 2 0.589700 16.159243 1.362718 15.828895
237 0 2 0.589700 16.956161 46.042061 15.250433
238 0 1 -1.179400 3.058731 17.254229 5.384868
239 0 2 0.589700 3.041094 16.338259 5.653372
240 0 2 0.589700 3.900773 17.565321 5.633219
241 0 1 -1.179400 13.606077 13.264281 9.324638
242 0 2 0.589700 13.611929 13.376795 10.245495
243 0 2 0.589700 12.946296 13.862984 9.026041
244 0 1 -1.179400 9.770545 10.642212 15.588861
245 0 2 0.589700 9.554042 11.496969 15.945754
246 0 2 0.589700 9.019814 10.102360 15.743996
247 0 1 -1.179400 4.941530 21.237080 4.650537
248 0 2 0.589700 4.167690 21.721539 4.855897
249 0 2 0.589700 4.812403 20.937120 3.779445
250 0 1 -1.179400 15.543315 23.020269 15.408001
251 0 2 0.589700 15.658738 22.801983 14.512527
252 0 2 0.589700 15.462055 23.973663 15.420174
253 0 1 -1.179400 3.159158 6.776799 1.696614
254 0 2 0.589700 3.133539 6.659438 0.776663
255 0 2 0.589700 2.437909 6.269460 2.011752
256 0 1 -1.179400 2.339687 9.216485 9.711640
257 0 2 0.589700 2.658280 8.345179 9.497014
258 0 2 0.589700 2.980583 9.816914 9.377385
259 0 1 -1.179400 0.727984 10.559320 13.335917
260 0 2 0.589700 17.570604 10.179131 13.009205
261 0 2 0.589700 0.638020 10.517178 14.257949
262 0 1 -1.179400 16.501099 6.428148 20.292233
263 0 2 0.589700 17.211245 5.947707 19.917915
264 0 2 0.589700 16.456154 7.240712 19.804224
265 0 1 -1.179400 6.895040 22.341627 1.327518
266 0 2 0.589700 7.242614 23.226032 1.399736
267 0 2 0.589700 7.520514 21.783958 1.749049
268 0 1 -1.179400 7.349990 16.889585 11.976948
269 0 2 0.589700 7.099316 16.715141 11.100230
270 0 2 0.589700 7.368823 16.027081 12.378561
271 0 1 -1.179400 12.235726 1.498987 19.293005
272 0 2 0.589700 13.073096 1.728894 19.625771
273 0 2 0.589700 11.646153 2.056043 19.764017
274 0 1 -1.179400 5.520006 2.878903 8.573888
275 0 2 0.589700 5.665797 2.836359 7.659019
276 0 2 0.589700 6.155405 2.289757 8.936272
277 0 1 -1.179400 5.493676 5.047133 16.546381
278 0 2 0.589700 5.434518 4.138152 16.261982
279 0 2 0.589700 4.635773 5.395373 16.437788
280 0 1 -1.179400 11.633970 8.890969 16.689220
281 0 2 0.589700 11.698919 8.975746 17.610594
282 0 2 0.589700 10.953750 9.494172 16.450977
283 0 1 -1.179400 9.561692 10.412119 8.109387
284 0 2 0.589700 9.699673 11.305777 8.411548
285 0 2 0.589700 10.143492 9.877936 8.613725
286 0 1 -1.179400 9.722093 10.597535 19.980764
287 0 2 0.589700 8.899993 10.241210 19.723001
288 0 2 0.589700 9.647199 11.539366 19.833414
289 0 1 -1.179400 3.508081 0.806117 16.615908
290 0 2 0.589700 3.428365 0.653179 17.527826
291 0 2 0.589700 2.758142 1.322371 16.395357
292 0 1 -1.179400 3.042847 17.317524 2.597489
293 0 2 0.589700 2.940384 16.402384 2.345789
294 0 2 0.589700 3.117250 17.288933 3.521394
295 0 1 -1.179400 7.363338 14.396815 12.978097
296 0 2 0.589700 7.273629 14.240899 13.888616
297 0 2 0.589700 8.200526 14.045096 12.767079
298 0 1 -1.179400 9.970413 5.340443 2.121862
299 0 2 0.589700 10.714217 5.874040 1.920133
300 0 2 0.589700 9.963444 5.293349 3.048012
301 0 1 -1.179400 9.072535 17.880455 6.043656
302 0 2 0.589700 9.108768 18.767159 5.696369
303 0 2 0.589700 9.807231 17.435757 5.675201
304 0 1 -1.179400 14.051906 18.725540 1.514336
305 0 2 0.589700 14.168934 18.638378 0.598315
306 0 2 0.589700 14.237561 19.645418 1.691199
307 0 1 -1.179400 6.918028 16.588186 5.221936
308 0 2 0.589700 6.983872 16.732523 4.307599
309 0 2 0.589700 7.715703 16.926317 5.565132
310 0 1 -1.179400 13.939187 18.839537 12.980074
311 0 2 0.589700 13.772490 19.718981 12.654146
312 0 2 0.589700 13.198241 18.327541 12.722921
313 0 1 -1.179400 11.942645 6.600915 8.177294
314 0 2 0.589700 11.122891 6.332735 8.526523
315 0 2 0.589700 12.555771 6.004588 8.565974
316 0 1 -1.179400 7.456309 14.336740 20.094709
317 0 2 0.589700 7.212804 14.308983 20.989143
318 0 2 0.589700 7.411169 15.263784 19.868416
319 0 1 -1.179400 8.969309 18.147640 1.312858
320 0 2 0.589700 9.621650 18.079407 1.969337
321 0 2 0.589700 8.268316 17.610332 1.626982
322 0 1 -1.179400 6.806143 22.364820 15.566723
323 0 2 0.589700 6.975606 22.066967 14.701870
324 0 2 0.589700 7.552723 22.091684 16.050241
325 0 1 -1.179400 16.260391 6.678895 15.632358
326 0 2 0.589700 16.132008 6.590061 14.718011
327 0 2 0.589700 15.636663 6.086412 16.009554
328 0 1 -1.179400 11.129103 22.444260 7.923915
329 0 2 0.589700 10.992579 23.372118 8.106214
330 0 2 0.589700 11.260245 22.409246 7.006538
331 0 1 -1.179400 3.048080 6.624598 13.428031
332 0 2 0.589700 3.151308 7.539077 13.174396
333 0 2 0.589700 3.822497 6.193341 13.133053
334 0 1 -1.179400 0.634579 21.531986 16.955990
335 0 2 0.589700 17.559553 21.913347 16.478065
336 0 2 0.589700 1.387456 21.989014 16.642391
337 0 1 -1.179400 15.737597 8.862890 9.547509
338 0 2 0.589700 16.438505 9.323642 9.134577
339 0 2 0.589700 14.985511 9.380976 9.338603
340 0 1 -1.179400 0.545588 18.758121 6.047321
341 0 2 0.589700 1.402329 18.504808 5.787755
342 0 2 0.589700 0.531852 18.614677 6.964045
343 0 1 -1.179400 0.663375 18.703238 1.677801
344 0 2 0.589700 1.412410 18.192036 1.912040
345 0 2 0.589700 0.541557 18.522289 0.775386
346 0 1 -1.179400 13.434029 18.574734 5.754136
347 0 2 0.589700 14.240724 18.142870 5.565444
348 0 2 0.589700 12.787094 17.939266 5.502500
349 0 1 -1.179400 2.628776 22.721806 15.641177
350 0 2 0.589700 2.428646 22.636124 14.739490
351 0 2 0.589700 3.297428 22.075764 15.789833
352 0 1 -1.179400 15.356382 22.414883 5.933597
353 0 2 0.589700 16.117203 22.109083 5.492430
354 0 2 0.589700 15.572680 22.354816 6.833501
355 0 1 -1.179400 7.603936 1.394316 9.443131
356 0 2 0.589700 7.495395 0.491317 9.155390
357 0 2 0.589700 7.463652 1.355666 10.359018
358 0 1 -1.179400 10.239003 2.641222 20.369677
359 0 2 0.589700 10.182974 3.535403 20.043659
360 0 2 0.589700 9.459462 2.218549 20.076509
361 0 1 -1.179400 5.258529 10.529131 20.016306
362 0 2 0.589700 5.112866 11.431721 19.744144
363 0 2 0.589700 5.215847 10.564712 20.941986
364 0 1 -1.179400 0.709882 5.645416 12.199215
365 0 2 0.589700 0.691745 4.774601 12.583665
366 0 2 0.589700 1.385574 6.106918 12.651406
367 0 1 -1.179400 14.495855 2.392620 20.565104
368 0 2 0.589700 14.511455 3.310588 20.302956
369 0 2 0.589700 14.418366 2.424793 0.003333
370 0 1 -1.179400 13.470971 18.728601 8.578122
371 0 2 0.589700 13.437875 18.506983 7.676624
372 0 2 0.589700 14.022317 18.061586 8.950980
373 0 1 -1.179400 0.755767 13.431044 2.572400
374 0 2 0.589700 0.861577 13.327173 3.488146
375 0 2 0.589700 17.545906 13.828111 2.475991
376 0 1 -1.179400 6.899137 14.053142 8.636790
377 0 2 0.589700 5.997902 13.913073 8.813287
378 0 2 0.589700 6.990048 13.858476 7.733420
379 0 1 -1.179400 17.541693 21.262045 12.018877
380 0 2 0.589700 17.586407 20.391203 12.401100
381 0 2 0.589700 0.649351 21.725538 12.359988
382 0 1 -1.179400 2.183331 17.239683 9.230485
383 0 2 0.589700 3.008888 17.639122 9.056740
384 0 2 0.589700 2.301519 16.312799 9.031520
385 0 1 -1.179400 5.177332 18.669752 6.134399
386 0 2 0.589700 5.837120 18.076946 5.824993
387 0 2 0.589700 5.207575 19.415682 5.554114
388 0 1 -1.179400 9.184066 18.096819 20.048191
389 0 2 0.589700 9.014565 18.120539 20.959618
390 0 2 0.589700 9.452056 18.987577 19.839611
391 0 1 -1.179400 12.195948 6.819934 5.602770
392 0 2 0.589700 12.349238 6.916101 6.512587
393 0 2 0.589700 12.925055 6.321252 5.292730
394 0 1 -1.179400 1.005956 10.823483 20.521145
395 0 2 0.589700 0.259381 10.317722 20.268703
396 0 2 0.589700 0.912607 10.936982 21.437172
397 0 1 -1.179400 8.908419 20.812712 2.283605
398 0 2 0.589700 8.898462 19.955338 1.871499
399 0 2 0.589700 9.661243 21.246887 1.940769
400 0 1 -1.179400 13.845938 13.258080 12.121271
401 0 2 0.589700 14.565664 13.722022 12.496869
402 0 2 0.589700 13.897449 12.374252 12.473484
403 0 1 -1.179400 17.516903 18.440104 8.634912
404 0 2 0.589700 0.633423 18.037027 9.025283
405 0 2 0.589700 17.491209 19.324459 8.988690
406 0 1 -1.179400 16.504339 1.301500 2.705822
407 0 2 0.589700 16.543400 0.420090 2.346400
408 0 2 0.589700 15.674006 1.635651 2.446498
409 0 1 -1.179400 11.096951 22.771908 15.888738
410 0 2 0.589700 11.188823 23.690800 16.131531
411 0 2 0.589700 11.915852 22.376024 16.097925
412 0 1 -1.179400 0.034704 21.413074 4.894208
413 0 2 0.589700 0.243517 21.252949 4.004084
414 0 2 0.589700 0.153603 20.565023 5.307429
415 0 1 -1.179400 7.509013 6.270847 1.316944
416 0 2 0.589700 6.990048 5.619143 1.755747
417 0 2 0.589700 8.382018 6.051898 1.550477
418 0 1 -1.179400 9.827032 2.679288 5.466989
419 0 2 0.589700 9.088881 2.199730 5.150073
420 0 2 0.589700 9.891016 3.443817 4.912745
421 0 1 -1.179400 11.867423 6.817597 12.756422
422 0 2 0.589700 12.062215 7.738946 12.597457
423 0 2 0.589700 11.972933 6.712912 13.672117
424 0 1 -1.179400 12.586205 24.739542 0.521826
425 0 2 0.589700 12.940447 25.169151 1.271136
426 0 2 0.589700 11.721038 25.080536 0.458663
427 0 1 -1.179400 5.040946 13.112389 12.376238
428 0 2 0.589700 5.139487 12.185768 12.586712
429 0 2 0.589700 5.908978 13.449960 12.341401
430 0 1 -1.179400 15.784443 17.070662 12.069003
431 0 2 0.589700 15.056890 17.579376 12.367155
432 0 2 0.589700 16.519468 17.626213 12.245642
433 0 1 -1.179400 5.239332 21.132277 19.091528
434 0 2 0.589700 5.004119 20.400301 19.640892
435 0 2 0.589700 4.705835 21.857557 19.378242
436 0 1 -1.179400 14.189592 2.774891 5.826349
437 0 2 0.589700 14.324701 2.915359 6.733629
438 0 2 0.589700 14.927319 2.266943 5.552937
439 0 1 -1.179400 15.979968 1.586792 12.445807
440 0 2 0.589700 16.183929 0.725030 12.794161
441 0 2 0.589700 15.152205 1.802046 12.810237
442 0 1 -1.179400 11.718624 9.174193 9.334455
443 0 2 0.589700 12.442316 9.732153 9.121894
444 0 2 0.589700 11.797762 8.422596 8.765749
445 0 1 -1.179400 0.730959 10.638632 16.130648
446 0 2 0.589700 0.557381 11.507038 16.479925
447 0 2 0.589700 17.619280 10.115773 16.366167
448 0 1 -1.179400 7.034546 16.578819 2.396714
449 0 2 0.589700 6.897880 15.756655 1.941961
450 0 2 0.589700 6.450562 17.197437 1.996138
451 0 1 -1.179400 0.497297 13.459042 19.646818
452 0 2 0.589700 0.541666 12.569434 19.986090
453 0 2 0.589700 17.273346 13.760960 19.865751
454 0 1 -1.179400 4.455933 12.954689 9.771999
455 0 2 0.589700 4.621902 13.024564 10.681848
456 0 2 0.589700 4.615133 12.034501 9.572399
457 0 1 -1.179400 5.213780 2.760407 13.343647
458 0 2 0.589700 6.041778 2.491857 13.014670
459 0 2 0.589700 4.612863 2.515313 12.677876
460 0 1 -1.179400 9.869240 5.148786 19.320606
461 0 2 0.589700 9.927498 5.258246 18.401226
462 0 2 0.589700 9.267237 5.821351 19.592203
463 0 1 -1.179400 15.558516 45.394684 18.180536
464 0 2 0.589700 15.864152 45.926434 18.888561
465 0 2 0.589700 16.080992 45.665314 17.460257
466 0 1 -1.179400 0.586763 2.970559 13.076079
467 0 2 0.589700 17.325747 2.727306 12.960019
468 0 2 0.589700 0.758202 2.792901 13.971032
469 0 1 -1.179400 11.698437 17.616722 16.662968
470 0 2 0.589700 10.987897 18.039700 16.229057
471 0 2 0.589700 12.454199 18.032934 16.305960
472 0 1 -1.179400 4.965788 18.249626 15.474730
473 0 2 0.589700 4.796679 19.088013 15.889006
474 0 2 0.589700 4.782348 18.408018 14.578756
475 0 1 -1.179400 7.647898 8.884640 12.272347
476 0 2 0.589700 6.821000 9.246621 12.506328
477 0 2 0.589700 7.541614 7.937322 12.351790
478 0 1 -1.179400 6.893335 14.187108 1.093508
479 0 2 0.589700 7.711042 13.933402 1.457361
480 0 2 0.589700 6.279637 13.597856 1.491311
481 0 1 -1.179400 8.929918 18.578220 15.874773
482 0 2 0.589700 9.070117 18.301178 14.998281
483 0 2 0.589700 8.757611 19.516703 15.814826
484 0 1 -1.179400 14.070811 10.796293 13.250689
485 0 2 0.589700 13.379741 10.327269 12.830030
486 0 2 0.589700 14.842641 10.363464 12.951144
487 0 1 -1.179400 2.879019 1.127086 5.648487
488 0 2 0.589700 2.183739 1.754776 5.736839
489 0 2 0.589700 2.985966 1.024400 4.732744
490 0 1 -1.179400 11.212182 22.698038 13.096587
491 0 2 0.589700 10.473353 22.132607 12.973227
492 0 2 0.589700 11.182964 22.936193 13.994253
493 0 1 -1.179400 7.653746 1.374334 2.321627
494 0 2 0.589700 6.866149 1.683818 1.932869
495 0 2 0.589700 8.312797 1.940595 1.967236
496 0 1 -1.179400 7.443918 22.313938 20.091608
497 0 2 0.589700 6.771968 21.908436 19.586544
498 0 2 0.589700 7.193777 22.153923 20.971058
499 0 1 -1.179400 0.574726 17.988619 20.396902
500 0 2 0.589700 17.539867 17.401407 20.086884
501 0 2 0.589700 1.342471 17.706474 19.952923
502 0 1 -1.179400 0.175279 18.724112 12.846658
503 0 2 0.589700 0.864633 18.250454 12.428067
504 0 2 0.589700 0.326618 18.590414 13.752341
505 0 1 -1.179400 14.060871 5.268727 16.639656
506 0 2 0.589700 14.270823 4.373068 16.388748
507 0 2 0.589700 14.092955 5.256592 17.566332
508 0 1 -1.179400 13.466842 21.561743 12.121971
509 0 2 0.589700 12.664553 21.773430 12.541101
510 0 2 0.589700 13.237949 21.431574 11.232186
511 0 1 -1.179400 9.490570 18.227985 13.362762
512 0 2 0.589700 8.745253 17.831581 12.965019
513 0 2 0.589700 9.453171 19.149000 13.113148
514 0 1 -1.179400 14.256919 2.319716 8.582252
515 0 2 0.589700 14.813636 1.569264 8.730855
516 0 2 0.589700 13.436947 2.053015 8.932032
517 0 1 -1.179400 7.471500 14.055917 5.895887
518 0 2 0.589700 7.279781 14.909454 5.522502
519 0 2 0.589700 8.143032 13.696653 5.358447
520 0 1 -1.179400 7.672654 6.747182 15.706673
521 0 2 0.589700 6.885185 6.395021 16.059988
522 0 2 0.589700 7.651291 7.678369 15.920136
523 0 1 -1.179400 16.551411 8.870131 5.009642
524 0 2 0.589700 17.269089 9.405090 5.287889
525 0 2 0.589700 16.646698 8.047522 5.474069
526 0 1 -1.179400 7.318691 7.193546 8.236190
527 0 2 0.589700 7.302381 7.948188 8.806368
528 0 2 0.589700 8.078464 6.706808 8.484418
529 0 1 -1.179400 12.270984 9.414245 12.002072
530 0 2 0.589700 11.391499 9.673682 12.160246
531 0 2 0.589700 12.312009 9.271779 11.086016
532 0 1 -1.179400 13.472689 21.156385 4.516847
533 0 2 0.589700 14.060060 21.406115 5.192981
534 0 2 0.589700 13.354161 20.213951 4.627429
535 0 1 -1.179400 16.066902 22.388107 20.209314
536 0 2 0.589700 16.894390 21.968315 20.102795
537 0 2 0.589700 16.033976 23.047716 19.538168
538 0 1 -1.179400 11.946506 6.478035 15.365928
539 0 2 0.589700 11.847692 7.359235 15.714229
540 0 2 0.589700 12.754313 6.168448 15.710755
541 0 1 -1.179400 16.565142 6.249156 6.025658
542 0 2 0.589700 15.752018 5.991188 5.654438
543 0 2 0.589700 16.383329 6.365198 6.928026
544 0 1 -1.179400 13.944965 5.074840 9.085477
545 0 2 0.589700 13.893065 4.135562 9.256118
546 0 2 0.589700 14.852291 5.245596 8.979584
547 0 1 -1.179400 13.513251 13.029384 16.862249
548 0 2 0.589700 14.290015 13.385067 16.489157
549 0 2 0.589700 13.589161 12.082443 16.750439
550 0 1 -1.179400 0.842446 10.492731 6.103153
551 0 2 0.589700 0.437699 10.292132 6.914747
552 0 2 0.589700 0.806493 11.447012 6.041010
553 0 1 -1.179400 4.583114 21.154848 9.519073
554 0 2 0.589700 5.403293 21.483540 9.223494
555 0 2 0.589700 4.411976 20.395050 8.981649
556 0 1 -1.179400 2.967847 14.602531 1.669448
557 0 2 0.589700 2.091044 14.365706 1.870105
558 0 2 0.589700 3.042948 14.452870 0.756630
559 0 1 -1.179400 11.476919 14.954564 1.600207
560 0 2 0.589700 12.238458 14.495422 1.889073
561 0 2 0.589700 11.601846 15.063211 0.687387
562 0 1 -1.179400 15.795003 17.249311 5.147522
563 0 2 0.589700 16.526987 17.672716 5.543855
564 0 2 0.589700 15.992161 17.248228 4.241370
565 0 1 -1.179400 9.318881 20.598906 12.171522
566 0 2 0.589700 9.434428 20.779917 11.268297
567 0 2 0.589700 8.447066 20.871376 12.350194
568 0 1 -1.179400 3.743862 0.710831 19.346195
569 0 2 0.589700 3.086062 1.022820 19.926579
570 0 2 0.589700 3.951809 45.635155 19.652645
571 0 1 -1.179400 0.699027 5.011445 16.518286
572 0 2 0.589700 1.496608 5.483787 16.392448
573 0 2 0.589700 0.051831 5.581825 16.148623
574 0 1 -1.179400 16.431139 9.188268 19.424034
575 0 2 0.589700 15.624738 9.584175 19.677044
576 0 2 0.589700 16.437006 9.250810 18.498730
577 0 1 -1.179400 5.009386 10.488599 6.124361
578 0 2 0.589700 5.587203 10.158220 5.472938
579 0 2 0.589700 4.929017 11.422864 5.939460
580 0 1 -1.179400 4.823170 10.442704 8.918529
581 0 2 0.589700 5.570973 9.985424 9.243682
582 0 2 0.589700 4.864976 10.321545 7.999633
583 0 1 -1.179400 2.727977 17.089666 16.617365
584 0 2 0.589700 2.604773 16.170195 16.391041
585 0 2 0.589700 3.540458 17.325089 16.230993
586 0 1 -1.179400 13.401723 21.566936 9.280633
587 0 2 0.589700 12.731581 21.954153 8.759941
588 0 2 0.589700 13.365586 20.631392 9.088064
589 0 1 -1.179400 9.022740 20.610600 5.015932
590 0 2 0.589700 9.606933 21.352577 5.067686
591 0 2 0.589700 8.726089 20.614597 4.137251
592 0 1 -1.179400 7.499750 1.776855 12.602823
593 0 2 0.589700 7.414345 1.033372 13.180566
594 0 2 0.589700 8.261254 2.234222 12.894406
595 0 1 -1.179400 1.097780 5.138482 2.490164
596 0 2 0.589700 0.448819 5.641372 2.040323
597 0 2 0.589700 0.930355 5.307258 3.387484
598 0 1 -1.179400 10.284192 2.820774 15.773944
599 0 2 0.589700 9.550350 2.387950 16.157078
600 0 2 0.589700 10.261448 3.711603 16.112356
601 0 1 -1.179400 4.959570 18.499798 19.949820
602 0 2 0.589700 4.945242 18.270376 20.849977
603 0 2 0.589700 5.593334 17.913609 19.580154
604 0 1 -1.179400 2.241962 17.116106 12.074813
605 0 2 0.589700 2.411670 17.189751 11.165932
606 0 2 0.589700 2.423204 16.200665 12.276159
607 0 1 -1.179400 13.644221 3.020752 13.054709
608 0 2 0.589700 13.747506 3.847241 12.598526
609 0 2 0.589700 12.768799 2.757118 12.881254
610 0 1 -1.179400 6.991998 16.988995 16.580061
611 0 2 0.589700 6.218394 17.411135 16.270918
612 0 2 0.589700 7.676412 17.580643 16.327061
613 0 1 -1.179400 15.709589 14.287279 20.694178
614 0 2 0.589700 15.703831 14.425957 0.126369
615 0 2 0.589700 15.825349 15.161973 20.335840
616 0 1 -1.179400 9.057419 21.298012 16.509037
617 0 2 0.589700 9.319690 21.066050 17.369713
618 0 2 0.589700 9.729629 21.876287 16.200470
619 0 1 -1.179400 15.712653 22.946125 12.627264
620 0 2 0.589700 14.879493 22.557484 12.467297
621 0 2 0.589700 16.316179 22.316801 12.274044
622 0 1 -1.179400 16.257132 6.220656 8.830470
623 0 2 0.589700 17.077290 5.968808 9.190018
624 0 2 0.589700 16.073700 7.073666 9.209113
625 0 1 -1.179400 2.665152 8.938764 16.755201
626 0 2 0.589700 2.797603 9.102865 17.659143
627 0 2 0.589700 1.914578 9.455705 16.538340
628 0 1 -1.179400 16.018372 14.314993 12.910575
629 0 2 0.589700 16.106890 15.203872 12.578192
630 0 2 0.589700 16.731789 13.834474 12.542605
631 0 1 -1.179400 11.522372 14.822964 15.860427
632 0 2 0.589700 11.526234 15.761403 16.042850
633 0 2 0.589700 12.244774 14.476464 16.336409
634 0 1 -1.179400 14.338250 10.276709 6.051813
635 0 2 0.589700 15.157086 9.908829 5.798946
636 0 2 0.589700 14.329652 11.153322 5.679595
637 0 1 -1.179400 0.654440 13.027314 12.129860
638 0 2 0.589700 0.767081 12.154689 12.493876
639 0 2 0.589700 1.344373 13.546596 12.493028
640 0 1 -1.179400 11.752286 14.477713 5.629199
641 0 2 0.589700 11.714448 14.532941 6.554185
642 0 2 0.589700 11.057570 13.888163 5.400811
643 0 1 -1.179400 11.309779 17.200293 4.837025
644 0 2 0.589700 11.615545 16.325474 5.056788
645 0 2 0.589700 11.469703 17.278631 3.926745
646 0 1 -1.179400 0.853412 4.731154 19.312897
647 0 2 0.589700 1.681357 5.113245 19.510313
648 0 2 0.589700 0.883833 4.562092 18.400679