LAMMPS data file via write_data, version 23 Jun 2022, timestep = 400000

972 atoms
2 atom types

-0.07209770200361199 20.063150702001447 xlo xhi
0.07856146766754968 19.912491532331778 ylo yhi
0.3025097463097399 20.498262253690946 zlo zhi

Masses

1 1.008
2 15.999

Atoms # full

31 0 1 0 0.7301561740227631 2.0549027613856836 2.2126866132885787 0 0 0
32 0 2 0 0.643666829733532 1.119589504496497 2.3451980840999354 0 0 0
33 0 2 0 0.8053692636726016 2.493482687376146 3.045486593632862 0 0 0
5 0 2 0 3.424079220227609 1.3386883205869162 3.9961709849873506 0 0 0
2 0 2 0 2.5478232125525766 2.0078900777685598 1.1889570055317906 0 0 0
16 0 1 0 3.734546991883055 4.287151354131164 3.8182332575865194 0 0 0
10 0 1 0 0.8051965151474773 4.148870997897236 3.927464481802454 0 0 0
17 0 2 0 3.8240566893945407 4.8455708162797455 3.051422164058384 0 0 0
12 0 2 0 1.7550221687990641 4.201336460127847 4.058995352124321 0 0 0
1 0 1 0 3.1234288274793336 2.349903698917176 0.44874936153690975 0 0 0
18 0 2 0 4.060625781411144 3.4535998624593565 3.462493817197813 0 0 0
4 0 1 0 4.1445823864724565 1.6521020138389628 3.4529431879258254 0 0 0
230 0 2 0 4.28567478298592 0.23187327938483632 2.0420177569336766 0 1 0
35 0 2 0 5.031864202960152 2.2408647699371684 0.7396579399222479 0 0 0
36 0 2 0 6.56878888988073 2.2798886428232095 1.1783014228518405 0 0 0
272 0 2 0 7.751179665164854 0.34065476168714615 2.2430876107541335 0 1 0
34 0 1 0 5.932797345807017 2.497580060364921 0.44618457171271464 0 0 0
6 0 2 0 4.929980735116473 1.3308266341541952 3.87797744526561 0 0 0
67 0 1 0 7.807968974963004 2.037329360817363 2.131096911696014 0 0 0
68 0 2 0 7.858093056613868 2.578065229815507 2.954249852593876 0 0 0
46 0 1 0 7.790719501790708 3.9997059792234437 4.178562588718551 0 0 0
56 0 2 0 7.383136309417724 4.869670634975561 2.6288782097877412 0 0 0
57 0 2 0 7.927277984305301 4.892156350591151 1.1276831756881682 0 0 0
69 0 2 0 8.5374831249453 2.28881314948952 1.5138191315969622 0 0 0
41 0 2 0 10.325055469691897 0.9937277839366213 3.893483113023759 0 0 0
40 0 1 0 11.066022519426138 1.2042846982396915 3.3390874156603996 0 0 0
54 0 2 0 10.818320720328531 3.0012139739381136 3.742902382549109 0 0 0
39 0 2 0 10.384056370737351 2.2281133085016647 0.4545542400544037 0 0 0
42 0 2 0 11.79076295129556 0.9516933403720109 3.956836149764341 0 0 0
52 0 1 0 10.505090096462405 3.869753479489121 4.026967367167998 0 0 0
266 0 2 0 10.743480520969522 0.09652164465834545 1.9929165129138178 0 1 0
51 0 2 0 10.921623579326827 4.814544227996443 2.3493980351056205 0 0 0
70 0 1 0 12.02724764687799 2.800685316982039 0.7584579254534534 0 0 0
72 0 2 0 12.405487189438974 2.481159486624116 1.6101868203423069 0 0 0
84 0 2 0 14.45458818528902 3.1825593106003054 3.553763311688404 0 0 0
103 0 1 0 14.230659312302096 1.6657023115307694 2.380251658791593 0 0 0
105 0 2 0 14.052237396773142 0.7419949644811141 2.160491389352317 0 0 0
104 0 2 0 14.95066632425345 1.9903715539678928 1.808579675183573 0 0 0
82 0 1 0 14.686166597351193 4.054177716102835 3.948405558914279 0 0 0
71 0 2 0 12.386940863917705 3.6027088620340217 0.39166614369464836 0 0 0
73 0 1 0 15.883555977198865 2.826138740965336 0.5411029568097542 0 0 0
83 0 2 0 14.46318685632013 4.681686116047383 3.245628776903094 0 0 0
76 0 1 0 17.763808537369286 1.5166248412269114 3.5276121320091893 0 0 0
77 0 2 0 17.8336471494763 0.909522805697417 2.78244572215727 0 0 0
89 0 2 0 17.741585863104312 3.3498096416489136 3.5575674615204536 0 0 0
108 0 2 0 19.347319715096667 2.6713709002530246 1.426460381539393 0 0 0
107 0 2 0 17.809037173909815 2.883763185981804 1.0421465897307134 0 0 0
106 0 1 0 18.710679394253646 2.8692572011907966 0.6628744341674118 0 0 0
78 0 2 0 18.44308534116464 1.3122359958500935 4.198834662128164 0 0 0
90 0 2 0 16.367883463791763 4.179186538610224 3.7188398248127736 0 0 0
88 0 1 0 17.337270536766788 4.230315355667677 3.652149654120997 0 0 0
20 0 2 0 0.4772429474361427 5.212665865593073 2.415656269627083 0 0 0
675 0 2 0 1.8221964840218963 5.208226996336646 0.8185117017892407 0 0 1
19 0 1 0 0.47574116430030244 5.802192611980465 1.6754447028312602 0 0 0
21 0 2 0 0.7598960204854062 6.655892644423677 2.033499202920984 0 0 0
139 0 1 0 0.8675452703469996 8.35464518511525 2.1549964079354025 0 0 0
141 0 2 0 1.5881797619783322 8.726135577320122 1.670055129092682 0 0 0
119 0 2 0 0.7394918689988137 9.702482553921039 3.682019547302665 0 0 0
140 0 2 0 0.11590888042699174 8.780325841105066 1.721799250635428 0 0 0
110 0 2 0 3.754829403963691 8.807929739245822 0.640074026106038 0 0 0
109 0 1 0 2.831319311528919 8.969666263157347 0.43937686618199195 0 0 0
14 0 2 0 4.019645806052907 5.583548661397709 0.8240954082455092 0 0 0
114 0 2 0 4.35543832860054 7.440600215394862 2.7828552402435194 0 0 0
13 0 1 0 4.540405317339026 5.954322847596922 1.558265884650249 0 0 0
113 0 2 0 4.613277063453905 7.508721088485747 4.231260377270276 0 0 0
15 0 2 0 5.440108502163958 5.641392153987363 1.4307018941146337 0 0 0
55 0 1 0 7.265592455319989 5.29009616339226 1.7316698053605029 0 0 0
177 0 2 0 7.52803840900255 6.981459443700865 2.400100367621921 0 0 0
112 0 1 0 4.0600921754843124 7.89664003081998 3.566849888941788 0 0 0
126 0 2 0 4.053145572226622 9.629578379607826 3.659534749150988 0 0 0
175 0 1 0 7.654628189725432 7.956277233244011 2.394739394536074 0 0 0
176 0 2 0 6.906720014814839 8.359360092601852 1.9544890498871108 0 0 0
142 0 1 0 5.57169610665796 8.99585930142905 0.9103466479566501 0 0 0
143 0 2 0 5.635905326070952 9.890112356487869 0.5400448807850531 0 0 0
149 0 2 0 9.895097410853683 7.258590124672909 4.099066289307288 0 0 0
49 0 1 0 11.291178683981135 5.477276414359072 1.7554852969725252 0 0 0
50 0 2 0 10.709728585566914 5.503128005295413 1.030138649111583 0 0 0
150 0 2 0 10.819543394284594 6.850148057693224 2.974197931738994 0 0 0
148 0 1 0 10.712360110692403 7.5171684477950675 3.65252231902326 0 0 0
155 0 2 0 8.063384163585434 9.458479855099617 3.407576640067828 0 0 0
147 0 2 0 8.726728317656821 8.988142694170186 1.3064255233506183 0 0 0
179 0 2 0 11.186482972261603 9.253149455123308 0.9249062058215093 0 0 0
162 0 2 0 11.147740183967626 9.192183550837774 3.434106893669702 0 0 0
145 0 1 0 9.237931474751354 9.37522988574284 0.5285349277691123 0 0 0
91 0 1 0 13.880470229189052 5.674443208586664 1.959439455864645 0 0 0
92 0 2 0 14.07221541339247 6.576091120279763 2.3093964519824697 0 0 0
93 0 2 0 12.890604266179821 5.655626592596032 1.9664986669963143 0 0 0
747 0 2 0 14.745930384638788 5.643067162235938 0.3962949065388279 0 0 1
178 0 1 0 12.119608007834005 9.303576808554256 0.7419445643201102 0 0 0
211 0 1 0 14.176909995025541 8.348126085003654 2.185170221883027 0 0 0
212 0 2 0 14.468533092549864 8.93589826896054 2.848720586470093 0 0 0
213 0 2 0 13.41605446169227 8.84411609087054 1.8008720171215573 0 0 0
183 0 2 0 15.63554859426134 8.814061828010207 1.242368912641262 0 0 0
86 0 2 0 17.798771984901165 5.189521135429391 2.184782251157518 0 0 0
85 0 1 0 17.919784149872463 5.984477902198047 1.632164059395423 0 0 0
87 0 2 0 18.876420117244024 6.09084175668169 1.4351220703138257 0 0 0
185 0 2 0 18.00780338435323 7.710697269248661 2.5619800017853755 0 0 0
746 0 2 0 16.28655592688922 5.819554325360294 0.3508017606751589 0 0 1
184 0 1 0 17.779287250461415 8.129231692396438 3.484453103955652 0 0 0
186 0 2 0 17.595203217762347 9.113552818964598 3.4241495696146598 0 0 0
216 0 2 0 17.697194860645027 8.852505049445513 0.4012855652113199 0 0 0
214 0 1 0 18.67305983866077 8.844896995122527 0.45306515968302197 0 0 0
181 0 1 0 16.12403710518398 9.216930754211806 0.5137203868508411 0 0 0
118 0 1 0 1.069790958314508 10.384284388860406 4.254265224060398 0 0 0
120 0 2 0 2.015215204554641 10.461496672643866 4.069420869514161 0 0 0
124 0 1 0 3.663033124729202 10.52133699812653 3.8427282312576194 0 0 0
122 0 2 0 3.952729134018872 11.515667552556764 2.510849719735882 0 0 0
129 0 2 0 0.4606289968271765 11.75980734727593 2.982616620488676 0 0 0
123 0 2 0 3.895141681909895 12.293388514704375 1.1680224693053074 0 0 0
127 0 1 0 0.29434654376414365 12.4715808773792 2.3647240796306663 0 0 0
249 0 2 0 0.12695974322802256 14.392158859714282 2.7703078796896667 0 0 0
221 0 2 0 3.221855612444022 14.483633577195498 4.01877298093344 0 0 0
782 0 2 0 1.6604585150927034 11.96324891286732 0.8233316767250064 0 0 1
222 0 2 0 3.9450424750536506 13.80464625806715 2.966962515870561 0 0 0
156 0 2 0 7.887410578602637 10.977123521917118 3.2669034107430264 0 0 0
220 0 1 0 3.9840718305746483 14.641838027500013 3.463953148298327 0 0 0
121 0 1 0 4.357366305340279 12.297551443474147 2.0122352882844066 0 0 0
163 0 1 0 7.148559086407823 12.354119598905186 2.2068095663686416 0 0 0
164 0 2 0 7.050427682116454 13.295604739632953 2.3656089417348776 0 0 0
165 0 2 0 6.212386382815414 12.123404484900135 2.116887728575536 0 0 0
154 0 1 0 8.160863819008274 10.274657734310487 3.9313772594388663 0 0 0
161 0 2 0 10.117413497816544 10.126325453504885 3.9496737032777975 0 0 0
160 0 1 0 11.014434097631801 10.157028447797124 3.640812208902844 0 0 0
819 0 2 0 8.561320821101077 12.441381734883599 0.8435484071577037 0 0 1
258 0 2 0 9.977248061736889 14.576826125146962 3.759644932650631 0 0 0
158 0 2 0 11.227756412390425 11.644621444817023 2.534723077690212 0 0 0
818 0 2 0 10.01010941736162 12.265110262286992 0.4857481130677721 0 0 1
157 0 1 0 11.202709772896018 12.301548939615 1.8553870681988567 0 0 0
159 0 2 0 10.944704228338567 13.144196511737066 2.3453476797298993 0 0 0
256 0 1 0 10.895249226994707 14.637332003113547 3.367229357067114 0 0 0
146 0 2 0 8.972898163588635 10.308461499842338 0.37952117286379244 0 0 0
190 0 1 0 14.520115996482357 10.608271846801756 3.6304046652945208 0 0 0
191 0 2 0 14.208691932382147 11.200145234587504 2.9735160563181346 0 0 0
192 0 2 0 15.411034339677636 10.871310544094396 3.812466431248697 0 0 0
200 0 2 0 12.89471233743254 12.562899165763712 1.7636021083254285 0 0 0
199 0 1 0 13.847186677531457 12.70718236898718 1.8931087374975206 0 0 0
201 0 2 0 13.958999274680357 13.666186115597702 2.1066827519468134 0 0 0
855 0 2 0 14.876753084530396 12.05787929804148 0.65032461337481 0 0 1
196 0 1 0 17.28579248518745 10.92380741828553 3.686726684291976 0 0 0
197 0 2 0 17.454467488042233 11.689202802326026 3.0901057004453714 0 0 0
128 0 2 0 19.471001521243615 12.464980645490055 2.252999686551631 -1 0 0
193 0 1 0 17.56819071796908 12.813085044895068 1.8002869068465825 0 0 0
194 0 2 0 17.24944783785015 13.668623838964098 2.1750398293090374 0 0 0
195 0 2 0 16.961432209580956 12.430791630488578 1.1504014396687559 0 0 0
294 0 2 0 16.475755869769777 14.941818459325159 4.048359574272891 0 0 0
247 0 1 0 0.17613569919175048 15.292840408279101 2.5393984034018073 0 0 0
218 0 2 0 1.8201879870001108 15.142785225549094 1.4211739260943261 0 0 0
217 0 1 0 2.468581741498278 15.336994916905347 0.7204777331834651 0 0 0
227 0 2 0 0.9870666766603724 16.508106523623418 3.490294645165501 0 0 0
235 0 1 0 0.5144349613137874 19.282733960600616 2.0022726019431465 0 0 0
236 0 2 0 0.7108054620755307 18.704438288173442 2.834756951455644 0 0 0
237 0 2 0 1.079967186722928 18.975936632758554 1.2993472504725292 0 0 0
228 0 2 0 2.198691222169244 17.483556581455204 4.092143548870011 0 0 0
226 0 1 0 1.2169360349621232 17.414422412786173 3.8324844175506003 0 0 0
891 0 2 0 3.1615717072799736 18.47229466343805 0.9905541113090119 0 0 1
890 0 2 0 2.347794322115496 17.274919038828095 0.5073823579390373 0 0 1
889 0 1 0 2.4380298672941323 18.23539146081314 0.4010113729617587 0 0 1
283 0 1 0 7.3126027051116615 15.25607747244489 2.394964804516655 0 0 0
284 0 2 0 6.598731277887465 15.688282545591798 1.879533072844425 0 0 0
232 0 1 0 4.194689653225237 17.49897691406754 4.05178492603452 0 0 0
233 0 2 0 4.181775236062595 16.58247110344793 3.736717828401107 0 0 0
251 0 2 0 4.3733097019826745 16.136976914857044 0.693333703697762 0 0 0
234 0 2 0 4.388624925921785 18.086168169848293 3.314368271269174 0 0 0
229 0 1 0 4.529226213136684 19.15559838546296 1.9444715159893378 0 0 0
250 0 1 0 5.329268039262063 16.263081337817283 0.7203146141662274 0 0 0
231 0 2 0 5.482691543368267 19.23337878555487 1.7764070196211064 0 0 0
271 0 1 0 7.432556970326416 19.229470406993862 2.0826863720677 0 0 0
273 0 2 0 7.808685669956404 18.58850341510405 2.7564661764204796 0 0 0
285 0 2 0 8.022608441219612 15.106130052715313 1.736344578265526 0 0 0
257 0 2 0 11.126567510732148 15.57132739217389 3.257216491592016 0 0 0
255 0 2 0 10.219503440247955 15.584622951348356 0.4358505309407881 0 0 0
263 0 2 0 8.139255128288127 16.286499973695996 3.4584887154062427 0 0 0
262 0 1 0 8.313337044998502 17.15034842960057 3.837735008938514 0 0 0
927 0 2 0 8.292069542004393 18.514979045920192 0.5614152363890912 0 0 1
264 0 2 0 9.29363900705839 17.214380988214735 3.8056790033772083 0 0 0
265 0 1 0 11.049139361221773 19.33357168883726 1.348203430980667 0 0 0
267 0 2 0 10.254435892064533 18.809432384172943 1.0387697081650447 0 0 0
268 0 1 0 11.280417171702622 17.313346137284547 3.5440202720661693 0 0 0
269 0 2 0 11.43725411927595 18.03231912646443 2.9500708203446115 0 0 0
270 0 2 0 11.875140719035775 17.40292413708986 4.3358401852932476 0 0 0
319 0 1 0 14.052901878623096 15.307677263247614 2.12359338428375 0 0 0
320 0 2 0 13.239027063559313 15.674722981850138 1.687099812040913 0 0 0
286 0 1 0 12.055133090625192 15.830536800538999 0.593066950201261 0 0 0
291 0 2 0 15.206040040624657 15.625954615537347 0.8283951934864607 0 0 0
321 0 2 0 14.403572626776949 16.002958631016828 2.780053947393583 0 0 0
307 0 1 0 13.618453463962314 18.899667939014854 1.9934168775018593 0 0 0
308 0 2 0 12.759010508551686 18.873920598049573 1.5859471711715052 0 0 0
309 0 2 0 13.803906928695678 18.186411974768482 2.6663381337037415 0 0 0
298 0 1 0 14.717020378167492 17.3174872585545 3.9453295441646246 0 0 0
963 0 2 0 14.88918290563203 18.62756662171158 0.6425438017501282 0 0 1
300 0 2 0 15.632742074869777 17.622327652749945 4.0151906540286735 0 0 0
248 0 2 0 19.6168371843127 15.449190759402068 1.8452875008660086 -1 0 0
292 0 1 0 17.24035685565004 15.09988788215361 3.5071610057415623 0 0 0
293 0 2 0 17.32062700952092 16.055354653825752 3.4170854922302634 0 0 0
322 0 1 0 18.557103968548383 15.715336202778923 0.5054687125481518 0 0 0
301 0 1 0 17.963146250356942 19.25542820869191 1.7457441110400223 0 0 0
302 0 2 0 17.287797185320485 19.027786753354775 1.0725467173884367 0 0 0
303 0 2 0 18.919124870312302 19.06510888079046 1.5664425441636802 0 0 0
306 0 2 0 17.264752806308074 18.614171145691643 3.108023548741424 0 0 0
304 0 1 0 17.183549713416618 17.980473639688093 3.9156667598162405 0 0 0
22 0 1 0 2.0990241275779997 1.1572344335434224 5.106330641525709 0 0 0
101 0 2 0 0.46561895945586607 0.8421811537974266 5.099957860157403 1 0 0
23 0 2 0 2.1470811057788097 1.9436658331922119 5.724761671618428 0 0 0
325 0 1 0 2.7611580120694255 2.5706106431659546 7.373952192764075 0 0 0
327 0 2 0 2.446335971181698 3.4910393770166412 7.408539910052493 0 0 0
326 0 2 0 3.7178922208796483 2.634911049882009 7.401810312205226 0 0 0
24 0 2 0 2.2583716146361494 0.3665171003015834 5.652484494344595 0 0 0
11 0 2 0 0.2289509051624845 4.347893215053836 4.731393256236189 0 0 0
29 0 2 0 7.175348214441608 0.9824422644482079 5.133255368484231 0 0 0
28 0 1 0 6.210355928370695 0.8477908915149284 5.020992241408931 0 0 0
358 0 1 0 5.430148450530664 2.3149225943240697 7.434443710819267 0 0 0
359 0 2 0 5.880349492362001 1.9577003465394676 6.632666174913557 0 0 0
360 0 2 0 6.120785870377927 2.508245389058181 8.025181182756448 0 0 0
8 0 2 0 5.341403930420356 3.961887657587748 6.604112250121928 0 0 0
48 0 2 0 7.26532391901766 4.216423155749561 4.961806500429221 0 0 0
9 0 2 0 4.679940332640467 4.4960016988778335 5.264133600195159 0 0 0
7 0 1 0 5.356514421682982 4.652686602822215 5.932016892009318 0 0 0
58 0 1 0 8.821228365234226 0.7475755333478806 4.9289074884409185 0 0 0
59 0 2 0 9.161247923985698 1.4492636544281952 5.5529554770792835 0 0 0
363 0 2 0 9.540925680281937 3.2875838081677915 6.496393552002956 0 0 0
361 0 1 0 9.67815522278089 2.382202289271978 6.858049968469441 0 0 0
362 0 2 0 10.649028862751637 2.211769896276016 7.068224661846673 0 0 0
47 0 2 0 8.800517734866167 4.046156607828296 4.398354481552418 0 0 0
53 0 2 0 11.249132650478368 4.315534004643115 4.4884322083691295 0 0 0
392 0 2 0 8.51466500158589 2.38896401923502 8.094702729232038 0 0 0
394 0 1 0 12.379630929501467 2.4709934676748104 7.333404501012171 0 0 0
65 0 2 0 13.548736882989015 0.8359622466088241 5.112892796262549 0 0 0
66 0 2 0 12.458764597380071 1.2216673792471084 6.099739879189927 0 0 0
396 0 2 0 12.60008950635874 3.2941993938926273 6.954778113730246 0 0 0
64 0 1 0 12.672580974940955 0.5990407410491905 5.376001761679912 0 0 0
395 0 2 0 12.99993487829156 2.3794169921944226 8.112151669590848 0 0 0
429 0 2 0 15.211659101808037 2.046065529492952 8.269049072455623 0 0 0
94 0 1 0 15.42813507387169 1.3755950868065565 5.159292163036795 0 0 0
95 0 2 0 15.892363481588855 1.982284113609152 5.737145876489532 0 0 0
44 0 2 0 13.59311609812824 4.406632024023731 5.2683041471826275 0 0 0
43 0 1 0 12.789849813666878 4.595712625475668 5.738388587132542 0 0 0
399 0 2 0 16.060091238998112 3.8059387729088474 7.067768551795352 0 0 0
96 0 2 0 16.038330879923393 1.2182181417834204 4.40929697565287 0 0 0
397 0 1 0 16.432452064850466 2.9037789091122788 7.187364928232174 0 0 0
100 0 1 0 19.65842205837167 0.9184878709749318 5.378768336707868 0 0 0
398 0 2 0 17.349195728303258 2.9721488282095065 7.506827618642078 0 0 0
430 0 1 0 19.342005342540276 2.686526042751515 7.4480649651327715 0 0 0
431 0 2 0 19.352717722091732 2.0252668632894286 6.704161379314127 0 0 0
432 0 2 0 19.313106583605496 3.5245032144975084 7.015684427530048 0 0 0
81 0 2 0 18.200172449730793 4.793972806669426 5.311446220729353 0 0 0
79 0 1 0 19.054241464837446 4.959787969336573 5.772587593870401 0 0 0
131 0 2 0 2.4024363152893184 7.297339304874087 4.722793070784155 0 0 0
132 0 2 0 0.9784044706742863 7.167864587565604 5.151202432558507 0 0 0
130 0 1 0 1.8406146439704143 7.283051146997331 5.46488097342254 0 0 0
25 0 1 0 2.548452881745607 5.221558095738853 7.094839574337356 0 0 0
26 0 2 0 2.161568401254484 5.87744107566853 6.489664090173584 0 0 0
27 0 2 0 3.172522310752652 5.705079088763079 7.739320295997434 0 0 0
344 0 2 0 0.7061558104884141 5.659966911970761 7.764449770292016 0 0 0
435 0 2 0 2.210954260832901 8.541899670951656 6.537865021717951 0 0 0
433 0 1 0 2.4029963297561046 9.296589913979197 7.169368846604363 0 0 0
434 0 2 0 3.3835004377613074 9.300880474073857 7.117900095638183 0 0 0
138 0 2 0 6.78559299791618 7.347561136997347 5.32556504521597 0 0 0
137 0 2 0 5.839630886113417 6.243489967451995 5.7922236343321405 0 0 0
136 0 1 0 5.920068408702024 7.193362454325156 5.655864191227066 0 0 0
466 0 1 0 5.392931393309938 9.24197245474114 7.367870870696736 0 0 0
468 0 2 0 5.656331884589767 8.45443853087617 6.8428794564861875 0 0 0
501 0 2 0 6.741145132859464 9.0194694352081 8.20349420002858 0 0 0
63 0 2 0 8.625158995379863 5.129978437817406 7.601524408718626 0 0 0
166 0 1 0 8.557611323964686 7.341256135430806 5.199264387391408 0 0 0
167 0 2 0 8.666221141263103 6.4212941393355365 5.655403763856749 0 0 0
61 0 1 0 9.203483466839346 5.137409750408081 6.852980798225552 0 0 0
62 0 2 0 10.030985895398128 5.524145438352635 7.182545500455703 0 0 0
168 0 2 0 8.870190396234053 7.942216164036103 5.85134337274757 0 0 0
469 0 1 0 9.613710559391897 9.220101028573566 6.966041546663 0 0 0
471 0 2 0 10.618981732191058 9.306676527004818 7.114107672853258 0 0 0
373 0 1 0 11.494798904641438 5.789747613381044 8.17242650961531 0 0 0
500 0 2 0 8.332212671947397 8.913701107971308 8.12238442526072 0 0 0
173 0 2 0 12.025560629010238 7.339791735828638 4.763961752820253 0 0 0
172 0 1 0 12.721865324762197 7.391847027371686 5.415748810263906 0 0 0
174 0 2 0 13.520919476883368 7.669224158116666 4.9491180959954635 0 0 0
45 0 2 0 12.92945407974973 5.52414752570439 6.003325710116835 0 0 0
416 0 2 0 14.750789389172779 5.673529446719468 7.713054907747319 0 0 0
202 0 1 0 15.445181210652535 7.715131564036777 5.040224953316126 0 0 0
99 0 2 0 15.885024551314956 6.349144298803057 5.928711733230795 0 0 0
502 0 1 0 12.238524113356124 9.16827200469069 7.688107542849054 0 0 0
503 0 2 0 12.519866233231781 8.507707649294842 6.9960808250131885 0 0 0
203 0 2 0 15.706756994581838 8.173328503208934 5.8425475199826975 0 0 0
507 0 2 0 15.58965786027662 8.88039694720393 7.95121383736947 0 0 0
505 0 1 0 15.95576496964925 9.153349166878563 7.146147751821571 0 0 0
204 0 2 0 16.18593656662464 7.787409915132013 4.414883700117675 0 0 0
97 0 1 0 16.12577807970107 5.671252885698746 6.550236938354805 0 0 0
98 0 2 0 16.718655729667596 6.066082210417649 7.192354494411368 0 0 0
80 0 2 0 19.162830540622288 5.903433101101844 5.7555782569318605 0 0 0
208 0 1 0 19.355029328725536 7.491590729343634 5.481778357840653 0 0 0
209 0 2 0 18.82227163520789 7.697858718806939 4.687457807436834 0 0 0
210 0 2 0 19.089581908481215 8.167986132638926 6.1413748439965 0 0 0
506 0 2 0 16.901339570126893 9.190814137675435 7.2757693943821335 0 0 0
538 0 1 0 18.65130565771542 9.316525602491328 7.259222139433611 0 0 0
539 0 2 0 19.319722228004856 9.06607527453744 7.9029040622758835 0 0 0
410 0 2 0 18.755163897328693 6.241407678621351 8.326469618806096 0 0 0
135 0 2 0 2.442140842858531 11.01848954860962 6.6893974675972405 0 0 0
133 0 1 0 2.706739428355788 11.931372338427083 6.681180326188703 0 0 0
134 0 2 0 3.582832387318417 11.95900201147479 7.017914266574214 0 0 0
238 0 1 0 2.0016276351509465 14.159773664409478 5.265895125123674 0 0 0
239 0 2 0 1.0464450741746862 13.994465964781513 5.148279186111683 0 0 0
453 0 2 0 1.6594570423990471 12.652565882225366 7.945738357622265 0 0 0
240 0 2 0 2.379039275636218 13.295827542900026 5.591510099518152 0 0 0
125 0 2 0 4.2483233213150156 10.964845338270585 4.494974963173317 0 0 0
467 0 2 0 5.5180220070883665 10.048298933321012 6.88263120562206 0 0 0
116 0 2 0 6.667828014811271 10.885445303431846 5.090210075855474 0 0 0
115 0 1 0 5.88498772273958 11.31135254859907 5.55532509634259 0 0 0
246 0 2 0 5.3080518524604186 14.418821525827065 4.533030029321461 0 0 0
117 0 2 0 6.017492923103622 12.260996794877668 5.679906785134471 0 0 0
244 0 1 0 6.008393149882834 14.156717961852552 5.203704309587428 0 0 0
276 0 2 0 7.821335210681989 14.262223262723099 4.955303628006063 0 0 0
245 0 2 0 5.755651167939304 14.691110617044076 5.9673136867824015 0 0 0
445 0 1 0 4.952401694431539 12.656739372894558 8.251075945953074 0 0 0
447 0 2 0 5.93613157569424 12.754610049668864 8.15649099026611 0 0 0
470 0 2 0 9.411591373730815 10.013553337452041 6.51289446170943 0 0 0
169 0 1 0 9.554391671087203 12.163944699197607 6.691281229055593 0 0 0
489 0 2 0 8.361865989255941 12.361231192518728 8.087608051869069 0 0 0
274 0 1 0 8.760376497803376 14.146412624038955 5.003354129041306 0 0 0
170 0 2 0 9.308522140386383 12.784049501093845 5.969184588363525 0 0 0
171 0 2 0 10.41189161709848 12.440584192957001 7.000568620230725 0 0 0
275 0 2 0 9.050577664005463 14.80833387405818 5.713977075598859 0 0 0
481 0 1 0 11.79600165379294 12.484421539419944 8.139440494691112 0 0 0
152 0 2 0 12.074814925692541 10.532901688302308 4.860294834316369 0 0 0
504 0 2 0 12.55591363081484 10.01997450163202 7.334878437758146 0 0 0
151 0 1 0 12.706726967479312 10.906673090530656 5.521186801646966 0 0 0
153 0 2 0 13.51325197837229 10.848788690595438 4.92646007343438 0 0 0
281 0 2 0 12.062134966786314 13.912850298052115 4.589925951630014 0 0 0
311 0 2 0 14.263046254149405 14.079637672624393 5.1191288971183 0 0 0
280 0 1 0 12.500125512258167 13.810233375409904 5.5317598603587355 0 0 0
282 0 2 0 12.568228734119039 12.802922095101211 5.686643302892742 0 0 0
206 0 2 0 15.292998731671373 12.260413783175 7.264353179509061 0 0 0
205 0 1 0 15.968879712128674 11.977628602758084 6.632408194883582 0 0 0
310 0 1 0 15.192673437137056 14.294446429677105 5.210989512569752 0 0 0
312 0 2 0 15.572022248055118 13.444854017446573 5.550505432784677 0 0 0
524 0 2 0 13.424093746356279 12.728322242376775 8.378224075547704 0 0 0
198 0 2 0 17.884171889577594 11.099950770721376 4.484504855530048 0 0 0
189 0 2 0 19.99863851349214 11.159291477031813 5.1709569167581435 0 0 0
207 0 2 0 16.08871650982349 11.073609274658253 6.728980623572822 0 0 0
540 0 2 0 18.877105611928904 10.217258724015302 7.0142714825220915 0 0 0
187 0 1 0 19.21947126618535 11.563533939384532 5.616526160187877 0 0 0
318 0 2 0 18.603281153920456 14.58480369477199 4.669589086004207 0 0 0
518 0 2 0 17.433671337350667 12.444125496842316 7.454322910172821 0 0 0
188 0 2 0 19.290730502028858 12.505713664652363 5.561809986783848 0 0 0
316 0 1 0 19.15709236696197 14.192844880700068 5.431491741616 0 0 0
317 0 2 0 19.00319776087982 14.884816880233242 6.085729525465425 0 0 0
519 0 2 0 19.066502935614203 12.544014237476345 7.904363445999525 0 0 0
517 0 1 0 18.116999172170523 12.679456751661274 8.145336405732934 0 0 0
542 0 2 0 2.3849789674000017 15.490282411222898 6.092038393405592 0 0 0
543 0 2 0 3.4992655446789778 16.26473791528465 6.86852336726583 0 0 0
541 0 1 0 2.5171967920077374 16.241391498214583 6.723646192640359 0 0 0
241 0 1 0 2.4609210637551655 18.956594080255833 6.900279236211107 0 0 0
242 0 2 0 2.391073984568846 18.02006399648907 6.583223048058076 0 0 0
243 0 2 0 3.271744203618231 19.04143606762362 7.377332105568297 0 0 0
560 0 2 0 1.2119868230379702 19.02066432040231 8.126830876766402 0 0 0
574 0 1 0 5.456065335985524 15.94357584575988 7.436744404204384 0 0 0
575 0 2 0 6.081144339153706 15.612147091177556 8.136759298292551 0 0 0
30 0 2 0 6.093450780458384 19.804442023025302 5.372079258759337 0 -1 0
224 0 2 0 5.521575545278028 17.694308833537868 5.036306270171164 0 0 0
225 0 2 0 7.06088585645408 17.707115511372777 5.324766160286943 0 0 0
576 0 2 0 5.81292128609983 16.75278103916478 7.056620041509418 0 0 0
223 0 1 0 6.217282280430798 18.058383164726408 5.6521636236205675 0 0 0
578 0 2 0 8.77206190971114 15.57112941976367 7.83266796014255 0 0 0
577 0 1 0 9.437038617062422 15.680455098278307 7.128360453504534 0 0 0
611 0 2 0 11.30551437212217 15.857790845331753 7.606585724014421 0 0 0
60 0 2 0 9.090047084020464 19.782639028643892 5.340654648602453 0 -1 0
278 0 2 0 8.448491029883549 18.88871901134236 7.453286889654688 0 0 0
277 0 1 0 9.013416270302834 18.507686535355745 6.7987362467488035 0 0 0
579 0 2 0 9.071615920672818 16.504592076796953 6.751583232606804 0 0 0
279 0 2 0 9.816178940256412 18.390365500643554 7.29396741110719 0 0 0
610 0 1 0 12.262849467984417 15.79879838005069 7.397908824025253 0 0 0
612 0 2 0 12.243319524445445 15.173109043380459 6.659722981736409 0 0 0
614 0 2 0 15.779330204232606 15.556403976088973 6.247975711753182 0 0 0
261 0 2 0 12.527521035367249 17.239768702072404 6.362372233937262 0 0 0
299 0 2 0 14.168950388136924 17.394289854249557 4.742091310532841 0 0 0
260 0 2 0 12.623465271752757 18.711676579653904 5.754311459551707 0 0 0
259 0 1 0 12.808189528318803 17.765764465530886 5.572065053028995 0 0 0
315 0 2 0 15.052906733902562 19.078858516978457 7.489651760311392 0 0 0
314 0 2 0 15.775893609275412 19.384626459238007 6.109536195857952 0 0 0
313 0 1 0 15.742795120567427 18.744279100537405 6.858237290638378 0 0 0
615 0 2 0 15.991904507078258 16.931094118834935 6.654475183483853 0 0 0
644 0 2 0 13.818962334433653 15.680594404822033 8.374548440585436 0 0 0
647 0 2 0 17.955156144238188 15.970415939601182 7.691443087274125 0 0 0
646 0 1 0 18.87452711261153 16.153655983182574 7.443314529281456 0 0 0
648 0 2 0 19.407383553621592 15.719439645204844 8.119934176034803 0 0 0
297 0 2 0 19.934992509045834 17.803041193306306 5.161031172357775 0 0 0
102 0 2 0 19.49621780275843 19.87465192620965 5.650103792436637 0 -1 0
613 0 1 0 16.202532709787263 16.052104952414197 6.9301972834078445 0 0 0
305 0 2 0 17.971142202648608 18.2198728006707 4.429554149000364 0 0 0
295 0 1 0 19.25090631899861 18.16762463027176 5.734135257701561 0 0 0
296 0 2 0 19.111567782619957 17.473854296125175 6.413572371019539 0 0 0
627 0 2 0 17.739277765606353 19.053167829529336 7.558466262473807 0 0 0
625 0 1 0 18.217837867135067 19.37716901462668 8.350062272756546 0 0 0
626 0 2 0 19.189321280258547 19.123407815535792 8.271729642935107 0 0 0
356 0 2 0 1.7294400157169394 2.1991055541617293 8.780504634605958 0 0 0
357 0 2 0 0.2481525815065685 2.301331971015337 8.890607725373265 0 0 0
355 0 1 0 0.9956467676579039 2.0114656642655557 9.409848817900519 0 0 0
335 0 2 0 1.2097233140824157 3.194429848651431 10.417073896248878 0 0 0
346 0 1 0 2.239916755729175 0.7388414742371361 11.699283838581053 0 0 0
347 0 2 0 2.8209367601000235 0.9423790534222408 10.915533462676704 0 0 0
348 0 2 0 1.2526490234256917 0.7911067395523889 11.527420544883398 0 0 0
561 0 2 0 0.9663987358078014 0.15351460597361594 9.342517438895262 0 1 0
334 0 1 0 1.2765001813592922 4.167535565983552 10.635728883577276 0 0 0
336 0 2 0 2.162424717050538 4.360178108010863 10.854056456501006 0 0 0
340 0 1 0 3.8393675152327043 4.256406193949566 10.611521932624031 0 0 0
328 0 1 0 4.037066080677117 1.561920270252909 9.983964646316917 0 0 0
329 0 2 0 4.04448121940838 2.5376805294878975 9.886542744673873 0 0 0
330 0 2 0 4.765967684525996 1.4091950065668952 10.65963265188546 0 0 0
393 0 2 0 7.859255111059305 1.3240824422034596 8.957964867828675 0 0 0
391 0 1 0 7.918822091962999 2.2971537979147327 8.882940451100962 0 0 0
353 0 2 0 6.980186479612156 0.5916741842473995 11.846932667867508 0 0 0
352 0 1 0 5.984551367660851 0.6456144354878816 11.98143417607527 0 0 0
372 0 2 0 7.592446689946111 3.435564299237471 10.205986707034336 0 0 0
332 0 2 0 6.60581217722275 4.532035063414896 11.870764698156773 0 0 0
370 0 1 0 7.785827594713517 4.224908185188367 10.699022601812867 0 0 0
342 0 2 0 4.435745008354783 4.268048749319859 11.35900900291552 0 0 0
341 0 2 0 4.085709220140608 4.978292255343789 10.000459088757381 0 0 0
554 0 2 0 4.454464332748294 0.28850927275873917 8.936859588616024 0 1 0
382 0 1 0 8.694789477016405 0.9240997659765197 11.746003049895696 0 0 0
366 0 2 0 10.005988850327153 1.441856736245934 10.722907248631788 0 0 0