LAMMPS (23 Jun 2022)
echo both

include		in.partitions
variable        pid world 0
include		in.temp
variable        temperature equal 260
variable        tempDamp equal 0.100 # this is 0.1 ps
include		in.pressure
variable        pressure equal 5066.25
variable        pressureDamp equal 1.0 #this is 1ps
include		in.seed
variable        seed world 745823

units           metal
atom_style	full
include		in.box
read_data       iceIII.data
Reading data file ...
  orthogonal box = (0 0 0) to (19.991053 19.991053 20.800772)
  1 by 1 by 1 MPI processor grid
  reading atoms ...
  972 atoms
Finding 1-2 1-3 1-4 neighbors ...
  special bond factors lj:    0        0        0       
  special bond factors coul:  0        0        0       
     0 = max # of 1-2 neighbors
     0 = max # of 1-3 neighbors
     0 = max # of 1-4 neighbors
     1 = max # of special neighbors
  special bonds CPU = 0.000 seconds
  read_data CPU = 0.011 seconds
include 	in.setup
variable	out_freq equal 500
variable	out_freq2 equal 500

timestep        0.0005

neigh_modify    delay 7 every 1

include         in.deepmd
# This is deepMD model

# create groups ###
#group ox type 2
#group hy type 1

mass 2 15.999
mass 1 1.008

pair_style      deepmd ../graph.pb
Summary of lammps deepmd module ...
  >>> Info of deepmd-kit:
  installed to:       /u/sigbjobo/software/DEEPMD_FROM_SOURCE/deepmd-kit/install
  source:             v2.1.3
  source branch:       master
  source commit:      5a32c49
  source commit at:   2022-07-01 09:52:58 +0800
  surpport model ver.:1.1 
  build float prec:   double
  build with tf inc:  /u/sigbjobo/software/DEEPMD_FROM_SOURCE/tensorflow/install/include;/u/sigbjobo/software/DEEPMD_FROM_SOURCE/tensorflow/install/include
  build with tf lib:  /u/sigbjobo/software/DEEPMD_FROM_SOURCE/tensorflow/install/lib/libtensorflow_cc.so;/u/sigbjobo/software/DEEPMD_FROM_SOURCE/tensorflow/install/lib/libtensorflow_framework.so
  set tf intra_op_parallelism_threads: 0
  set tf inter_op_parallelism_threads: 0
  >>> Info of lammps module:
  use deepmd-kit at:  /u/sigbjobo/software/DEEPMD_FROM_SOURCE/deepmd-kit/install
  source:             v2.1.3
  source branch:      master
  source commit:      5a32c49
  source commit at:   2022-07-01 09:52:58 +0800
  build float prec:   double
  build with tf inc:  /u/sigbjobo/software/DEEPMD_FROM_SOURCE/tensorflow/install/include;/u/sigbjobo/software/DEEPMD_FROM_SOURCE/tensorflow/install/include
  build with tf lib:  /u/sigbjobo/software/DEEPMD_FROM_SOURCE/tensorflow/install/lib/libtensorflow_cc.so;/u/sigbjobo/software/DEEPMD_FROM_SOURCE/tensorflow/install/lib/libtensorflow_framework.so
pair_coeff      * *

bond_style      none
angle_style     none
dihedral_style  none
improper_style  none
neigh_modify exclude none


neighbor        2.0 bin
neigh_modify    every 10 delay 0 check no

thermo          ${out_freq}
thermo          500
thermo_style 	custom step temp pe etotal epair emol press lx ly lz xy xz yz vol pxx pyy pzz pxy pxz pyz cella cellb cellc cellalpha cellbeta cellgamma

restart 	${out_freq} restart.lmp.${pid} restart2.lmp.${pid}
restart 	500 restart.lmp.${pid} restart2.lmp.${pid}
restart 	500 restart.lmp.0 restart2.lmp.${pid}
restart 	500 restart.lmp.0 restart2.lmp.0


include         in.dump
dump            myDump all atom ${out_freq2} dump.water.${pid}
dump            myDump all atom 500 dump.water.${pid}
dump            myDump all atom 500 dump.water.0
dump            myDump2 all dcd ${out_freq2} dump.dcd
dump            myDump2 all dcd 500 dump.dcd
dump_modify     myDump append yes
dump_modify     myDump2 append yes


timer           timeout 04:55:00 every 1000
New timer settings: style=normal  mode=nosync  timeout=04:55:00

fix             2 all nph aniso ${pressure} ${pressure} ${pressureDamp}
fix             2 all nph aniso 5066.25 ${pressure} ${pressureDamp}
fix             2 all nph aniso 5066.25 5066.25 ${pressureDamp}
fix             2 all nph aniso 5066.25 5066.25 1
fix             3 all temp/csvr ${temperature} ${temperature} ${tempDamp} ${seed}
fix             3 all temp/csvr 260 ${temperature} ${tempDamp} ${seed}
fix             3 all temp/csvr 260 260 ${tempDamp} ${seed}
fix             3 all temp/csvr 260 260 0.1 ${seed}
fix             3 all temp/csvr 260 260 0.1 745823
velocity 	all create ${temperature} ${seed} dist gaussian
velocity 	all create 260 ${seed} dist gaussian
velocity 	all create 260 745823 dist gaussian

run             400000

CITE-CITE-CITE-CITE-CITE-CITE-CITE-CITE-CITE-CITE-CITE-CITE-CITE

Your simulation uses code contributions which should be cited:

- USER-DEEPMD package:

@article{Wang_ComputPhysCommun_2018_v228_p178,
  author = {Wang, Han and Zhang, Linfeng and Han, Jiequn and E, Weinan},
  doi = {10.1016/j.cpc.2018.03.016},
  url = {https://doi.org/10.1016/j.cpc.2018.03.016},
  year = 2018,
  month = {jul},
  publisher = {Elsevier {BV}},
  volume = 228,
  journal = {Comput. Phys. Commun.},
  title = {{DeePMD-kit: A deep learning package for many-body potential energy representation and molecular dynamics}},
  pages = {178--184}
}

CITE-CITE-CITE-CITE-CITE-CITE-CITE-CITE-CITE-CITE-CITE-CITE-CITE

Generated 0 of 1 mixed pair_coeff terms from geometric mixing rule
Neighbor list info ...
  update every 10 steps, delay 0 steps, check no
  max neighbors/atom: 2000, page size: 100000
  master list distance cutoff = 8
  ghost atom cutoff = 8
  binsize = 4, bins = 5 5 6
  1 neighbor lists, perpetual/occasional/extra = 1 0 0
  (1) pair deepmd, perpetual
      attributes: full, newton on
      pair build: full/bin
      stencil: full/bin/3d
      bin: standard
Per MPI rank memory allocation (min/avg/max) = 7.648 | 7.648 | 7.648 Mbytes
   Step          Temp          PotEng         TotEng         E_pair         E_mol          Press            Lx             Ly             Lz             Xy             Xz             Yz           Volume          Pxx            Pyy            Pzz            Pxy            Pxz            Pyz           Cella          Cellb          Cellc        CellAlpha       CellBeta      CellGamma   
         0   260           -175.65013     -143.01712     -175.65013      0              37711.489      19.991053      19.991053      20.800772      0              0              0              8312.8663      41483.418      41959.303      29691.747     -62.837842     -1049.8213     -449.94001      19.991053      19.991053      20.800772      90             90             90           
       500   257.47716     -162.0857      -129.76933     -162.0857       0              2375.6394      19.915502      19.824603      20.3927        0              0              0              8051.3828      2951.5827      3334.2889      841.04662     -299.15497     -762.80023     -1213.0035      19.915502      19.824603      20.3927        90             90             90           
      1000   266.20955     -160.79687     -127.38448     -160.79687      0              1974.5147      20.04933       19.948087      20.197882      0              0              0              8078.0575      2367.3809      2236.0736      1320.0897     -1747.901      -85.671697     -960.86812      20.04933       19.948087      20.197882      90             90             90           
      1500   255.85885     -161.23347     -129.12022     -161.23347      0              12509.39       20.164145      20.058398      20.198277      0              0              0              8169.4039      9858.202       14340.775      13329.192      122.80736      319.85862      17.365041      20.164145      20.058398      20.198277      90             90             90           
      2000   252.60947     -158.41019     -126.70477     -158.41019      0             -2125.5735      20.105433      20.028472      20.232154      0              0              0              8147.1063     -1878.8015     -346.76517     -4151.1539      241.02406      1101.0568      1451.3205      20.105433      20.028472      20.232154      90             90             90           
      2500   264.54413     -158.70677     -125.50341     -158.70677      0              8930.1349      19.872915      20.058517      20.33916       0              0              0              8107.6204      7805.0326      8777.7171      10207.655      1568.1303      2618.1625     -992.03978      19.872915      20.058517      20.33916       90             90             90           
      3000   260.96654     -158.76634     -126.01201     -158.76634      0              4321.8246      19.865671      20.101659      20.498607      0              0              0              8185.7692      5720.9055      4847.5392      2397.0292     -859.33563      2002.4999      2047.8208      19.865671      20.101659      20.498607      90             90             90           
      3500   252.87602     -158.56485     -126.82598     -158.56485      0              2248.5338      20.087528      19.939051      20.358512      0              0              0              8154.1184      1802.9565      1980.2476      2962.3972     -200.91723      337.28704      3581.4937      20.087528      19.939051      20.358512      90             90             90           
      4000   266.19003     -160.77183     -127.36189     -160.77183      0              5076.8982      20.225764      19.913407      20.255264      0              0              0              8158.0883      295.18911      9654.9085      5280.5969      1872.8288      1732.0548      210.86376      20.225764      19.913407      20.255264      90             90             90           
      4500   276.04651     -162.04419     -127.39715     -162.04419      0              5710.6834      20.091843      20.036441      20.238411      0              0              0              8147.3574      10407.485      2369.1719      4355.3928     -68.837686      2218.272       370.11238      20.091843      20.036441      20.238411      90             90             90           
      5000   258.86622     -159.62462     -127.13391     -159.62462      0              4353.1081      19.942767      20.083663      20.306895      0              0              0              8133.3951      4506.2301      5684.2266      2868.8676     -1617.3356      311.57428      391.16627      19.942767      20.083663      20.306895      90             90             90           
      5500   257.29739     -160.66549     -128.37169     -160.66549      0              4507.202       19.949782      20.064904      20.462024      0              0              0              8190.7531      1295.8857      6468.7199      5757.0005     -789.58368     -45.846963      4141.5449      19.949782      20.064904      20.462024      90             90             90           
      6000   267.37846     -160.44689     -126.88779     -160.44689      0              6575.7546      20.022968      19.870158      20.4235        0              0              0              8125.6845      4527.574       10330.754      4868.9355      76.119892     -2352.8688      76.443631      20.022968      19.870158      20.4235        90             90             90           
      6500   254.65453     -159.96944     -128.00734     -159.96944      0              3031.8654      20.125523      19.93585       20.258614      0              0              0              8128.1493      4854.717       619.11475      3621.7646      357.74596     -596.8953      -869.34665      20.125523      19.93585       20.258614      90             90             90           
      7000   261.51526     -158.31921     -125.49601     -158.31921      0              5272.9281      20.155762      20.19718       20.136635      0              0              0              8197.4141      4086.1645      5398.6053      6334.0146      644.9068       2298.6553      3342.5576      20.155762      20.19718       20.136635      90             90             90           
      7500   253.163       -157.45627     -125.68138     -157.45627      0              8808.5747      20.000925      20.112289      20.054064      0              0              0              8067.0356      11755.286      7693.2703      6977.1676      1986.8511      1413.1454      111.32441      20.000925      20.112289      20.054064      90             90             90           
      8000   251.01045     -158.98999     -127.48527     -158.98999      0              1330.165       20.159093      19.920067      20.423573      0              0              0              8201.504      -455.91041      3107.7083      1338.6971     -3370.2806     -498.47771      2033.9364      20.159093      19.920067      20.423573      90             90             90           
      8500   254.49818     -160.15197     -128.20949     -160.15197      0              4766.3121      20.067038      19.82571       20.634202      0              0              0              8209.1781      5995.9029      3590.917       4712.1165      6.8141392     -833.19575      3022.9605      20.067038      19.82571       20.634202      90             90             90           
      9000   270.03946     -159.53393     -125.64085     -159.53393      0              6351.8924      19.861452      20.019552      20.55002       0              0              0              8171.0447      5333.1329      7785.2394      5937.3049     -1551.6487     -1716.8565     -117.20689      19.861452      20.019552      20.55002       90             90             90           
      9500   261.94555     -158.33858     -125.46138     -158.33858      0              3186.3476      19.844326      20.210514      20.313485      0              0              0              8147.008       307.19768      5975.845       3276           953.94545      1455.7365      2093.8068      19.844326      20.210514      20.313485      90             90             90           
     10000   268.42794     -158.42575     -124.73493     -158.42575      0              6039.3666      20.089998      20.193358      20.158739      0              0              0              8178.0885      3685.8759      9288.8074      5143.4164     -2499.5877     -1717.7947      2298.3259      20.089998      20.193358      20.158739      90             90             90           
     10500   272.61735     -157.7892      -123.57256     -157.7892       0              4646.179       20.237802      20.041869      20.184711      0              0              0              8186.9868      3959.7096      6036.4107      3942.4168      1715.9304     -374.19737      1277.8641      20.237802      20.041869      20.184711      90             90             90           
     11000   259.81805     -158.61826     -126.00808     -158.61826      0              4187.4472      20.104887      19.94822       20.27166       0              0              0              8130.0853      806.52972      5370.0283      6385.7835      293.61671     -1864.2563     -2589.8502      20.104887      19.94822       20.27166       90             90             90           
     11500   251.33926     -158.68918     -127.14319     -158.68918      0              5763.2332      19.994082      20.035214      20.492021      0              0              0              8208.811       10699.156      2789.7513      3800.7928      724.90404      1381.4136     -116.55143      19.994082      20.035214      20.492021      90             90             90           
     12000   257.99926     -157.83964     -125.45774     -157.83964      0              4418.5608      19.966175      19.942799      20.488681      0              0              0              8158.2122      7417.8212      1436.4781      4401.3832     -431.77074     -3867.2398     -3441.9388      19.966175      19.942799      20.488681      90             90             90           
     12500   266.26316     -159.10299     -125.68388     -159.10299      0              6629.2547      20.104744      19.921196      20.373221      0              0              0              8159.6899      7057.6952      2409.7614      10420.308     -1323.8011      3373.3907     -1729.3742      20.104744      19.921196      20.373221      90             90             90           
     13000   268.09093     -158.33661     -124.68808     -158.33661      0              6502.2666      20.24493       20.086852      20.253825      0              0              0              8236.3581      4708.017       8109.4407      6689.3421      145.2475       810.51798     -1647.5635      20.24493       20.086852      20.253825      90             90             90           
     13500   255.75736     -159.31838     -127.21787     -159.31838      0              3912.8026      20.034197      20.175789      20.242595      0              0              0              8182.1731      5277.4203      2402.7688      4058.2186     -129.37622      1412.0978     -1669.6089      20.034197      20.175789      20.242595      90             90             90           
     14000   254.15681     -159.85324     -127.95361     -159.85324      0              6973.138       19.859208      20.050872      20.26328       0              0              0              8068.7256      11256.265      2708.1089      6955.04        994.17615     -544.58701     -904.57172      19.859208      20.050872      20.26328       90             90             90           
     14500   250.72855     -160.61754     -129.1482      -160.61754      0              7786.8819      20.079824      19.979359      20.365677      0              0              0              8170.3431      8987.7254      6454.0708      7918.8495     -623.31532     -522.47721     -654.44311      20.079824      19.979359      20.365677      90             90             90           
     15000   267.35316     -159.59933     -126.04341     -159.59933      0              4054.705       20.226774      19.885629      20.380413      0              0              0              8197.4533      643.54181      6086.1102      5434.4629     -429.87562     -759.34658     -184.35748      20.226774      19.885629      20.380413      90             90             90           
     15500   261.22669     -159.06074     -126.27376     -159.06074      0              7881.6316      20.035866      19.867246      20.274085      0              0              0              8070.251       6709.0374      9850.217       7085.6405     -1843.0797     -90.314213      614.60856      20.035866      19.867246      20.274085      90             90             90           
     16000   273.07536     -160.48483     -126.2107      -160.48483      0              1996.0452      20.017688      20.187533      20.345516      0              0              0              8221.7803      3899.06       -635.6964       2724.7721      1273.3069      815.46392     -702.26078      20.017688      20.187533      20.345516      90             90             90           
     16500   263.57393     -158.94176     -125.86018     -158.94176      0              3866.0308      19.954649      20.23403       20.278569      0              0              0              8187.7351      7440.5898     -1007.0209      5164.5234     -112.77901      908.88188      1313.9011      19.954649      20.23403       20.278569      90             90             90           
     17000   262.72113     -159.13246     -126.15791     -159.13246      0              6126.9024      19.934705      20.11818       20.283107      0              0              0              8134.5399      4197.6812      6651.5691      7531.457       1871.3227     -5130.6625     -1449.4447      19.934705      20.11818       20.283107      90             90             90           
     17500   273.66567     -160.94973     -126.60152     -160.94973      0              5436.5073      20.055883      20.001765      20.420113      0              0              0              8191.5909      6948.2046      4064.2988      5297.0184     -385.76845      5254.7229     -3117.0898      20.055883      20.001765      20.420113      90             90             90           
     18000   252.29485     -160.052       -128.38606     -160.052        0              6799.1746      20.128956      19.896771      20.446799      0              0              0              8188.9681      4737.3393      9112.9306      6547.254      -362.02274     -1508.1209     -1006.7238      20.128956      19.896771      20.446799      90             90             90           
     18500   251.27831     -158.98822     -127.44988     -158.98822      0              7261.0401      20.031932      19.846721      20.285719      0              0              0              8064.956       4713.1427      9032.5205      8037.4571      1291.2674      2918.888      -923.47209      20.031932      19.846721      20.285719      90             90             90           
     19000   267.63248     -160.92601     -127.33503     -160.92601      0              6297.7583      20.125702      20.080233      20.23075       0              0              0              8175.8287      7165.9214      2499.5511      9227.8025      404.29452     -200.55839     -1442.969       20.125702      20.080233      20.23075       90             90             90           
     19500   254.11736     -158.37486     -126.48018     -158.37486      0              8157.6935      20.085545      20.155143      20.068098      0              0              0              8124.1085      9760.3116      7406.5432      7306.2256      847.45058     -1297.7154     -1071.6976      20.085545      20.155143      20.068098      90             90             90           
     20000   248.83741     -160.09256     -128.86058     -160.09256      0              1829.992       20.066288      20.202095      20.243936      0              0              0              8206.5084      5139.2711     -1906.0269      2256.7317      649.67523     -271.86111     -452.24834      20.066288      20.202095      20.243936      90             90             90           
     20500   251.17912     -159.40035     -127.87446     -159.40035      0              4278.2344      19.819075      19.988751      20.530696      0              0              0              8133.411       8277.3485      1514.0584      3043.2962     -1669.6103     -1725.7542     -1635.4078      19.819075      19.988751      20.530696      90             90             90           
     21000   254.74178     -159.93367     -127.96062     -159.93367      0              3017.1433      19.846907      19.910777      20.75042       0              0              0              8199.8883      6218.7084      1453.0705      1379.6509      2048.392      -1765.1254     -2447.8331      19.846907      19.910777      20.75042       90             90             90           
     21500   247.31981     -160.31294     -129.27144     -160.31294      0              7362.8102      20.065372      19.900446      20.510827      0              0              0              8190.175       6305.9408      10667.191      5115.2986     -4.9354188      1497.9623     -1185.8338      20.065372      19.900446      20.510827      90             90             90           
     22000   246.97487     -157.62001     -126.6218      -157.62001      0              3647.7596      20.223763      19.875352      20.15687       0              0              0              8102.1428     -27.557628      5843.6791      5127.1574      923.89439     -1840.6452      1536.3957      20.223763      19.875352      20.15687       90             90             90           
     22500   258.58367     -159.81479     -127.35954     -159.81479      0              3369.9333      20.267719      20.070597      20.210399      0              0              0              8221.2914     -2173.8028      7642.8364      4640.7664     -587.86492     -2606.5731      1473.1357      20.267719      20.070597      20.210399      90             90             90           
     23000   250.23076     -160.24386     -128.837       -160.24386      0              2321.8708      19.918574      20.141707      20.316425      0              0              0              8150.8297     -2701.8188      6532.2403      3135.1909     -495.97293     -421.16724     -294.5902       19.918574      20.141707      20.316425      90             90             90           
     23500   263.26303     -159.18487     -126.1423      -159.18487      0              8263.8504      19.792113      20.147841      20.410633      0              0              0              8139.1144      9244.6604      7624.7652      7922.1257      311.41958     -2675.6373      2976.073       19.792113      20.147841      20.410633      90             90             90           
     24000   261.83023     -158.15183     -125.2891      -158.15183      0              6345.4992      19.939027      20.088952      20.392264      0              0              0              8168.2059      6783.264       8535.6629      3717.5708      500.25081     -3153.6585      952.6784       19.939027      20.088952      20.392264      90             90             90           
     24500   259.50316     -158.67211     -126.10145     -158.67211      0              5337.3521      20.224992      20.008042      20.266226      0              0              0              8200.9813      7191.6446      3186.4078      5634.004       162.81797      325.96433      197.33467      20.224992      20.008042      20.266226      90             90             90           
     25000   262.41507     -158.674       -125.73787     -158.674        0              4098.651       20.3028        19.926299      20.217747      0              0              0              8179.2849      3310.7344      6431.8881      2553.3307      596.78989      2503.3002     -2211.9496      20.3028        19.926299      20.217747      90             90             90           
     25500   262.0419      -158.24583     -125.35653     -158.24583      0              1046.988       20.126814      19.946064      20.31419       0              0              0              8155.1461      1399.6896     -1407.3293      3148.6036      239.44845      520.9248      -354.16652      20.126814      19.946064      20.31419       90             90             90           
     26000   267.10061     -158.67984     -125.15561     -158.67984      0              4945.9401      19.974433      19.977537      20.531139      0              0              0              8192.7451      6967.932       3376.1887      4493.6997      2363.3719     -80.372295     -938.65149      19.974433      19.977537      20.531139      90             90             90           
     26500   253.82557     -159.40641     -127.54835     -159.40641      0              7230.9253      19.919496      20.029752      20.507476      0              0              0              8182.1253      9010.5072      6061.8627      6620.4061     -508.41173     -907.98903     -1198.0947      19.919496      20.029752      20.507476      90             90             90           
     27000   272.60218     -159.17101     -124.95627     -159.17101      0              7001.0828      19.96864       20.17663       20.271384      0              0              0              8167.3375      10428.906      1592.4468      8981.8957      202.77198     -3293.0424     -745.66962      19.96864       20.17663       20.271384      90             90             90           
     27500   266.71199     -159.92009     -126.44464     -159.92009      0              5009.3756      20.121713      20.282013      20.002832      0              0              0              8163.3325      7943.3723      1539.7172      5545.0371      1416.0488     -2049.5923     -1098.7         20.121713      20.282013      20.002832      90             90             90           
     28000   252.74499     -159.00269     -127.28026     -159.00269      0              1733.9045      20.272805      20.096639      20.03962       0              0              0              8164.4469     -1942.8702      2111.4474      5033.1365     -321.60013      2830.5517      840.34738      20.272805      20.096639      20.03962       90             90             90           
     28500   255.96033     -157.95198     -125.82599     -157.95198      0              4032.9201      20.25629       19.797272      20.422944      0              0              0              8189.9943      1251.4265      5430.5273      5416.8064     -2022.9856     -467.01098      902.16605      20.25629       19.797272      20.422944      90             90             90           
     29000   255.52944     -158.59339     -126.52148     -158.59339      0              4291.5227      20.002719      19.804665      20.616452      0              0              0              8167.1489      7024.5739      3961.9006      1888.0937     -1537.9557     -284.87706      1714.1047      20.002719      19.804665      20.616452      90             90             90           
     29500   257.95895     -157.25147     -124.87462     -157.25147      0              4893.3293      19.886558      20.011545      20.455081      0              0              0              8140.3196      6944.5468      3023.2261      4712.215      -2451.3456     -354.94925     -1233.0024      19.886558      20.011545      20.455081      90             90             90           
     30000   269.0908      -157.03973     -123.26572     -157.03973      0              2625.4374      20.077031      20.137897      20.266129      0              0              0              8193.7819      2314.1572      1658.2094      3903.9456     -1318.0903     -382.05436      2900.2992      20.077031      20.137897      20.266129      90             90             90           
     30500   264.25816     -158.19793     -125.03046     -158.19793      0              7367.8136      20.156069      20.109752      20.122775      0              0              0              8156.436       4092.0163      9620.6659      8390.7585      542.68207      1114.4052      732.65606      20.156069      20.109752      20.122775      90             90             90           
     31000   269.80491     -158.51028     -124.64664     -158.51028      0              4010.9837      20.150616      20.168987      20.253331      0              0              0              8231.3085      3055.8245      3886.6213      5090.5052     -575.51878     -881.03723      1408.2917      20.150616      20.168987      20.253331      90             90             90           
     31500   269.54496     -159.22871     -125.39769     -159.22871      0              4300.8571      19.959424      20.028219      20.346121      0              0              0              8133.3966      3573.1194      5179.6898      4149.7621      634.21523     -2227.7507      483.38426      19.959424      20.028219      20.346121      90             90             90           
     32000   259.08831     -159.36666     -126.84807     -159.36666      0              3109.7604      19.958597      19.987537      20.459789      0              0              0              8161.8845      4667.327       2497.7658      2164.1883      158.80731      522.00964      1886.9374      19.958597      19.987537      20.459789      90             90             90           
     32500   266.67176     -159.26912     -125.79872     -159.26912      0              3175.6714      20.20292       20.034069      20.446102      0              0              0              8275.4924      7270.1469     -569.40287      2826.2702     -1133.166      -4524.2283     -302.92548      20.20292       20.034069      20.446102      90             90             90           
     33000   266.65385     -159.31514     -125.84699     -159.31514      0              5673.5283      20.209644      19.948184      20.203232      0              0              0              8144.8459      3457.4812      7689.9155      5873.1883     -257.19064     -575.53093     -3112.7604      20.209644      19.948184      20.203232      90             90             90           
     33500   256.3161      -158.99984     -126.82919     -158.99984      0              4440.0902      20.006525      20.046866      20.10982       0              0              0              8065.4078      3099.3114      5199.3937      5021.5655      826.34007      722.01316      1572.9993      20.006525      20.046866      20.10982       90             90             90           
     34000   260.81835     -161.52813     -128.7924      -161.52813      0              5320.902       19.998697      20.178546      20.361543      0              0              0              8216.7911      5276.9904      5654.3457      5031.3699      61.23475       1390.1637      347.33228      19.998697      20.178546      20.361543      90             90             90           
     34500   250.64024     -160.73741     -129.27915     -160.73741      0              4473.9611      19.982403      20.021596      20.472654      0              0              0              8190.6912      2895.44        5810.4026      4716.0408     -1127.3807     -172.56016     -770.14581      19.982403      20.021596      20.472654      90             90             90           
     35000   247.66573     -160.93226     -129.84734     -160.93226      0              5146.6332      19.873211      19.950811      20.3257        0              0              0              8058.8694      5025.9746      3885.8971      6528.028       1372.0232      3636.0464      423.59457      19.873211      19.950811      20.3257        90             90             90           
     35500   253.68981     -160.05924     -128.21823     -160.05924      0              4235.0121      20.077332      20.133145      20.339076      0              0              0              8221.4582      2450.6623      4673.5984      5580.7756     -259.26761     -2043.1234     -2255.7891      20.077332      20.133145      20.339076      90             90             90           
     36000   256.39599     -159.33733     -127.15666     -159.33733      0              5214.9477      20.137402      20.061618      20.290653      0              0              0              8197.1976      4731.6994      4802.5227      6110.6209      1126.1721     -270.16664      369.96419      20.137402      20.061618      20.290653      90             90             90           
     36500   257.36201     -158.55635     -126.25443     -158.55635      0              6411.2145      20.110974      19.882039      20.268777      0              0              0              8104.4131      4832.8563      8486.6516      5914.1357     -519.12962     -1340.5554      856.33899      20.110974      19.882039      20.268777      90             90             90           
     37000   255.09671     -159.11414     -127.09655     -159.11414      0              2899.7294      20.035712      19.887899      20.395622      0              0              0              8127.0074      5554.383      -416.04667      3560.8518     -180.32791     -1794.2402     -824.50488      20.035712      19.887899      20.395622      90             90             90           
     37500   257.23593     -159.82116     -127.53506     -159.82116      0              174.89162      20.045802      20.153656      20.559756      0              0              0              8306.0635      1793.9381      60.329693     -1329.593      -543.62221     -165.50964     -1678.1892      20.045802      20.153656      20.559756      90             90             90           
     38000   260.42054     -157.64709     -124.96129     -157.64709      0              4838.1973      19.811059      20.159738      20.346131      0              0              0              8125.9546      4470.0889      4238.544       5805.959       395.61511      1163.3198     -1142.4551      19.811059      20.159738      20.346131      90             90             90           
     38500   268.1209      -159.89279     -126.2405      -159.89279      0              3502.4747      20.022116      20.040968      20.217416      0              0              0              8112.4929      3988.4314      3199.1527      3319.84        1336.7056      431.43989      2307.8431      20.022116      20.040968      20.217416      90             90             90           
     39000   256.93537     -160.40371     -128.15534     -160.40371      0              3679.2571      20.332488      20.024319      20.322881      0              0              0              8274.3434      3245.0116      3933.0932      3859.6666      133.90417     -449.151        1424.1525      20.332488      20.024319      20.322881      90             90             90           
     39500   262.82946     -158.59382     -125.60567     -158.59382      0              4551.728       20.041015      19.927319      20.301838      0              0              0              8107.8169      4357.3327      5372.7866      3925.0647     -853.03309     -1467.1722     -60.956368      20.041015      19.927319      20.301838      90             90             90           
     40000   264.6471      -160.52977     -127.31349     -160.52977      0              3668.7769      19.967391      20.097057      20.498753      0              0              0              8225.8581      4187.377       4958.7697      1860.184       1098.2953      491.72771      2444.323       19.967391      20.097057      20.498753      90             90             90           
     40500   259.74764     -160.42116     -127.81982     -160.42116      0              5753.6855      19.98384       20.009328      20.423846      0              0              0              8166.7444      6620.9239      4841.1368      5798.9956     -1175.6131     -2320.1742     -991.53392      19.98384       20.009328      20.423846      90             90             90           
     41000   255.25126     -160.09212     -128.05513     -160.09212      0              2056.1991      20.181833      19.934335      20.386254      0              0              0              8201.623       1597.9974      3373.4337      1197.1663     -515.47838      878.83817     -1054.1106      20.181833      19.934335      20.386254      90             90             90           
     41500   269.89309     -159.67555     -125.80083     -159.67555      0              7837.5516      20.114739      19.854143      20.243851      0              0              0              8084.6028      9689.4956      7704.1723      6118.9871     -630.25489     -4249.2429     -724.1924       20.114739      19.854143      20.243851      90             90             90           
     42000   260.29387     -159.64734     -126.97744     -159.64734      0              3999.5718      20.14222       20.07772       20.379044      0              0              0              8241.4865      2662.41        3554.8709      5781.4344     -1266.1256      1280.7231     -855.90194      20.14222       20.07772       20.379044      90             90             90           
     42500   265.54707     -158.76205     -125.43282     -158.76205      0              1491.4993      19.99978       20.100083      20.453747      0              0              0              8222.3499     -267.34734      1801.4314      2940.4138      900.67836     -92.883488     -695.42259      19.99978       20.100083      20.453747      90             90             90           
     43000   267.25833     -159.19138     -125.64736     -159.19138      0              5346.2289      19.847355      19.935911      20.410857      0              0              0              8076.068       9175.4363      2097.9456      4765.3049      835.9465       316.60967      433.07597      19.847355      19.935911      20.410857      90             90             90           
     43500   259.54264     -159.49302     -126.9174      -159.49302      0              6408.8399      20.081962      20.040055      20.517781      0              0              0              8257.2504      7757.3911      3008.738       8460.3905      1537.6141      797.03773     -861.02629      20.081962      20.040055      20.517781      90             90             90           
     44000   256.75601     -158.55698     -126.33112     -158.55698      0              4130.8121      20.102652      20.060004      20.337745      0              0              0              8201.3843      646.66341      5937.3616      5808.4113      406.29003      3174.7653     -1979.9938      20.102652      20.060004      20.337745      90             90             90           
     44500   257.73118     -159.29606     -126.9478      -159.29606      0              5184.2631      20.064463      20.07512       20.249306      0              0              0              8156.3496      7112.6832      2694.2473      5745.8586     -364.7638      -1884.1411     -365.65347      20.064463      20.07512       20.249306      90             90             90           
     45000   250.57073     -160.63042     -129.18089     -160.63042      0              5228.0287      20.070885      20.022837      20.374251      0              0              0              8187.924       5356.0326      3615.1002      6712.9533      726.10459     -273.1135      -465.88742      20.070885      20.022837      20.374251      90             90             90           
     45500   258.86254     -160.36894     -127.87869     -160.36894      0              1835.7795      20.030733      19.853561      20.576741      0              0              0              8182.9869     -149.53186      3286.6784      2370.192       1242.6066     -1189.9485     -1437.9368      20.030733      19.853561      20.576741      90             90             90           
     46000   254.86461     -159.3858      -127.39733     -159.3858       0              5896.4951      20.008826      19.837092      20.741235      0              0              0              8232.5468      3783.8594      7880.601       6025.0247      936.30937     -2939.5462      1154.7187      20.008826      19.837092      20.741235      90             90             90           
     46500   270.14535     -160.66191     -126.75554     -160.66191      0              6768.0438      19.951321      19.938258      20.387048      0              0              0              8109.8573      7325.1642      7281.1422      5697.8251     -18.656679      374.17712      1083.9536      19.951321      19.938258      20.387048      90             90             90           
     47000   262.77612     -159.59887     -126.61742     -159.59887      0              4538.8397      20.194144      20.194371      20.077293      0              0              0              8187.6816      5116.359       2892.8744      5607.2856     -62.319811     -2700.5025      2266.6077      20.194144      20.194371      20.077293      90             90             90           
     47500   270.84212     -159.02119     -125.02736     -159.02119      0              2688.8296      20.249697      20.156446      20.046739      0              0              0              8182.3159      3868.2304      785.26975      3412.9886      536.11343     -1550.0357     -1080.2488      20.249697      20.156446      20.046739      90             90             90           
     48000   264.09727     -158.87314     -125.72587     -158.87314      0              5937.9539      19.966113      20.033959      20.260062      0              0              0              8104.0306      3153.5156      7340.4839      7319.862       1248.431      -986.39104      2223.5109      19.966113      20.033959      20.260062      90             90             90           
     48500   263.99047     -159.56627     -126.43241     -159.56627      0              6488.1645      19.888368      20.081567      20.613247      0              0              0              8232.7162      8263.9847      6283.0864      4917.4223      703.47037      1619.3408     -1235.7899      19.888368      20.081567      20.613247      90             90             90           
     49000   269.20097     -157.96284     -124.175       -157.96284      0              2677.1074      19.906393      20.029509      20.570273      0              0              0              8201.6819      341.96142      3791.1569      3898.204      -1278.4807     -2103.9602     -473.98595      19.906393      20.029509      20.570273      90             90             90           
     49500   275.84946     -156.1654      -121.54309     -156.1654       0              5202.9186      20.131509      20.028656      20.365308      0              0              0              8211.4363      5489.3291      4691.4472      5427.9795      872.78147      1362.1042     -2272.8651      20.131509      20.028656      20.365308      90             90             90           
     50000   267.19382     -157.80659     -124.27066     -157.80659      0              3962.3461      20.239393      20.060389      20.288029      0              0              0              8237.1448      1216.6569      6308.3805      4362.0009      446.80922     -207.12625      1738.9994      20.239393      20.060389      20.288029      90             90             90           
     50500   255.73971     -158.5891      -126.4908      -158.5891       0              6433.6668      20.084146      20.018197      20.294231      0              0              0              8159.2629      6679.9238      8004.2298      4616.8469     -1491.0722     -35.972259      1341.867       20.084146      20.018197      20.294231      90             90             90           
     51000   259.43959     -157.6465      -125.08383     -157.6465       0              8418.9834      19.987198      19.953403      20.358398      0              0              0              8119.1861      9899.2667      6917.564       8440.1195     -1179.7661      1857.5197     -1104.1654      19.987198      19.953403      20.358398      90             90             90           
     51500   257.49326     -159.11899     -126.8006      -159.11899      0              1653.3103      20.088553      20.043081      20.508339      0              0              0              8257.406       1657.9665      2761.6457      540.31864     -1050.902       1155.2654     -737.24903      20.088553      20.043081      20.508339      90             90             90           
     52000   255.70749     -160.61808     -128.52382     -160.61808      0              4011.8453      19.990557      20.09549       20.430637      0              0              0              8207.3963     -1103.7128      7308.3987      5830.8499      111.46392     -429.4561       708.91234      19.990557      20.09549       20.430637      90             90             90           
     52500   263.3022      -158.95228     -125.9048      -158.95228      0              7347.9918      19.875199      20.085159      20.234416      0              0              0              8077.5088      6233.9913      7784.4023      8025.5817      854.21826      1771.6328     -4527.4579      19.875199      20.085159      20.234416      90             90             90           
     53000   258.73092     -159.74149     -127.26776     -159.74149      0              5540.8588      20.189642      20.217142      20.247163      0              0              0              8264.4233      10419.631      1288.747       4914.1986      31.095934      3436.349       972.64512      20.189642      20.217142      20.247163      90             90             90           
     53500   264.4561      -159.79843     -126.60612     -159.79843      0              6456.3233      20.267011      19.985033      20.177197      0              0              0              8172.5089      3243.9406      7375.8345      8749.1949      1048.6382     -2258.2691      985.18797      20.267011      19.985033      20.177197      90             90             90           
     54000   264.71388     -158.20611     -124.98145     -158.20611      0              8419.77        20.063281      19.818315      20.263236      0              0              0              8057.0764      7725.6139      10786.209      6747.4866     -1132.8735      3284.9639     -3469.0283      20.063281      19.818315      20.263236      90             90             90           
     54500   252.67678     -161.10557     -129.3917      -161.10557      0              3287.1395      19.974713      20.076506      20.488978      0              0              0              8216.5398      1343.3843      6387.5379      2130.4962     -2084.1376     -1866.8117      1994.1604      19.974713      20.076506      20.488978      90             90             90           
     55000   260.31113     -159.82643     -127.15437     -159.82643      0              6188.1624      20.039574      20.22075       20.581221      0              0              0              8339.824       6096.0447      8329.6704      4138.7719      49.789478      689.52278     -838.96642      20.039574      20.22075       20.581221      90             90             90           
     55500   257.49087     -160.31778     -127.99969     -160.31778      0              5333.2127      20.017828      19.905783      20.299755      0              0              0              8088.8542      4684.4087      8126.2492      3188.9803     -1066.7961     -2596.0039      92.592192      20.017828      19.905783      20.299755      90             90             90           
     56000   264.63239     -158.5088      -125.29436     -158.5088       0              6133.5668      20.064266      19.974077      20.217093      0              0              0              8102.3072      7904.2287      3859.4664      6637.0053      1892.7849      235.56081      1854.9376      20.064266      19.974077      20.217093      90             90             90           
     56500   260.17885     -158.73243     -126.07696     -158.73243      0              3904.6491      20.126027      20.218979      20.336256      0              0              0              8275.3861      2827.697       3616.8393      5269.411      -460.96634      388.43186     -1503.5439      20.126027      20.218979      20.336256      90             90             90           
     57000   267.22467     -159.92488     -126.38508     -159.92488      0              2671.5853      20.004575      20.087737      20.30254       0              0              0              8158.5078      6280.4364     -1082.3552      2816.6745      645.01848     -482.02987     -375.03656      20.004575      20.087737      20.30254       90             90             90           
     57500   256.95684     -159.3642      -127.11314     -159.3642       0              5925.6079      20.050704      19.956037      20.306128      0              0              0              8125.1436      10868.796      1153.3312      5754.6967      1569.6123     -1210.6495     -485.15774      20.050704      19.956037      20.306128      90             90             90           
     58000   258.08263     -159.5701      -127.17774     -159.5701       0              3838.0396      20.187764      19.976601      20.443269      0              0              0              8244.4209      2613.4949      6205.1698      2695.454      -810.53622     -474.00932     -1058.1052      20.187764      19.976601      20.443269      90             90             90           
     58500   259.29346     -159.15624     -126.61191     -159.15624      0              9463.4932      19.983657      20.045126      20.383872      0              0              0              8165.268       9373.8687      9184.5445      9832.0665      542.15604     -4007.0072      1476.3098      19.983657      20.045126      20.383872      90             90             90           
     59000   272.23829     -159.54967     -125.3806      -159.54967      0              8091.2962      19.866157      20.177671      20.302981      0              0              0              8138.5066      7629.3814      9397.4698      7247.0373      463.88222     -793.10601     -863.68317      19.866157      20.177671      20.302981      90             90             90           
     59500   268.33074     -159.26907     -125.59045     -159.26907      0              4049.1568      20.012662      20.207765      20.199632      0              0              0              8168.9568      5185.8604      528.97903      6432.6308     -404.92683      1591.7459      268.54979      20.012662      20.207765      20.199632      90             90             90           
     60000   256.61558     -159.80781     -127.59958     -159.80781      0              8734.6353      20.223119      20.035818      20.207477      0              0              0              8187.8017      6057.0376      12711.002      7435.8666      654.92582     -3153.2116      1384.8253      20.223119      20.035818      20.207477      90             90             90           
     60500   262.1838      -160.37311     -127.46601     -160.37311      0              2118.7306      20.152207      19.901887      20.399249      0              0              0              8181.4645     -509.75667      8014.9925     -1149.0441     -1090.858       1307.5547     -837.86543      20.152207      19.901887      20.399249      90             90             90           
     61000   253.23481     -158.48492     -126.70102     -158.48492      0              6746.391       19.867395      19.977097      20.530986      0              0              0              8148.602       12687.617      2650.1327      4901.4228      0.16872166     1543.7308     -1217.3957      19.867395      19.977097      20.530986      90             90             90           
     61500   260.16436     -159.0918      -126.43816     -159.0918       0              6436.3553      19.944613      20.103106      20.528307      0              0              0              8230.7973      3409.5265      12371.934      3527.6058     -305.27559     -3228.3618      2736.2697      19.944613      20.103106      20.528307      90             90             90           
     62000   262.21169     -158.58943     -125.67882     -158.58943      0              5139.1214      20.186049      19.928578      20.269195      0              0              0              8153.8765      4133.291       5366.4902      5917.5831     -1946.0038      1114.6908     -2263.7334      20.186049      19.928578      20.269195      90             90             90           
     62500   260.94459     -159.47675     -126.72518     -159.47675      0              3510.1278      20.314384      19.925486      20.156489      0              0              0              8158.8223      4421.1927      4142.4274      1966.7634      87.698597      3294.437       1459.1277      20.314384      19.925486      20.156489      90             90             90           
     63000   266.68585     -157.10536     -123.6332      -157.10536      0              2497.6187      20.128561      20.053756      20.251513      0              0              0              8174.5891      178.12415      3636.5756      3678.1562     -1128.0576      607.45829      3226.6643      20.128561      20.053756      20.251513      90             90             90           
     63500   255.94401     -158.75359     -126.62965     -158.75359      0              5439.7382      19.85515       20.101544      20.348839      0              0              0              8121.6118      5837.9488      6190.9098      4290.3561     -1599.6692      2301.8271     -3264.7926      19.85515       20.101544      20.348839      90             90             90           
     64000   265.27199     -159.318       -126.02329     -159.318        0              6396.2759      19.921839      20.07384       20.456687      0              0              0              8180.7889      7170.0529      5448.1182      6570.6566     -178.9225      -17.993872      571.77269      19.921839      20.07384       20.456687      90             90             90           
     64500   258.99565     -159.17898     -126.67202     -159.17898      0              2631.3525      20.16784       19.961677      20.457245      0              0              0              8235.7579      1987.7214      2208.4487      3697.8872      1262.9457     -852.40954     -1463.5238      20.16784       19.961677      20.457245      90             90             90           
     65000   252.6375      -160.52236     -128.81343     -160.52236      0              5207.2551      20.113957      19.883229      20.285261      0              0              0              8112.6928      3641.5196      6921.5993      5058.6464     -595.36161     -2192.2811      2262.7947      20.113957      19.883229      20.285261      90             90             90           
     65500   266.12467     -161.23604     -127.83431     -161.23604      0              7007.5779      19.970347      20.154519      20.231376      0              0              0              8142.9819      4716.2683      7942.4945      8363.971      -221.56772     -1927.3963      2291.1265      19.970347      20.154519      20.231376      90             90             90           
     66000   271.31687     -158.25151     -124.19809     -158.25151      0              3845.0081      20.001004      20.205486      20.275074      0              0              0              8193.766       4065.8343      1818.0118      5651.1781     -758.45881      2006.4868     -292.73395      20.001004      20.205486      20.275074      90             90             90           
     66500   267.77795     -158.73649     -125.12725     -158.73649      0              4071.2678      20.082664      20.013514      20.322639      0              0              0              8168.1702      3994.6954      4261.38        3957.7282      138.13499      202.85721      393.62288      20.082664      20.013514      20.322639      90             90             90           
     67000   259.91005     -159.36004     -126.73831     -159.36004      0              3634.5641      20.135605      19.81731       20.372621      0              0              0              8129.3585      1707.2298      5748.4818      3447.9808      1783.7205     -524.13821     -2631.4548      20.135605      19.81731       20.372621      90             90             90           
     67500   255.06014     -158.91282     -126.89981     -158.91282      0              2175.8026      20.158031      19.977721      20.471127      0              0              0              8243.9586      1013.2848      4402.9336      1111.1895      876.96817     -833.91874     -10.953248      20.158031      19.977721      20.471127      90             90             90           
     68000   247.11438     -158.232       -127.21628     -158.232        0              2262.3888      19.975762      20.217122      20.388409      0              0              0              8233.9081      1109.6232      251.90779      5425.6354      815.9858      -155.1208      -203.34026      19.975762      20.217122      20.388409      90             90             90           
     68500   271.75059     -159.42338     -125.31553     -159.42338      0              7002.3988      19.839203      20.146178      20.135906      0              0              0              8048.002       6554.0421      4781.0609      9672.0933      912.35753     -3095.9179     -2663.3045      19.839203      20.146178      20.135906      90             90             90           
     69000   252.61        -159.75312     -128.04764     -159.75312      0              2510.4162      20.255705      20.09519       20.337373      0              0              0              8278.1697      2287.3779      103.98428      5139.8864      108.62564     -1562.1592      1120.012       20.255705      20.09519       20.337373      90             90             90           
     69500   257.35059     -160.11784     -127.81735     -160.11784      0              3383.8277      20.132238      19.875964      20.373554      0              0              0              8152.4296      4698.0753      4166.1923      1287.2156     -1713.0857      2303.4268     -807.74349      20.132238      19.875964      20.373554      90             90             90           
     70000   260.97911     -159.3569      -126.601       -159.3569       0              4425.8182      20.016528      19.914098      20.360221      0              0              0              8115.81        5835.7011      4922.4774      2519.276       1257.033       1833.2457      620.05187      20.016528      19.914098      20.360221      90             90             90           
     70500   263.61073     -160.65981     -127.5736      -160.65981      0              5327.7291      20.029928      20.040103      20.35681       0              0              0              8171.2607      8245.3433      2992.5575      4745.2864     -102.33995     -1172.0287     -981.15161      20.029928      20.040103      20.35681       90             90             90           
     71000   255.76837     -159.36494     -127.26304     -159.36494      0              5126.094       20.123152      20.064522      20.298381      0              0              0              8195.7033      3457.0476      5348.8628      6572.3717      809.37445      1103.343      -1109.3604      20.123152      20.064522      20.298381      90             90             90           
     71500   259.03175     -159.36295     -126.85146     -159.36295      0              4847.6666      20.181009      19.992385      20.307958      0              0              0              8193.5809      4665.6246      4536.5065      5340.8688     -1211.107      -1411.1653      363.02801      20.181009      19.992385      20.307958      90             90             90           
     72000   268.03963     -157.76677     -124.12469     -157.76677      0              1892.733       20.101336      19.948718      20.384247      0              0              0              8173.9991      3064.0821      3342.7438     -728.62697      1438.6496      1812.2726      494.74691      20.101336      19.948718      20.384247      90             90             90           
     72500   272.05749     -159.61322     -125.46685     -159.61322      0              4984.6325      19.964905      20.086207      20.374272      0              0              0              8170.4747      8279.3349      2456.7357      4217.827      -279.54075     -800.26187      999.73163      19.964905      20.086207      20.374272      90             90             90           
     73000   248.65139     -158.61871     -127.41008     -158.61871      0              4693.5753      20.008967      20.166243      20.229439      0              0              0              8162.6937      7270.6706      3259.252       3550.8034     -1254.0886     -2464.8725     -917.03846      20.008967      20.166243      20.229439      90             90             90           
     73500   262.0401      -159.05471     -126.16564     -159.05471      0              5354.6894      20.306423      19.945077      20.111498      0              0              0              8145.4217      932.79907      9256.8         5874.4691     -1558.9345      1983.3696      723.95095      20.306423      19.945077      20.111498      90             90             90           
     74000   256.79972     -159.5548      -127.32346     -159.5548       0              4246.5687      20.307239      19.861422      20.250132      0              0              0              8167.499       3728.3966      4824.4707      4186.8387     -2558.5262     -1272.1771      888.30739      20.307239      19.861422      20.250132      90             90             90           
     74500   254.67616     -159.27164     -127.30682     -159.27164      0              3041.6908      19.993385      19.956678      20.57857       0              0              0              8210.881       4683.5413      2705.2371      1736.294      -125.96001      3163.9738     -803.22419      19.993385      19.956678      20.57857       90             90             90           
     75000   257.96456     -157.84679     -125.46925     -157.84679      0              7526.2121      19.866886      20.011921      20.70707       0              0              0              8232.604       6630.7517      8904.3937      7043.4911     -1723.932      -2560.6611      806.18793      19.866886      20.011921      20.70707       90             90             90           
     75500   259.4318      -159.98095     -127.41925     -159.98095      0              4329.4633      20.018         19.934425      20.452487      0              0              0              8161.51        7884.0022      898.80998      4205.5776     -77.213232      1779.4236     -3218.3163      20.018         19.934425      20.452487      90             90             90           
     76000   256.65354     -158.60262     -126.38962     -158.60262      0              3076.2962      20.222449      19.998836      20.159385      0              0              0              8152.9679      7960.1704     -906.83348      2175.5516      381.28276     -1982.1076      1264.5112      20.222449      19.998836      20.159385      90             90             90           
     76500   249.87926     -161.70931     -130.34656     -161.70931      0              3178.0376      20.156794      20.13187       20.074084      0              0              0              8145.9419      4411.1838      436.1147       4686.8142     -1907.8294      1981.0713     -1525.6665      20.156794      20.13187       20.074084      90             90             90           
     77000   245.35982     -160.42866     -129.63316     -160.42866      0              8119.8459      19.915943      20.105136      20.231109      0              0              0              8100.7936      6200.3301      9579.6171      8579.5905     -1257.7682     -701.9544      -2036.3049      19.915943      20.105136      20.231109      90             90             90           
     77500   261.75586     -159.85819     -127.0048      -159.85819      0              6675.7357      19.932853      20.005573      20.545813      0              0              0              8193.0161      7237.7812      6050.3613      6739.0645     -172.73955      2669.2602     -3389.6196      19.932853      20.005573      20.545813      90             90             90           
     78000   277.64184     -158.87439     -124.02712     -158.87439      0              3564.8906      20.113364      19.867148      20.534078      0              0              0              8205.3191      5860.2733      4646.7678      187.63079     -792.52236     -1451.0135     -1036.4884      20.113364      19.867148      20.534078      90             90             90           
     78500   266.19251     -161.6829      -128.27265     -161.6829       0              5254.814       20.17419       19.892539      20.309099      0              0              0              8150.3634      2043.8528      7506.4307      6214.1584     -1453.8534     -1607.5064      1749.9639      20.17419       19.892539      20.309099      90             90             90           
     79000   254.34191     -160.15669     -128.23383     -160.15669      0              7588.0089      20.063504      20.139146      20.153637      0              0              0              8143.3156      8216.9665      8131.8713      6415.1889      188.10199      2199.9988      696.56556      20.063504      20.139146      20.153637      90             90             90           
     79500   263.55163     -159.32227     -126.24348     -159.32227      0              6853.0621      19.989688      20.267971      20.165179      0              0              0              8169.9307      10475.572      2120.558       7963.0566     -396.18615      458.99035     -472.8789       19.989688      20.267971      20.165179      90             90             90           
     80000   264.52151     -158.85517     -125.65466     -158.85517      0              4730.4762      20.100794      20.088978      20.355926      0              0              0              8219.8122      8203.6465      1478.5388      4509.2432     -76.700446      1224.6231      750.66079      20.100794      20.088978      20.355926      90             90             90           
     80500   261.05868     -159.37397     -126.60807     -159.37397      0              9573.5911      20.117737      19.780434      20.380107      0              0              0              8110.0102      9173.7138      10744.051      8803.0084     -1602.0083      224.99774     -172.70628      20.117737      19.780434      20.380107      90             90             90           
     81000   256.84297     -158.98978     -126.75301     -158.98978      0              6259.3912      20.187571      19.897724      20.510298      0              0              0              8238.7144      8805.5962      5238.363       4734.2144      109.50647      411.06435     -279.18324      20.187571      19.897724      20.510298      90             90             90           
     81500   257.69281     -159.66015     -127.31672     -159.66015      0              5309.9436      20.040014      20.065835      20.360878      0              0              0              8187.5088      5958.3946      5513.9349      4457.5013     -1672.8172      1310.637      -745.2972       20.040014      20.065835      20.360878      90             90             90           
     82000   257.99465     -160.2105      -127.82918     -160.2105       0              3230.3491      19.904799      20.071124      20.263267      0              0              0              8095.4118      5198.644      -1347.308       5839.7114      1398.0888      841.42193     -1794.8543      19.904799      20.071124      20.263267      90             90             90           
     82500   264.93734     -158.41619     -125.16348     -158.41619      0              7241.6008      20.086299      20.07209       20.336005      0              0              0              8198.9488      6198.1039      11353.02       4173.6789      983.93078      3429.245      -1428.6147      20.086299      20.07209       20.336005      90             90             90           
     83000   255.28784     -157.7973      -125.75572     -157.7973       0              3220.63        20.21393       19.973244      20.351929      0              0              0              8216.8421      3740.7887      808.05277      5113.0487      127.51749     -309.60559     -1370.5997      20.21393       19.973244      20.351929      90             90             90           
     83500   266.97926     -159.62313     -126.11413     -159.62313      0              6045.1066      20.016006      19.935896      20.311715      0              0              0              8105.1259      6149.6059      6817.5939      5168.1201      1441.7908      1728.6107      288.88421      20.016006      19.935896      20.311715      90             90             90           
     84000   264.26937     -157.91876     -124.74989     -157.91876      0              7520.3574      19.975875      20.089198      20.364347      0              0              0              8172.1983      5939.9488      9870.4336      6750.6897     -1572.9151     -3703.0806      3204.6911      19.975875      20.089198      20.364347      90             90             90           
     84500   262.43944     -159.21532     -126.27613     -159.21532      0              2893.3212      20.049791      20.023895      20.333954      0              0              0              8163.5725      3036.9073      2165.4837      3477.5726      1670.8711      930.6552      -1101.4777      20.049791      20.023895      20.333954      90             90             90           
     85000   260.45502     -160.02823     -127.3381      -160.02823      0              6596.8852      20.151046      19.959777      20.277207      0              0              0              8155.703       8260.5993      5858.8515      5671.2047     -1963.1521     -935.89544      1656.5247      20.151046      19.959777      20.277207      90             90             90           
     85500   259.94935     -157.71692     -125.09026     -157.71692      0              6384.2159      20.084086      20.017652      20.245846      0              0              0              8139.5642      5845.818       5609.4448      7697.3849      4451.8524      188.2064      -2609.8033      20.084086      20.017652      20.245846      90             90             90           
     86000   260.25372     -159.06161     -126.39675     -159.06161      0              2954.4483      20.008456      20.073019      20.317073      0              0              0              8159.9481      2604.771       2044.765       4213.8089     -403.36964     -2313.1056     -224.76473      20.008456      20.073019      20.317073      90             90             90           
     86500   261.33436     -161.06105     -128.26055     -161.06105      0              1633.9409      20.018906      20.123432      20.448382      0              0              0              8237.6125      191.33901      3160.6037      1549.8801      1752.375       560.04222      949.88435      20.018906      20.123432      20.448382      90             90             90           
     87000   256.66517     -160.35185     -128.1374      -160.35185      0              4481.7522      20.027973      19.886539      20.377664      0              0              0              8116.1598      4020.342       5063.0125      4361.902       246.42453      863.99415      1102.5085      20.027973      19.886539      20.377664      90             90             90           
     87500   252.38077     -158.88888     -127.21217     -158.88888      0              1578.2342      20.095848      19.931279      20.232581      0              0              0              8103.8761      2146.3141      1024.2753      1564.1132      140.89124     -1703.7271      1683.4954      20.095848      19.931279      20.232581      90             90             90           
     88000   262.16522     -159.72632     -126.82155     -159.72632      0              2861.6601      20.160681      20.267314      20.182394      0              0              0              8246.584       4316.8694      2196.1895      2071.9215     -1201.2103     -2201.8408      1633.8081      20.160681      20.267314      20.182394      90             90             90           
     88500   257.28933     -159.7426      -127.44981     -159.7426       0              2619.0338      20.002515      20.21079       20.193466      0              0              0              8163.5443      3413.8529      2967.399       1475.8495     -367.6608      -314.38586      1912.2118      20.002515      20.21079       20.193466      90             90             90           
     89000   245.39111     -160.04802     -129.24859     -160.04802      0              4648.8346      20.009356      19.871757      20.381354      0              0              0              8104.0554      7117.5257      3969.9694      2859.0086     -1037.2239     -1209.0433     -70.055954      20.009356      19.871757      20.381354      90             90             90           
     89500   251.00723     -161.30036     -129.79604     -161.30036      0              5532.8509      20.136386      19.74014       20.572855      0              0              0              8177.6087      7066.3922      7940.9102      1591.2504     -508.32314      81.944349      105.84244      20.136386      19.74014       20.572855      90             90             90           
     90000   250.07381     -160.40634     -129.01917     -160.40634      0              4760.1725      20.141814      20.003599      20.473153      0              0              0              8248.8129      3382.8108      6105.1186      4792.5881      460.75697      897.26152     -2007.4533      20.141814      20.003599      20.473153      90             90             90           
     90500   267.78499     -159.86583     -126.25571     -159.86583      0              7044.4695      19.957497      20.161217      20.124825      0              0              0              8097.5738      8263.5023      7798.0813      5071.8249      231.36374     -66.371916      188.3016       19.957497      20.161217      20.124825      90             90             90           
     91000   257.42051     -159.45341     -127.14415     -159.45341      0              7750.0027      20.072269      20.184781      20.140223      0              0              0              8159.8991      6424.6032      5375.9295      11449.475     -500.59956      3282.4688     -922.02211      20.072269      20.184781      20.140223      90             90             90           
     91500   251.19922     -161.73353     -130.20512     -161.73353      0              6609.5169      20.131204      20.009193      20.313279      0              0              0              8182.3745      3955.8144      6032.0276      9840.7087     -125.28147      888.13156      54.470592      20.131204      20.009193      20.313279      90             90             90           
     92000   254.44679     -160.02918     -128.09316     -160.02918      0              6276.6267      20.042021      19.949585      20.423882      0              0              0              8166.081       8170.3402      5826.8381      4832.7017      163.68471      2659.519       3656.7655      20.042021      19.949585      20.423882      90             90             90           
     92500   254.63003     -159.61805     -127.65903     -159.61805      0              6192.3016      19.99671       19.987393      20.352985      0              0              0              8134.7233      5612.5966      6169.8608      6794.4474      745.37429      676.47435     -3676.1766      19.99671       19.987393      20.352985      90             90             90           
     93000   250.12612     -158.51411     -127.12038     -158.51411      0              2465.397       20.165858      20.060978      20.366828      0              0              0              8239.3357      1851.0742      2113.3662      3431.7506      801.31513      1190.4965     -354.987        20.165858      20.060978      20.366828      90             90             90           
     93500   247.84144     -158.80702     -127.70005     -158.80702      0              8492.819       20.127058      19.943759      20.24991       0              0              0              8128.5001      8561.5287      10533.09       6383.8383      290.40402     -54.239727     -1225.0585      20.127058      19.943759      20.24991       90             90             90           
     94000   253.93757     -160.42896     -128.55685     -160.42896      0              4461.8213      20.077036      20.054612      20.271487      0              0              0              8162.0544      8785.2228      1985.5876      2614.6535      536.0683       2072.8408     -232.59229      20.077036      20.054612      20.271487      90             90             90           
     94500   255.89337     -159.84482     -127.72723     -159.84482      0              2994.6215      20.034479      20.247785      20.306455      0              0              0              8237.3912      1454.1106      2804.9457      4724.8083      2758.0107      2468.8274     -1200.0151      20.034479      20.247785      20.306455      90             90             90           
     95000   252.06402     -160.97891     -129.34195     -160.97891      0              8234.5136      19.851894      20.069802      20.235055      0              0              0              8062.1232      7767.9422      8496.4327      8439.1659     -1511.7332     -59.177323     -603.36161      19.851894      20.069802      20.235055      90             90             90           
[...]
    377000   247.66903     -159.39128     -128.30594     -159.39128      0              4886.5267      20.034433      20.109905      20.27304       0              0              0              8167.8158      3909.3291      5006.9703      5743.2807     -290.74861      2528.5867      286.70629      20.034433      20.109905      20.27304       90             90             90           
    377500   249.38929     -159.60648     -128.30523     -159.60648      0              6895.771       19.960328      20.029824      20.369997      0              0              0              8143.9626      8532.0326      4999.425       7155.8555      350.32034     -47.720208     -3337.7129      19.960328      20.029824      20.369997      90             90             90           
    378000   253.85366     -158.48036     -126.61878     -158.48036      0              2571.9558      20.065854      19.858918      20.477178      0              0              0              8159.8721      2164.4448      4306.2322      1245.1903     -1167.8576     -1585.0129     -735.34974      20.065854      19.858918      20.477178      90             90             90           
    378500   251.33458     -159.72728     -128.18188     -159.72728      0              4477.6383      20.214054      19.867989      20.442345      0              0              0              8209.9033      5355.7582      3405.0306      4672.126       1494.1074     -1122.2705     -1923.4075      20.214054      19.867989      20.442345      90             90             90           
    379000   258.0026      -158.88751     -126.50519     -158.88751      0              8630.63        20.044288      20.139604      20.234392      0              0              0              8168.3007      5771.6152      11493.948      8626.3272     -2092.8221      3400.9325     -940.75186      20.044288      20.139604      20.234392      90             90             90           
    379500   247.23422     -158.78381     -127.75304     -158.78381      0              4373.174       19.998605      20.222634      20.158182      0              0              0              8152.4622      4207.2427      3329.1632      5583.1161     -1413.9252      893.5293      -3245.5285      19.998605      20.222634      20.158182      90             90             90           
    380000   248.94779     -159.18886     -127.94302     -159.18886      0              4513.1299      20.11812       20.081907      20.306207      0              0              0              8203.9151      999.76212      6966.9586      5572.6691      679.06116     -851.38441      498.19568      20.11812       20.081907      20.306207      90             90             90           
    380500   261.83981     -161.40278     -128.53885     -161.40278      0              5409.198       20.139689      19.811136      20.408174      0              0              0              8142.6599      2498.3933      9932.1283      3797.0723      667.22871     -1885.6202     -340.44316      20.139689      19.811136      20.408174      90             90             90           
    381000   258.28979     -160.52655     -128.10818     -160.52655      0              4862.0671      20.068425      19.958263      20.516326      0              0              0              8217.4229      4839.7025      8366.3668      1380.1319     -1411.8612     -2026.5672      719.35355      20.068425      19.958263      20.516326      90             90             90           
    381500   269.76547     -157.4835      -123.62481     -157.4835       0              5528.4691      19.885493      20.262028      20.34542       0              0              0              8197.585       9366.1338      1611.1664      5608.107       1499.7447     -1279.5785     -649.82761      19.885493      20.262028      20.34542       90             90             90           
    382000   261.23887     -159.32576     -126.53725     -159.32576      0              1990.421       20.071734      20.261325      20.185147      0              0              0              8208.8941      2694.295      -751.42675      4028.3946     -871.75613      527.85602     -815.86933      20.071734      20.261325      20.185147      90             90             90           
    382500   269.07118     -158.22339     -124.45183     -158.22339      0              3482.1161      20.178968      19.918671      20.139211      0              0              0              8094.7187      3074.2634      3055.829       4316.2559     -371.94527      26.019362      680.12971      20.178968      19.918671      20.139211      90             90             90           
    383000   267.94841     -159.52404     -125.89341     -159.52404      0              5931.7843      20.23158       19.931661      20.443076      0              0              0              8243.6495      6310.3452      5824.5233      5660.4844     -567.2856       321.92311     -561.57518      20.23158       19.931661      20.443076      90             90             90           
    383500   272.22993     -157.74736     -123.57935     -157.74736      0              7267.8417      20.041145      20.025176      20.513736      0              0              0              8232.7256      5669.1951      5989.7796      10144.551     -1336.2757      2491.5071      2058.3793      20.041145      20.025176      20.513736      90             90             90           
    384000   259.50056     -159.55751     -126.98718     -159.55751      0              6369.345       19.891339      20.102522      20.442052      0              0              0              8174.083       6646.7728      5778.6115      6682.6507      855.51523     -774.40552      1898.3865      19.891339      20.102522      20.442052      90             90             90           
    384500   255.55307     -159.53316     -127.45828     -159.53316      0              2207.5942      19.966734      20.109766      20.352251      0              0              0              8171.965       2828.2114      777.82031      3016.751      -204.8665      -4659.167       1539.2419      19.966734      20.109766      20.352251      90             90             90           
    385000   251.53872     -160.14578     -128.57476     -160.14578      0              5855.9722      20.129139      20.098549      20.267567      0              0              0              8199.5784      4673.1675      5753.296       7141.453       1187.5436      308.68682      1691.3049      20.129139      20.098549      20.267567      90             90             90           
    385500   253.30905     -159.79858     -128.00535     -159.79858      0              6116.3296      20.097204      19.954832      20.226919      0              0              0              8111.7291      6454.8655      8259.8587      3634.2645     -1151.1764     -398.91321      297.00796      20.097204      19.954832      20.226919      90             90             90           
    386000   252.84366     -159.07872     -127.3439      -159.07872      0              3541.4366      20.062882      19.976558      20.404445      0              0              0              8177.8429      7684.9212     -261.83005      3201.2187      669.08021      363.31347     -1232.7087      20.062882      19.976558      20.404445      90             90             90           
    386500   258.59905     -158.64041     -126.18323     -158.64041      0              2565.415       20.02935       20.034238      20.558217      0              0              0              8249.4523      3170.9461      4245.084       280.21486      1543.0477     -928.95101      1062.0806      20.02935       20.034238      20.558217      90             90             90           
    387000   266.56637     -160.20013     -126.74296     -160.20013      0              6821.101       19.898025      20.036569      20.457365      0              0              0              8156.1091      7303.9639      5444.1095      7715.2294     -770.71052     -1148.4469     -1710.5666      19.898025      20.036569      20.457365      90             90             90           
    387500   262.90177     -159.37292     -126.3757      -159.37292      0              6635.3645      20.000717      20.043034      20.310652      0              0              0              8142.0337      7941.6667      6029.8476      5934.5794     -628.19834      1336.5316     -1319.4606      20.000717      20.043034      20.310652      90             90             90           
    388000   252.45602     -160.50124     -128.81508     -160.50124      0              5619.8521      20.218946      20.079396      20.169825      0              0              0              8188.6305      6752.6362      4524.2509      5582.6692     -1111.0031     -691.66663      1317.2772      20.218946      20.079396      20.169825      90             90             90           
    388500   246.08905     -160.38516     -129.49813     -160.38516      0              3296.4745      20.147238      20.083151      20.210105      0              0              0              8177.413       1920.2499      1108.1109      6861.0628     -816.61204     -1719.9019     -235.20122      20.147238      20.083151      20.210105      90             90             90           
    389000   253.51383     -160.61124     -128.79231     -160.61124      0              7574.6328      19.934253      19.925495      20.420658      0              0              0              8111.0825      9755.8887      9898.9091      3069.1007      1279.5944     -162.68273      3066.063       19.934253      19.925495      20.420658      90             90             90           
    389500   258.07083     -160.74413     -128.35325     -160.74413      0              7841.1217      19.95016       19.922898      20.614934      0              0              0              8193.715       7786.6667      10261.181      5475.517      -147.23154      1143.6296     -1820.1071      19.95016       19.922898      20.614934      90             90             90           
    390000   251.37246     -160.64748     -129.09732     -160.64748      0              2635.9695      20.039623      19.954866      20.497333      0              0              0              8196.6373      2145.9332      2631.3244      3130.6509      592.76397     -831.93536      1374.9703      20.039623      19.954866      20.497333      90             90             90           
    390500   259.32016     -159.04287     -126.49518     -159.04287      0              3378.9655      20.17927       20.001919      20.109209      0              0              0              8116.562      -34.691619      7880.7224      2290.8658     -128.01314      320.03867     -1173.4736      20.17927       20.001919      20.109209      90             90             90           
    391000   266.25361     -158.8517      -125.43379     -158.8517       0              3194.8007      20.328599      20.215659      20.032963      0              0              0              8232.6665      1419.9534      4717.1425      3447.3061      1909.3864     -1702.6798     -197.26273      20.328599      20.215659      20.032963      90             90             90           
    391500   268.52265     -157.00028     -123.29758     -157.00028      0              3419.3516      20.160361      20.151821      20.209319      0              0              0              8210.3995      3774.7729      3506.327       2976.9549      195.7697       356.90382      2593.5575      20.160361      20.151821      20.209319      90             90             90           
    392000   252.67443     -161.05241     -129.33884     -161.05241      0              7455.4539      19.925696      19.966179      20.435984      0              0              0              8130.2522      7595.1473      8791.9297      5979.2847      113.47386      1630.4251      2187.1253      19.925696      19.966179      20.435984      90             90             90           
    392500   249.19614     -159.94427     -128.66727     -159.94427      0              4383.4975      19.91102       20.00921       20.595337      0              0              0              8205.2601      6666.0008      3881.111       2603.3807     -135.28132      2139.6589     -898.35931      19.91102       20.00921       20.595337      90             90             90           
    393000   263.19478     -159.26573     -126.23173     -159.26573      0              7447.183       20.075893      19.978429      20.455672      0              0              0              8204.4595      5785.8166      10685.321      5870.4109      356.45748     -4339.1069     -811.4311       20.075893      19.978429      20.455672      90             90             90           
    393500   273.73454     -158.06341     -123.70655     -158.06341      0              830.63106      20.259903      20.012937      20.323566      0              0              0              8240.3959      304.8186       4214.8692     -2027.7947      378.4766       826.42033     -4074.1385      20.259903      20.012937      20.323566      90             90             90           
    394000   257.35269     -159.52311     -127.22236     -159.52311      0              6398.6396      20.092219      19.927732      20.108779      0              0              0              8051.4018      6189.8653      8470.1461      4535.9073     -1434.5436     -252.73062      1472.5791      20.092219      19.927732      20.108779      90             90             90           
    394500   249.86857     -159.50158     -128.14018     -159.50158      0              3306.4767      20.127018      20.156025      20.285066      0              0              0              8229.259       3630.8898      5365.7334      922.8069       764.09773     -736.64022      2990.0554      20.127018      20.156025      20.285066      90             90             90           
    395000   257.88371     -158.64195     -126.27455     -158.64195      0              3624.3419      19.986159      20.087026      20.321612      0              0              0              8158.3651      6993.7889      46.245361      3832.9914      822.20963     -389.6163      -907.42572      19.986159      20.087026      20.321612      90             90             90           
    395500   257.08572     -160.71575     -128.44851     -160.71575      0              4623.8409      19.933167      20.01357       20.391626      0              0              0              8134.9093      6071.0581      5099.9247      2700.5397      286.94397      327.243       -2726.0625      19.933167      20.01357       20.391626      90             90             90           
    396000   249.90951     -159.59878     -128.23224     -159.59878      0              4229.3697      20.019642      20.045131      20.442557      0              0              0              8203.5235      9778.0521      908.70676      2001.3503     -978.06843     -2544.2058      838.44557      20.019642      20.045131      20.442557      90             90             90           
    396500   259.97393     -162.13298     -129.50324     -162.13298      0              4056.614       20.124953      19.990433      20.336322      0              0              0              8181.4349      6190.3922      3724.1771      2255.2727      322.21662     -1081.0693     -19.280208      20.124953      19.990433      20.336322      90             90             90           
    397000   264.78248     -160.49378     -127.26051     -160.49378      0              4401.6577      20.155134      19.980934      20.303907      0              0              0              8176.7569      4942.9919      3708.8568      4553.1244     -710.89753      4317.4923     -486.50965      20.155134      19.980934      20.303907      90             90             90           
    397500   264.68001     -160.01473     -126.79432     -160.01473      0              5788.6966      20.099918      19.949266      20.31446       0              0              0              8145.6638      5349.3011      8107.4472      3909.3415     -324.7326       1412.7687     -1933.5152      20.099918      19.949266      20.31446       90             90             90           
    398000   266.40947     -160.44016     -127.00268     -160.44016      0              1341.1924      20.093589      20.093326      20.404021      0              0              0              8238.0634     -2226.1596      3503.3458      2746.3911      613.22363     -848.21807      615.36608      20.093589      20.093326      20.404021      90             90             90           
    398500   266.25567     -159.30711     -125.88894     -159.30711      0              8293.5653      19.917751      20.075726      20.272159      0              0              0              8106.093       4695.7858      10088.663      10096.247      849.31466      1322.0357     -2123.5517      19.917751      20.075726      20.272159      90             90             90           
    399000   246.23535     -161.30501     -130.39962     -161.30501      0              2105.5628      19.989103      20.129903      20.336463      0              0              0              8182.96        119.35811      5451.5159      745.8144      -114.47343      980.89447     -1067.6672      19.989103      20.129903      20.336463      90             90             90           
    399500   251.07269     -159.278       -127.76546     -159.278        0              6698.9012      20.211885      20.025052      20.343525      0              0              0              8233.9205      4039.2765      7979.7306      8077.6966     -747.89841      1308.0467      499.13046      20.211885      20.025052      20.343525      90             90             90           
    400000   251.42641     -160.30971     -128.75278     -160.30971      0              8427.5228      20.135248      19.83393       20.195753      0              0              0              8065.3981      7943.7283      10212.296      7126.5441      1406.2375     -1063.466       1465.4133      20.135248      19.83393       20.195753      90             90             90           
Loop time of 1430.34 on 1 procs for 400000 steps with 972 atoms

Performance: 12.081 ns/day, 1.987 hours/ns, 279.654 timesteps/s
102.8% CPU use with 1 MPI tasks x no OpenMP threads

MPI task timing breakdown:
Section |  min time  |  avg time  |  max time  |%varavg| %total
---------------------------------------------------------------
Pair    | 1064.5     | 1064.5     | 1064.5     |   0.0 | 74.42
Bond    | 0.031491   | 0.031491   | 0.031491   |   0.0 |  0.00
Neigh   | 231.79     | 231.79     | 231.79     |   0.0 | 16.21
Comm    | 9.9396     | 9.9396     | 9.9396     |   0.0 |  0.69
Output  | 103.72     | 103.72     | 103.72     |   0.0 |  7.25
Modify  | 19.259     | 19.259     | 19.259     |   0.0 |  1.35
Other   |            | 1.14       |            |       |  0.08

Nlocal:            972 ave         972 max         972 min
Histogram: 1 0 0 0 0 0 0 0 0 0
Nghost:           4673 ave        4673 max        4673 min
Histogram: 1 0 0 0 0 0 0 0 0 0
Neighs:              0 ave           0 max           0 min
Histogram: 1 0 0 0 0 0 0 0 0 0
FullNghs:       250926 ave      250926 max      250926 min
Histogram: 1 0 0 0 0 0 0 0 0 0

Total # of neighbors = 250926
Ave neighs/atom = 258.15432
Ave special neighs/atom = 0
Neighbor list builds = 40000
Dangerous builds not checked

unfix		3
unfix		2

write_data	data.final.${pid}
write_data	data.final.0
System init for write_data ...
Generated 0 of 1 mixed pair_coeff terms from geometric mixing rule

write_restart   restart.lmp.${pid}
write_restart   restart.lmp.0
System init for write_restart ...
Generated 0 of 1 mixed pair_coeff terms from geometric mixing rule
Total wall time: 0:24:12
