LAMMPS data file via write_data, version 23 Jun 2022, timestep = 23260000

2592 atoms
2 atom types

0 31.007999 xlo xhi
0 21.374731 ylo yhi
-0.8227837334333756 31.78324270541428 zlo zhi
-9.165637 1.013838609790052 -10.84404334923109 xy xz yz

Masses

1 1.008
2 15.999

Atoms # full

606 0 2 0 0.8765436774909281 9.301502376501363 3.811470967621343 0 -1 0
1224 0 2 0 5.912208539972375 18.385405669188433 7.4608953506260445 -2 -1 0
750 0 2 0 9.528145229309585 5.462257479206062 13.917770722919927 1 -1 0
238 0 1 0 -4.357551251164718 13.810979150347181 2.698511942373782 0 2 0
1133 0 2 0 7.9960872001768015 8.861186645485818 0.9674129164295102 1 1 0
872 0 2 0 4.659435459450759 8.890563668057265 14.793877836990918 -1 -1 0
218 0 2 0 -0.4043135834323036 14.992362339984195 3.615865154325011 1 0 0
1092 0 2 0 5.232236355184283 15.58344069455846 2.376427942420061 0 0 1
119 0 2 0 11.608867027998484 -2.3599274397284904 6.294488305718184 -1 0 0
561 0 2 0 -6.422613904859394 15.731445133862904 9.94297996653504 1 0 1
2460 0 2 0 -2.268348190554424 6.102728977978858 8.95453561625511 0 3 1
288 0 2 0 -5.836967155464796 11.745410389451745 9.487012938454669 1 1 0
70 0 1 0 -2.750409207560339 15.674857644159486 1.1800213539895834 0 -2 0
2458 0 1 0 -2.631836681667762 6.781462785069113 9.57305151204358 0 3 1
920 0 2 0 -1.9251853715507246 9.318872652994262 0.08042827898341176 0 1 0
527 0 2 0 -3.019305417685866 11.631170982263928 11.935515643285077 1 -1 0
1118 0 2 0 7.999362728966728 11.964039584333136 13.850873907426529 0 0 0
885 0 2 0 0.41661315274176863 15.201831912821415 12.916118934439812 2 2 0
355 0 1 0 -6.279886998267174 16.401737333296467 0.8334777150917003 1 1 0
1557 0 2 0 2.027162558656657 7.181309246914331 4.871980684227516 1 0 0
2547 0 2 0 5.349907735849532 15.967502139989348 6.609859958960082 0 -1 0
1315 0 1 0 3.5532476843330816 10.180458778769964 14.776415391430875 1 1 0
1340 0 2 0 9.77304233230704 10.104462912011499 -0.35978907877324434 0 -2 0
507 0 2 0 7.608004337322464 0.9679672096320671 10.61064220702485 -1 -2 0
1119 0 2 0 6.64894161253359 11.698956651656282 14.49240315212689 0 0 0
1099 0 1 0 9.545004525540516 8.447751077360861 4.40464557051961 1 -1 0
918 0 2 0 11.293521073056159 3.7388875829880153 7.027008390018017 0 1 0
930 0 2 0 -6.100226874407215 16.526812343808388 5.125644033137734 1 -1 0
2386 0 1 0 -1.1721523391469313 0.44536631245480374 10.405246300759735 0 0 1
556 0 1 0 -2.776361045485402 20.503209527267213 1.2011252142325888 -1 -2 0
1376 0 2 0 0.6633086053388568 6.7589645390093676 6.880685658593759 0 -1 0
2459 0 2 0 -3.0526431695374 7.343585639995057 8.870277239992518 0 3 1
975 0 2 0 0.42582710845540517 10.771567254961353 2.161775702972958 0 1 0
37 0 1 0 13.397887056915584 -0.25850692725600805 1.281753768009045 0 0 0
1141 0 1 0 -4.858538134897941 17.246980972426663 2.87717556491433 0 0 0
146 0 2 0 0.7624990403925237 -4.841305702723349 15.02883117710499 0 1 0
1040 0 2 0 12.289105800755191 1.8271664679632664 7.860085083072331 -1 -1 0
754 0 1 0 -2.145770826002402 6.687742528438391 2.2756541909886154 0 0 0
990 0 2 0 7.789978970388799 11.20707853877194 2.494655957139818 0 -1 0
296 0 2 0 4.692877598558936 10.714631360986369 8.943149708690028 0 0 0
929 0 2 0 -6.177509850713955 16.260230443877617 6.66667238371698 1 -1 0
392 0 2 0 4.079847699113845 7.642240842889162 12.24317140056947 -1 0 0
573 0 2 0 10.05729676394561 8.797725595324742 8.910772658885621 0 0 0
483 0 2 0 2.884707377571571 13.62904579974595 0.5254455097288582 0 0 0
743 0 2 0 8.64913910737388 2.3007958925314362 0.1756181792405871 -1 -2 0
1149 0 2 0 -0.5934645216305121 13.89061738048397 15.021934459894391 1 0 0
225 0 2 0 -0.6481954395332323 7.807253446095005 13.957459763612675 2 0 0
307 0 1 0 2.6391362275634016 8.37360247123128 12.716686776956683 -1 -1 0
191 0 2 0 9.31126639690735 9.94900550747364 11.56295201095536 1 0 0
24 0 2 0 2.4514859065368086 12.327342020419566 12.96858084844393 0 1 0
602 0 2 0 6.865045788331045 17.684883676033266 3.8025727926228408 -1 -1 0
668 0 2 0 8.058082512524393 10.359114680932372 6.256873938236425 0 0 0
720 0 2 0 1.04315928129656 14.428200386238197 1.4642851672783035 1 -1 0
834 0 2 0 2.4363082869065003 10.547019851821284 0.8068240331501582 0 -1 0
482 0 2 0 3.1765011070644618 12.252097288565691 -0.2792049373586629 0 0 0
552 0 2 0 -0.636727029949615 8.779559227623073 6.139967505541394 1 1 0
871 0 1 0 5.402769124469221 8.312576900104435 15.136306350576737 -1 -1 0
447 0 2 0 4.31699199412045 4.137516639459662 6.261669580672434 1 0 0
1339 0 1 0 10.243437309692004 10.65095307820669 0.2741795066310153 0 -2 0
745 0 1 0 6.125788983666782 -1.853008292233644 9.64140811848077 -1 1 0
786 0 2 0 1.557933857116855 -3.190128250085338 10.209290736180247 1 0 0
373 0 1 0 5.0527322552246305 0.1383431595958724 12.200685599506404 0 -2 0
2566 0 1 0 0.5169529101625847 3.150058559812938 1.2497653620159999 2 2 1
1219 0 1 0 -0.6369083244072642 13.722229508687445 1.3052751275048453 0 0 0
277 0 1 0 -3.1837766246280235 11.974961050393468 7.402403633160866 1 -3 0
1073 0 2 0 7.386672592974217 14.907206517159462 5.433265942215714 -1 -3 0
728 0 2 0 -2.190639170052201 4.4818427581340625 12.146348992810205 1 0 0
195 0 2 0 0.32961225761705404 1.3664504297047155 1.243496117017278 1 0 0
200 0 2 0 4.401165925723525 15.991169957401567 0.3164315107165909 0 0 0
733 0 1 0 6.330317668253382 14.918263765923102 9.272421802919956 0 -1 0
197 0 2 0 12.040151939229144 -3.15642942265446 14.818274288438374 0 0 0
72 0 2 0 -3.1605482365324606 15.892687543565279 0.33369610980355513 0 -2 0
902 0 2 0 1.2062998040798412 1.9005730357218669 13.001384131212564 1 0 0
438 0 2 0 -5.060846273593182 11.204671596410694 12.49347627757016 1 -1 0
354 0 2 0 2.7246282153088175 3.9237705329669086 10.388695797389092 0 0 0
110 0 2 0 6.17483177575947 9.52197090699572 2.898077886413819 0 -1 0
1209 0 2 0 -3.862473611614615 15.999791903750305 4.725662622267495 1 -1 0
973 0 1 0 1.3588345827599748 10.97282830899542 1.945286556517447 0 1 0
762 0 2 0 0.8040225723149128 11.555677719135915 10.651868039973543 1 -1 0
1238 0 2 0 0.38150653279573543 12.316724377495783 7.070140646370221 -2 -2 0
1048 0 1 0 -1.2732149523279623 13.931639307426705 8.240061832390872 0 -1 0
1117 0 1 0 7.44478933584513 11.194270908563972 14.150291248014328 0 0 0
804 0 2 0 0.30399649875105933 8.359568558669144 1.7489002871509776 0 -1 0
1375 0 1 0 0.6718109799476176 7.724486606153008 7.016292812896866 0 -1 0
164 0 2 0 2.7779927773703235 -1.731697043384572 14.103804000574556 0 1 0
734 0 2 0 7.240903245397833 15.078605768061315 9.445590972916698 0 -1 0
853 0 1 0 1.7598488974374715 14.860267266308806 8.2311244295181 1 0 0
1229 0 2 0 3.131310844221555 4.346377782045108 13.261411484036563 0 1 0
2388 0 2 0 -0.3101054430522444 0.6577639538743454 10.726553155804549 0 0 1
731 0 2 0 9.952512560117535 3.2334561849163332 11.436778353619559 2 0 0
538 0 1 0 5.658450897068278 4.19420262735056 8.906504017854463 0 0 0
512 0 2 0 10.802679360154272 6.2080048111415795 10.584023579245333 0 1 1
662 0 2 0 7.603130815975057 12.876042645918458 -0.4816591345240045 0 0 0
1176 0 2 0 6.5544202381922405 11.669818262813433 10.281873072480627 0 0 0
155 0 2 0 -4.380461359951023 12.965150256792677 6.768043466783771 2 0 0
241 0 1 0 3.4313331670127782 17.333331131528716 8.724829461331408 -1 0 1
949 0 1 0 2.3767345891361376 15.448580911763198 5.700157733400987 1 2 0
1012 0 1 0 1.5855689736026661 5.55341205643138 10.907623223820487 1 0 0
2486 0 2 0 4.359427780269384 18.553772143663235 -0.7343701649519501 0 0 0
80 0 2 0 10.847936285432496 5.389354847247931 5.396990738967444 1 2 0
513 0 2 0 10.12998618772519 4.86184634182373 10.030506493032739 0 1 1
1175 0 2 0 7.646407488828667 11.96012314442289 9.144010514220044 0 0 0
2294 0 2 0 -3.6593641291261076 14.783830929978246 8.939016115903874 1 1 0
624 0 2 0 -0.41019467759575984 16.944619837759777 7.586501435108712 0 0 0
954 0 2 0 -2.1209159500243175 12.124464020346132 14.6303348785964 0 0 0
1240 0 1 0 -4.117497943829528 9.795806356349413 14.939950254651185 1 0 0
1245 0 2 0 5.002814519564857 12.986674526383926 15.360216398995007 -1 -1 0
519 0 2 0 10.49233667962225 6.017424888944492 -0.2898315328890937 0 1 0
1569 0 2 0 2.09440603500745 16.249107917031115 1.9605346511712556 1 -1 0
470 0 2 0 -3.6270029656591025 9.08108670942842 3.6142337324175573 -1 -1 0
22 0 1 0 1.783294965521746 12.691933390816615 13.580192250771617 0 1 0
284 0 2 0 7.7512321513533715 -1.0516933808559115 14.960377144901221 -1 1 0
343 0 1 0 -4.798905007996146 13.255720259101574 -0.26038202574169256 1 0 0
328 0 1 0 6.861852800867855 6.40587198809518 2.3753526158742932 -2 -1 0
102 0 2 0 7.198098644239453 14.59549493374629 1.2335073590049976 0 1 0
1347 0 2 0 5.481769010503886 7.432574246204853 5.089598746356456 0 -1 0
924 0 2 0 -0.7173269599741636 -0.9192433644842182 9.661304396422276 1 1 0
1520 0 2 0 5.238095983287501 0.5401866010976542 4.858642581905119 1 0 0
374 0 2 0 4.083696865265978 0.006232061370279318 12.343731344812717 0 -2 0
465 0 2 0 5.1021476159309955 2.3904183887528254 -0.26022590373747045 1 2 0
430 0 1 0 6.411161413805207 7.210248054577084 6.648463732365666 0 0 0
787 0 1 0 2.2982894254083837 -0.5891736198803699 12.68547557922642 1 2 0
1237 0 1 0 0.9633647461980538 12.009726626083742 7.829483146906117 -2 -2 0
528 0 2 0 -3.0572653163568733 13.063416539090259 12.675996831951606 0 -1 0
382 0 1 0 5.979003773548446 15.904935927811902 12.3800589625098 0 -1 0
877 0 1 0 10.066536581885977 1.823048718999763 3.7872052209233056 0 -1 0
591 0 2 0 8.704606901998496 4.058886949563481 1.9940131387816407 0 0 0
1244 0 2 0 4.4838147427738475 12.956560463415407 14.008171640390124 -1 -1 0
116 0 2 0 1.623861313398664 3.187915395289286 0.07649299704079404 1 0 0
1262 0 2 0 1.6339147724011214 18.886121567275275 2.400481336977773 0 -2 0
861 0 2 0 0.7712363863812652 -2.375047530787396 12.411143960444202 1 0 0
1568 0 2 0 2.8857994441745736 17.334893451571634 1.2918458210181551 1 -1 0
749 0 2 0 8.219171649649018 6.265918579834396 13.720653311469526 1 -1 0
1345 0 1 0 5.171189376575956 7.6768758657062826 4.207829038701526 0 -1 0
1006 0 1 0 -5.32654485784525 15.38809978227193 15.219204043295118 1 -2 0
1239 0 2 0 0.2625280674628214 11.554487117434684 8.33922911682733 -2 -2 0
533 0 2 0 9.345716525364573 0.3670318092454562 0.5471574772373091 1 0 0
1639 0 1 0 5.252643782304118 8.839205947575234 1.500795716321134 0 0 0
1556 0 2 0 2.8101355471738847 5.806701809153472 4.850036711527075 1 0 0
330 0 2 0 7.378897011003861 5.659391072158412 2.7728603857430283 -2 -1 0
700 0 1 0 2.0934987506794687 13.143611117550739 4.017800487099076 -1 -2 0
601 0 1 0 6.30280976655259 18.247420701460662 3.274174933449423 -1 -1 0
150 0 2 0 2.201845226358541 -1.1181791081920243 3.9932668291658233 -1 2 0
364 0 1 0 -2.144857956356906 18.003695652299584 2.573129129462996 1 0 0
1272 0 2 0 6.179775335280638 9.795361947008615 11.42308912874626 1 0 0
439 0 1 0 2.311589057008976 5.68477860900988 7.974976513164917 0 0 0
240 0 2 0 -3.9901539335634313 14.634522184243004 2.3501957737497294 0 2 0
2522 0 2 0 0.0013326691636781351 11.553274616199301 13.85476151466567 2 0 0
93 0 2 0 -3.031556715985277 6.758476851638608 12.331288112110395 0 1 0
124 0 1 0 1.4605455811951569 10.561375413883123 5.030163911141035 -1 -1 0
693 0 2 0 1.21678318768494 -1.8997636565860865 5.647907662605377 1 -2 0
393 0 2 0 4.324364374238352 6.227460532036494 11.8015741747718 -1 0 0
106 0 1 0 3.37982771772566 0.6656301068779757 1.5104564366138051 1 -1 0
1143 0 2 0 -5.166421326486791 18.19183304488262 2.9135906451076896 0 0 0
874 0 1 0 12.131846811737827 3.738190125388418 2.451470670249255 1 0 0
824 0 2 0 -5.980018785165692 13.774962053021042 12.528558277536185 0 0 0
1053 0 2 0 -0.009734587510825676 4.316681570370614 5.797908452188791 -1 -2 0
2343 0 2 0 4.826305027482105 17.607545250562715 10.19191927921778 -2 -3 1
224 0 2 0 -0.41778491500201126 7.503791264256814 12.456461423707816 2 0 0
400 0 1 0 10.966789846815638 2.836214591143148 13.09865877180369 -1 0 0
742 0 1 0 7.961740679752486 2.5946922870530944 0.8246145063924364 -1 -2 0
888 0 2 0 14.092452368058897 -2.450692918358526 13.6181719634226 0 0 0
475 0 1 0 -5.412321428069363 19.891431913002226 3.2264469896605377 0 0 0
1134 0 2 0 7.815521629802933 7.801719722985393 2.0733377733679252 1 1 0
74 0 2 0 -0.47120742868641313 1.5297572863157365 15.145197117592875 0 1 0
558 0 2 0 -3.192411980481225 20.191166815792904 0.38094851987086487 -1 -2 0
1091 0 2 0 5.1215126543055325 14.189964012352245 1.8857252901798458 0 0 1
1045 0 1 0 4.829491024152156 12.854659121847543 3.2853488427319233 0 0 0
216 0 2 0 1.3854055173508257 -0.062377057707823536 9.292597200169896 -1 -1 0
391 0 1 0 4.6351813002175675 7.129229995922913 11.56129547254703 -1 0 0
1346 0 2 0 4.254552369859624 7.422589298754408 4.1254477084807135 0 -1 0
2557 0 1 0 -6.866379883420607 19.13342769466025 0.3233449369319381 1 0 0
747 0 2 0 6.247345262207645 -2.7658233982870404 9.911606251748612 -1 1 0
875 0 2 0 12.379346701296042 3.7418172448786278 1.5146749570867417 1 0 0
185 0 2 0 -4.94051351219918 14.275322978975145 10.441805632544947 -1 -2 0
251 0 2 0 2.291212938168442 3.0283777926677793 15.17969195449503 0 -1 0
525 0 2 0 -3.4862139840766746 12.775625888981633 3.888319645032925 0 -2 0
1180 0 1 0 10.758808699716255 7.699924006123857 7.995784508152884 0 1 0
338 0 2 0 10.02758051021102 -1.2127680078006395 7.293987770158537 0 0 0
111 0 2 0 6.9181680666298515 10.04509693692959 4.189893028061207 0 -1 0
1316 0 2 0 4.071338467211925 11.03447489075435 14.795334543047513 1 1 0
901 0 1 0 0.44475426439054583 1.4976743003081872 12.581692641825988 1 0 0
938 0 2 0 2.6122193845339825 1.8981206480887345 3.0629383531336725 1 1 0
932 0 2 0 6.744367188923611 18.04752125590431 1.5256488031252253 -1 -1 0
1125 0 2 0 5.297263998903477 0.832956838244963 8.838624320788645 0 0 0
2330 0 2 0 -5.878765111047278 14.407854970044669 7.731107164855517 0 0 1
551 0 2 0 -1.1832566582122532 9.958102812668233 6.817301033172852 1 1 0
1127 0 2 0 3.7203219389770394 12.115736951484052 10.710724241728434 2 1 0
2546 0 2 0 5.945975794380966 15.73591077489195 7.989462802912309 0 0 1
603 0 2 0 5.604887978139772 18.533520883906967 3.8999842654231083 -1 -1 0
1047 0 2 0 5.3772749996180655 12.016306145872926 3.3614411080766153 0 0 0
740 0 2 0 -3.502091280531542 7.475087835855 6.317405550230146 1 0 0
937 0 1 0 2.7962207072015834 2.7148029001563385 3.5785146502340694 1 1 0
608 0 2 0 -2.0872977550991125 9.080477268172732 12.01289306381733 0 0 0
1086 0 2 0 -0.6111690558502597 2.473776247957237 3.854675229956573 1 1 0
506 0 2 0 7.211800260425293 -0.45041355673317574 9.99514743313888 -1 -2 0
1064 0 2 0 4.472331067038662 7.092967319029408 9.79503212245772 1 0 0
427 0 1 0 3.826397571034512 14.799954004713614 13.377881332567654 -1 -1 0
1232 0 2 0 4.118791195762263 15.155814373699485 4.750878647958773 -1 -1 0
604 0 1 0 0.37012811030918025 8.581966233567277 3.4613630736498315 0 -1 0
1460 0 2 0 9.525421243969696 -3.5511089798532973 14.85041850441183 0 0 0
474 0 2 0 12.804365942865918 1.0656413564789415 4.559518783710961 0 1 0
1228 0 1 0 3.844474780940859 4.784214069464086 12.73326845709546 0 1 0
1260 0 2 0 6.869991156995115 2.0878089451810835 3.4858343421365428 0 0 0
755 0 2 0 -2.2070755046531243 7.5015926232100245 2.796143247206225 0 0 0
989 0 2 0 8.45359174945345 12.60202322150762 2.053216605441176 0 -1 0
223 0 1 0 -0.021593882251359664 7.368710299369195 13.319247816290021 2 0 0
138 0 2 0 4.508095368772992 -3.444177890213302 12.323261990325665 1 2 0
2559 0 2 0 -7.8061425464830325 19.208984003471667 0.45004131990790386 1 0 1
383 0 2 0 6.838687627549532 15.575195245799367 12.110858379097733 0 -1 0
26 0 2 0 9.126804539016762 0.5990711772403241 13.41325703761471 0 -1 0
410 0 2 0 2.5496812984789683 15.663522141197852 14.83995943471861 -1 -1 1
1270 0 1 0 6.089387878690569 10.736338225748945 11.77116009504521 1 0 0
879 0 2 0 10.703497813814247 1.2774392468663143 4.308042904861805 0 -1 0
847 0 1 0 -0.26800917773769184 5.212932302893542 14.728575696647628 0 1 0
1147 0 1 0 -0.651306502430809 14.312613773399672 14.149002460531719 1 0 0
1214 0 2 0 5.64517502769947 -3.775855406373987 14.986969835898071 0 -1 0
273 0 2 0 -1.1713896435268834 6.687475209921696 0.08897101175870048 -1 0 0
557 0 2 0 5.932529168765492 -0.06330847237899995 1.4475669859273435 -1 -1 0
437 0 2 0 -4.746544905066064 9.824329570967365 13.148420661300689 1 -1 0
196 0 1 0 12.839778338742587 -3.5073919028132425 14.329841396354865 0 0 0
1305 0 2 0 2.1440994160153695 -0.1744339222462563 5.968523431499334 1 1 0
521 0 2 0 5.804748294986187 11.970583211779601 7.608144939356613 0 0 0
87 0 2 0 7.638232505498287 0.37760227215642583 7.825268437156119 1 2 0
25 0 1 0 9.526694737161618 0.2837655957176901 12.618246742214899 0 -1 0
943 0 1 0 6.759949479636755 8.729277980284973 10.079148298422131 -2 2 0
472 0 1 0 12.264870306745339 0.3663632628322431 4.981252237194175 0 1 0
1640 0 2 0 4.454145274104937 9.331320767139514 1.4296887625568688 0 0 0
669 0 2 0 8.477273515297995 9.086489397599284 5.429657836525522 0 0 0
395 0 2 0 7.1200400188150725 4.255139880193857 13.645601646001232 -1 0 0
1106 0 2 0 6.4777607026772515 7.44837311333432 12.461405514471037 0 -1 0
1145 0 2 0 7.656057807346992 -2.180502450961614 12.854694047443182 0 -2 0
1317 0 2 0 2.782726857822138 10.261192316969666 15.34839462526186 1 1 0
1038 0 2 0 5.149052900333583 1.708749969716127 15.239478471160858 -1 1 0
520 0 1 0 5.399292949410165 12.297026162656907 6.808366792836656 0 0 0
156 0 2 0 -5.573834841496355 13.314676444363759 5.834028944571032 2 0 0
177 0 2 0 8.131287952975907 3.446233522739553 6.109289025710814 -1 -1 0
86 0 2 0 6.4318702318064584 -0.21050631269482478 6.959157984376621 1 2 0
105 0 2 0 -4.978292417854702 16.652566560627427 -0.5484395939652051 1 0 0
1128 0 2 0 4.424156901522109 11.505608150209998 11.922446747527404 2 1 0
607 0 1 0 -1.5856106686261011 9.882312970903993 12.228974135731095 0 0 0
408 0 2 0 3.660172517198928 5.641580300052299 1.648889341469916 0 1 0
2545 0 1 0 5.577736284628601 16.437195856307895 7.408948744736659 0 -1 0
1205 0 2 0 0.5706428220170211 8.404487691145494 10.068641776780659 1 1 0
876 0 2 0 11.19923732951384 3.865928375563369 2.444878403321316 1 0 0
81 0 2 0 9.779735168900926 5.594181737276456 4.2551018755250745 1 2 0
1016 0 2 0 12.338909724051701 -4.045227344209664 12.644941922475246 2 0 0
276 0 2 0 3.829174924290742 12.667111067949492 8.072000483372683 -2 0 0
1181 0 2 0 9.945426479993074 7.184637209141495 7.774113252846435 0 1 0
586 0 1 0 -0.7310657443114488 -1.0477067976641496 13.388071359135246 1 2 0
1215 0 2 0 4.374761827779255 -3.034486187877629 14.537203673149826 0 -1 0
436 0 1 0 -5.049924467916339 10.251067359695941 12.284536014937428 1 -1 0
656 0 2 0 -4.90086394845531 18.43811724154386 7.542016806181252 2 0 0
463 0 1 0 5.241660323040361 2.8202011790360944 0.5835965636699045 1 2 0
79 0 1 0 10.52816400619811 6.013737541665949 4.727676099964852 1 2 0
1041 0 2 0 13.771952892816849 1.6112564944075611 7.7080663843451465 -1 -1 0
622 0 1 0 -0.07740215724506316 16.63531945563857 8.464481740261983 0 -1 0
618 0 2 0 6.234442769956159 3.4107865404395437 7.375503669731259 -1 -1 0
609 0 2 0 -0.7211609333360638 9.989285571303459 11.89553857512584 0 0 0
1304 0 2 0 3.564757831344803 0.31497140791423606 6.210387494918148 1 1 0
148 0 1 0 1.5334052975490966 -0.5699532066671815 4.44141280892426 -1 2 0
1207 0 1 0 -3.216324900321043 15.612817203820805 5.345266654129454 1 -1 0
951 0 2 0 2.216720256082681 15.252479951516683 6.683214124954307 1 1 0
1247 0 2 0 9.124204419265563 -3.677892513559499 12.955052026165989 0 0 0
198 0 2 0 13.481878279271564 -3.9503441990851917 14.969064714671962 0 0 0
112 0 1 0 7.714840290151787 6.356750596065183 9.833645392649668 0 -1 0
957 0 2 0 1.364492956862381 2.654174183524809 4.737322690600312 0 -2 0
275 0 2 0 2.688786022039636 11.86784282598304 8.632569392162205 -2 0 0
827 0 2 0 10.598195993254556 -1.855128377525528 9.51950699607173 0 2 0
1243 0 1 0 5.070136582919548 12.438750160322549 14.55785352145112 -1 -1 0
922 0 1 0 -0.4663139755274502 -1.1762859197100994 8.716599537119249 2 1 0
873 0 2 0 6.095341076186063 8.29247827716106 14.481829103246563 -1 -1 0
1126 0 1 0 3.550463534783239 11.785646129441497 11.642754166932704 2 1 0
1124 0 2 0 5.086628562652812 0.5662960971688373 10.375535453292233 1 0 0
234 0 2 0 1.2937101752641258 5.968175709207179 2.98488633439285 0 -2 0
616 0 1 0 6.365710374172581 3.2375037396428965 6.401631520811006 -1 -1 0
1303 0 1 0 2.8097074239919344 -0.034987384256545795 6.728602833378464 1 1 0
760 0 1 0 0.943709167723708 10.606892142943126 10.734242624093364 0 -1 0
118 0 1 0 1.7404310326328327 18.577734098363727 6.763455577273389 -1 -1 0
2329 0 1 0 -6.440281497958014 15.103800989863748 8.13182521269787 0 0 0
426 0 2 0 7.711169121247759 1.7148344833894145 15.085077474327136 -1 -1 0
448 0 1 0 -0.181366332930203 13.153017430924018 10.668820545883468 0 -1 0
617 0 2 0 6.267166507988997 2.3039672736906343 6.240781003006485 -1 -1 0
444 0 2 0 -2.5127296069447635 18.11851676371352 6.496348094927288 0 -1 0
590 0 2 0 9.627750109364495 5.375587126113976 2.0367017928725524 0 0 0
1123 0 1 0 4.650783205577317 0.934118730066797 9.556585353088014 1 0 0
308 0 2 0 1.7232581743066584 8.032886866789859 12.991365631950513 -1 -1 0
1230 0 2 0 4.67205739012177 4.419931803810974 13.076775489744636 0 1 0
1065 0 2 0 3.839485235847699 6.464868395715051 8.54040537536881 1 0 0
113 0 2 0 8.305201490916525 6.152109127090478 9.092296795041099 0 -1 0
692 0 2 0 -7.512907553043863 18.153010541583043 6.312706735256618 1 -3 0
952 0 1 0 -3.0219147076014483 12.325870574477085 14.670547762351426 0 0 0
727 0 1 0 -3.0212513906864245 4.9318229379957454 12.38693647928377 1 0 0
802 0 1 0 0.3292779968074617 7.905918871079448 0.8339122613473624 0 -1 0
329 0 2 0 6.19209282068963 6.668583538572939 3.0093509746275307 -2 -1 0
701 0 2 0 1.742802095153292 12.34926316771615 4.4863403555579175 -1 -2 0
748 0 1 0 8.559644347148492 5.4348726526117215 14.09319606701782 1 -1 0
522 0 2 0 5.247520529403663 11.627299111465714 6.15581750530824 0 0 0
605 0 2 0 -0.4063370970443829 8.608860919852967 4.062940170720562 0 -1 0
217 0 1 0 -0.8691230608107807 15.711304938172717 4.001171500877727 1 0 0
919 0 1 0 -2.61251720296016 9.435616296042522 0.7707193615401318 0 1 0
501 0 2 0 9.574156999475859 -0.9835780827484524 3.9133996566141462 0 0 0
100 0 1 0 7.87207655218154 13.970225274342555 0.9857109700238316 0 1 0
1208 0 2 0 -3.645671737497357 14.773850912856574 5.629332469689706 1 -1 0
964 0 1 0 6.034233237659234 5.970410457808613 -0.12689559217570867 1 0 0
420 0 2 0 -4.145684806247319 10.161220165838959 10.893438098441019 0 -2 0
709 0 1 0 -1.6988705973603513 2.8782699198731 14.401692011388679 1 1 0
559 0 1 0 -6.171194347517965 15.71335731633542 10.88409522191717 1 0 0
176 0 2 0 9.230569569273321 3.361113147624062 5.034416373668516 -1 -1 0
955 0 1 0 0.6667251991839239 2.531661072866533 5.402330508085754 0 -2 0
944 0 2 0 6.727649354067641 7.819528774268543 10.101159918074949 -2 1 0
193 0 1 0 0.4674331992903874 0.6288274428968257 0.6715189196277003 1 0 0
1107 0 2 0 7.747478893748698 8.321333685582676 12.77018254441254 0 -1 0
274 0 1 0 3.505829428511248 12.303184642628997 8.91093075986573 -2 0 0
2581 0 1 0 10.968102159720443 1.4307487906618643 1.1368519263021828 0 0 0
50 0 2 0 2.8149125813717495 8.49155502996402 10.527210165048098 0 0 0
539 0 2 0 4.820299865884503 3.8923122456904258 9.215469739669079 0 0 0
85 0 1 0 6.63884708407593 0.5253272652150791 7.582574762976948 1 2 0
432 0 2 0 5.765353585915692 7.284045975022577 7.366344273514018 0 0 0
396 0 2 0 6.250660276862639 2.980870698889266 13.875322572643118 -1 0 0
184 0 1 0 -4.631489280336752 13.488682306958344 9.993678659778398 -1 -2 0
297 0 2 0 5.638841113261332 9.431996515738572 9.090619770185423 0 0 0
165 0 2 0 2.2831397866271286 -3.1432347783983023 14.664546696839778 0 1 0
698 0 2 0 -4.381722856532325 10.219965644032209 0.4065796681209439 0 1 0
108 0 2 0 2.6372263538101772 0.6816116184208387 0.9172958557163349 1 -1 0
61 0 1 0 2.989442774022645 7.029842198963034 0.9517546352064024 0 -1 0
723 0 2 0 0.2558033646916099 2.3874304068542114 8.654100068367038 3 1 0
171 0 2 0 5.623687366958932 4.244549225127672 3.334470932050616 0 1 0
39 0 2 0 14.257753602602465 -0.29085658853964613 1.7583611897492677 0 0 0
852 0 2 0 13.219115936118865 -1.6858126626921874 9.32879186936267 0 0 0
916 0 1 0 11.787041988151026 4.4544059029094605 6.567197662716685 0 1 0
1014 0 2 0 2.2588292857349366 5.889092304125519 11.491310218799251 1 0 0
540 0 2 0 5.556153838501274 5.1192265585190375 9.189214717610543 0 0 0
2558 0 2 0 -6.699807937035549 18.26356552049021 0.11810703018607849 1 0 0
1567 0 1 0 2.3048574671859012 17.22207222752051 2.0741380191544816 1 -1 0
101 0 2 0 8.62880989491175 14.591469734880691 0.8233349758720849 0 1 0
394 0 1 0 6.3049359277038795 3.7761485202646465 13.338285287209647 -1 0 0
360 0 2 0 12.859067346955262 -0.012645900567016533 13.323798083791335 -1 0 0
2568 0 2 0 0.6361715765434588 3.888189391646543 1.8623395291348679 2 2 1
1101 0 2 0 9.925797216264902 7.582153766836275 4.387980084154397 1 -1 0
860 0 2 0 0.8260748989225906 -3.883616283127352 12.654610541374039 1 0 0
499 0 1 0 8.956696727768152 -0.9922058075126077 4.691816145844294 0 0 0
375 0 2 0 5.549402432979011 -0.6749263447223157 12.305635633737673 0 -2 0
402 0 2 0 10.457719310644038 2.616211687379355 13.904380829439575 -1 0 0
825 0 2 0 -6.620281203679296 12.44618104636728 12.635429514690847 0 0 0
735 0 2 0 6.401041948429084 13.93976872096049 9.113427885495591 0 -1 0
710 0 2 0 -2.4042484892568923 2.7404852186438564 15.06129414753794 1 1 0
575 0 2 0 -2.7587082002278707 16.430003156869862 10.394304959822248 1 0 0
92 0 2 0 -3.875511984313142 7.420735279656862 13.30392703470024 0 1 0
738 0 2 0 8.37927331907556 10.24543227493302 15.257426608011578 1 -1 0
1233 0 2 0 5.336150067704066 14.322028357776205 4.150759462224832 -1 -1 0
942 0 2 0 -0.6821303995152297 17.105151523320913 5.320452434138486 0 0 0
120 0 2 0 2.045681007697432 18.09007337642576 7.495110100666439 -1 -1 0
440 0 2 0 2.340003843219783 4.960930998652598 7.282783700245366 0 0 0
1049 0 2 0 -0.8288879810809391 13.725189222084856 9.131572106064004 0 -1 0
705 0 2 0 -4.516969313803163 9.257465900191155 7.338895533688076 0 0 0
147 0 2 0 -6.888341240809207 16.008202209064486 14.526720232169524 0 0 0
2582 0 2 0 10.712015782948816 1.9266637054636795 0.3670511491189772 0 1 1
2474 0 2 0 11.273259040815594 4.543594669950168 12.978310439062033 0 0 1
1129 0 1 0 10.383547691332126 2.2846587413139883 8.052243831649347 0 -1 0
921 0 2 0 -3.103514581953421 8.61148872107372 0.7094317664281515 0 1 0
691 0 1 0 -8.198741768673527 18.820845950960752 6.33408158496518 1 -3 0
1052 0 2 0 -0.052676847246440395 5.3679245069336385 4.78214826901837 0 -2 0
126 0 2 0 0.8303859470107068 10.415517344422206 5.768859089973629 -1 -1 0
956 0 2 0 1.0891052886908237 2.343509228213439 6.24158146505493 0 -2 0
526 0 1 0 -2.738626311614761 12.571396208005318 11.907697408269447 1 -1 0
91 0 1 0 -3.273513322009678 7.605846246902635 12.59832427383556 0 1 0
365 0 2 0 -2.1342277830434218 18.907286300328153 2.1807615192509706 1 -1 0
2583 0 2 0 11.849725915205536 1.118025635632045 1.1942416772880429 0 0 0
1105 0 1 0 7.114310602492717 7.70410353613417 13.126073659032311 0 -1 0
237 0 2 0 -4.110445631720499 15.35592036952977 13.93615547914438 0 0 0
966 0 2 0 5.9066320088462785 5.041800003470326 -0.11858285687551007 1 0 0
221 0 2 0 4.214702052403257 9.698904224686276 6.554824026049129 2 0 0
236 0 2 0 -3.3436461261525414 15.971884916067822 12.720857164556858 0 0 0
43 0 1 0 -0.4684914451586449 3.776252081918086 11.599744812850663 1 -1 0
51 0 2 0 3.2738766415061793 9.01782167094354 9.188536026931374 1 0 0
1186 0 1 0 11.741823587955846 -1.4099653594413 12.364519841947981 0 1 0
1015 0 1 0 11.801684125775626 -3.966173153971412 11.846413838585324 2 0 0
366 0 2 0 -1.2479856339822541 17.990201639615286 2.946844830102179 1 0 0
1148 0 2 0 -1.5224914837861843 14.701866050831958 14.093874674690618 1 0 0
854 0 2 0 1.4113910784923753 13.943927579864797 8.275904535663466 1 0 0
823 0 1 0 -5.8527972559489445 12.93155599716955 12.97199747024909 0 0 0
1377 0 2 0 1.3872238632442335 7.994673782411699 7.567722936130876 0 -1 0
685 0 1 0 10.619128154273248 -2.149933504771465 14.917542476881072 -1 2 0
785 0 2 0 2.4272136556939747 -2.916096721586974 8.882099337625167 1 0 0
125 0 2 0 2.3242660524415073 10.382947154891347 5.42478535331111 -1 -1 0
1248 0 2 0 9.724135600062047 -2.924239951502212 11.658617087074386 0 0 0
353 0 2 0 3.5458679406457296 2.6717901042511265 10.427757683276337 0 0 0
1521 0 2 0 4.177162347574565 1.6833862521138598 4.628506909687331 1 0 0
384 0 2 0 5.7817814090827 16.681789612544108 11.865182264947817 0 -1 0
1080 0 2 0 -1.8762423982030725 11.343135375078768 3.3371611415419515 0 -1 0
995 0 2 0 -1.9384704892117193 10.117859781720576 9.346309943396639 2 1 0
337 0 1 0 9.38826900157091 -0.44020585301180315 7.198454301525144 0 0 0
803 0 2 0 0.40572606738365863 8.660093962032347 0.2515503615054633 0 -1 0
523 0 1 0 -2.9981041833206366 12.087803615467845 4.391721549915405 0 -2 0
1050 0 2 0 -1.5528845483942475 14.8504924136371 8.390089665282925 0 -1 0
585 0 2 0 9.158150849687726 5.112915657143617 7.072139548934931 -1 0 0
199 0 1 0 3.903160361934418 16.648686076282726 -0.2387793642074687 0 0 0
505 0 1 0 7.853817662180576 0.014621174916575885 10.603230622538247 -1 -2 0
2295 0 2 0 -3.9936969977910035 16.14606486355882 8.37059733567407 1 1 0
1131 0 2 0 9.734089137366066 2.5241727756947796 7.321307419688328 0 -1 0
1459 0 1 0 8.946687844159317 -4.215307205638782 14.436842035480497 0 0 0
406 0 1 0 4.13476274731709 4.91465007613396 2.142781371743145 0 1 0
945 0 2 0 7.6437298588312474 8.952822791347298 9.805454125242264 -2 1 0
1485 0 2 0 -1.2185023584859171 12.534982144840956 5.2574181710759165 -1 0 0
833 0 2 0 2.691242205376024 9.80892762737934 -0.6541251327222208 0 -1 0
797 0 2 0 -2.841189710884589 5.552758909231407 14.547558884956453 1 0 0
107 0 2 0 4.0254808437558065 1.28697086199075 1.1696132437448985 1 -1 0
445 0 1 0 3.5102717637812697 4.2707633588616964 5.739616615124378 1 0 0