LAMMPS data file via write_data, version 23 Jun 2022, timestep = 211300000

2592 atoms
2 atom types

0 31.007999 xlo xhi
0 21.374731 ylo yhi
-0.8109009896294985 31.77135997228291 zlo zhi
-9.165637 1.013099655327215 -10.836139473630729 xy xz yz

Masses

1 1.008
2 15.999

Atoms # full

1036 0 1 0 -3.7634701867698226 9.579014220408375 13.11989978763717 -3 -1 0
19 0 1 0 4.413506967275622 3.705651422832563 11.28220293783857 -4 1 0
1532 0 2 0 -1.822554336125633 11.72483205307465 0.6519926646841456 2 -1 0
624 0 2 0 -6.191260823646886 15.696463048443936 1.4526296055917607 3 1 0
2213 0 2 0 1.320614198286153 15.311166646926306 0.6590906625334354 0 -2 1
779 0 2 0 3.6283407878050724 14.641928102299467 0.9763003062095061 6 7 0
662 0 2 0 10.168035136202155 5.5690177699628745 5.252801480904609 2 3 0
202 0 1 0 -0.4232364003826924 5.807122052331262 11.40156627712209 -1 -3 0
268 0 1 0 11.960276008924309 0.2883546016731131 11.968996395338852 -1 5 0
1412 0 2 0 1.8460609904969898 7.521542034864396 12.561049587645304 -4 -5 0
263 0 2 0 -5.436948350820214 17.41119127668708 0.018684279512561908 5 5 0
648 0 2 0 4.42691348971919 15.805650454273106 13.511574653001137 -2 -2 0
2338 0 1 0 0.16277748529391656 12.648558721971295 1.136553203851911 1 1 1
1008 0 2 0 2.413308456671642 -0.7432358386218665 15.41421287187822 1 -2 0
2292 0 2 0 1.6718510537563769 6.356476734873184 7.509347687010557 -3 -1 1
281 0 2 0 2.1050602812235155 11.46095176824593 11.488906375543731 2 -3 0
50 0 2 0 -7.928887483804254 16.14549858675376 13.900111417055669 3 1 0
184 0 1 0 1.469613383638203 5.422260791530366 9.435403525781942 -3 -6 0
1234 0 1 0 4.0971455065698095 6.236430898638927 3.6818620774234176 -2 1 0
668 0 2 0 6.603457468513636 17.37109672715835 7.1221340181960855 -2 2 0
325 0 1 0 4.979165714322732 11.188943822319752 7.6654990219036865 -1 2 0
1698 0 2 0 5.283754292707955 0.9591242324255873 13.436101526092656 -3 -4 0
1112 0 2 0 8.794110724396585 11.56556963485411 11.376796238164054 1 -5 0
599 0 2 0 5.797535767878066 -2.3220744838919334 9.937897298213525 1 1 0
678 0 2 0 -0.7110575711091665 8.401066621515787 0.6475577710181126 2 -2 0
1460 0 2 0 5.732959155062467 -4.053324644762567 13.956008640871968 -1 1 0
394 0 1 0 -1.2646919340840532 14.538191335664182 -0.6057459448536415 2 -2 0
2248 0 1 0 4.594413988833749 1.3074770688302215 2.819100326173209 -1 2 1
465 0 2 0 1.0375581719677476 9.336915015007019 9.993657133516592 -5 -5 0
520 0 1 0 4.17832013916332 14.427171084923982 5.569711784586002 -1 0 0
717 0 2 0 5.277858605832907 14.967259230039724 11.407824248938628 2 3 0
566 0 2 0 8.507494538404313 7.277904874932663 -0.09461375863629895 0 1 0
30 0 2 0 1.2588953444672093 14.139852835780488 10.372292769076415 1 3 0
578 0 2 0 -3.107699955026125 6.578366675219597 7.39640266483673 -3 0 0
824 0 2 0 5.78748289847734 6.813668738601928 9.869236119592323 -2 4 0
643 0 1 0 2.9618967377547403 4.0335924417951805 5.342998490471006 4 -3 0
1533 0 2 0 -2.528381271591607 10.603245780220917 -0.050039291239819095 2 -1 0
848 0 2 0 -4.19414617659769 14.832114308723785 1.0404338494345504 2 -1 0
755 0 2 0 6.871843928848352 6.023945435899861 4.751704666568049 -2 -2 0
713 0 2 0 1.8679268960599642 13.890604815424183 7.759774068082338 -1 -3 0
796 0 1 0 8.212887926413654 1.650713371420684 13.625982332037944 -1 1 0
473 0 2 0 9.27024262136302 5.012257109828301 12.426983062507382 0 6 0
973 0 1 0 -2.22577592630891 16.518815817395055 8.344326056978554 3 1 0
2552 0 2 0 -1.4485841882358323 1.4128728412490776 7.770255403001594 4 5 0
1187 0 2 0 7.434579370367926 0.44517230438425326 12.675192063317269 -1 1 0
359 0 2 0 13.21108254094609 -3.0901917883976697 14.006893889208206 -3 -1 0
2342 0 2 0 12.15649423951704 -0.03038246724498317 -0.22513800781506743 -1 -1 0
31 0 1 0 -0.207387304036092 18.297196570621285 7.043823377549949 0 0 0
1216 0 1 0 10.315728111273955 0.19288934893494125 0.3262899209797081 -1 -2 0
1088 0 2 0 3.450069637008498 8.214502220116646 9.862575322041815 1 -2 0
1087 0 1 0 3.268810675285297 7.351156221707885 10.392723583702017 1 -2 0
585 0 2 0 -2.2069986416679956 16.128582367404896 10.839460252402063 -3 -2 0
949 0 1 0 3.3320851308103077 6.041450769327992 0.9856148930312882 1 -3 0
316 0 1 0 9.960840611898014 8.195246560927227 14.276615010036338 -5 -6 0
332 0 2 0 -7.074369136863948 16.741262221902655 7.304636900462139 2 -2 0
677 0 2 0 0.7145776850701488 7.707096712149512 0.39422754557044737 2 -2 0
960 0 2 0 -1.5178575118139541 3.308909124473585 11.261848602765049 1 -3 0
783 0 2 0 3.3310016190510785 8.399300056002534 7.588200386821411 3 -3 0
28 0 1 0 0.9964410311384271 13.627287926056603 9.582428436582079 1 3 0
900 0 2 0 -4.748206209394412 12.687774107432015 9.211111198412997 0 -2 0
349 0 1 0 -1.5956212645733565 13.625723759741435 8.90902612730129 -2 4 0
278 0 2 0 -2.5357448404388947 7.983468033843446 -0.15056143702671754 6 -2 0
1038 0 2 0 -3.045553714361268 9.296858110730387 12.532040226859644 -3 -1 0
306 0 2 0 3.4521610372428637 0.6628464481112831 1.3394917817583196 -4 -6 0
2519 0 2 0 4.207342966984048 0.4410605669360899 -0.3798965900309721 3 -3 1
1346 0 2 0 -5.502664115419973 10.147026028149725 12.34958346275874 -1 0 0
445 0 1 0 -0.6384993672209812 4.100762249094364 4.966110250187014 -3 -3 0
1037 0 2 0 -3.386007270967676 10.015924806197468 13.899986308103273 -3 -1 0
282 0 2 0 2.4888062071857506 11.252982728700738 10.032030237609012 2 -3 0
790 0 1 0 1.067956905352792 -1.5042617747432763 5.788360833070109 0 0 0
950 0 2 0 3.774643354057276 6.271175488892613 1.875583930470698 1 -3 0
428 0 2 0 -0.018750582765073572 1.0589763008795852 -0.03816151923062283 -2 -7 0
1084 0 1 0 -2.80159585732515 13.374747342589444 14.95992691008512 1 0 0
1145 0 2 0 1.5519904552659178 0.22992860315267238 5.3497587951672445 1 -2 0
635 0 2 0 6.424634654695816 11.167781201754334 6.592187536976005 2 1 0
1146 0 2 0 2.717902408475741 0.8391335482156581 4.567065568841443 1 -2 0
2387 0 2 0 11.672711842844645 4.257190265464638 9.508936292768757 -1 2 1
727 0 1 0 8.559908615809897 1.991576913657053 8.971929466578688 0 -2 0
866 0 2 0 2.9670536956059363 17.347272029569567 2.57557953203396 2 -2 0
644 0 2 0 2.6259556962660255 3.628645732560912 4.512428154028673 4 -3 0
811 0 1 0 -6.232694839820553 15.815967574780935 3.641836283299945 2 -3 0
814 0 1 0 5.8713657510015524 5.200469257509208 0.5571791893756797 1 -1 0
63 0 2 0 4.460674512472925 8.856191096689447 1.3486011286360937 -2 -8 0
38 0 2 0 5.621032435326459 18.507963595251564 4.704599464495043 0 4 0
597 0 2 0 6.623817339658161 15.276886691190589 -0.527842898096136 0 -5 0
2327 0 2 0 -0.1781659233648354 2.310108146615984 12.782021863331224 0 1 1
737 0 2 0 7.441826374351662 1.0393108058697313 -0.5909645050866624 1 -6 0
630 0 2 0 3.1436608464268847 -3.9743335274844225 13.375477726068798 0 -3 0
280 0 1 0 2.884733696113144 11.388652710079672 10.938419839529642 2 -3 0
1066 0 1 0 0.8050584892107145 11.712310132901269 12.70925227130464 -3 -7 0
68 0 2 0 9.105191228185234 5.586196170839724 8.194311039587774 1 8 0
474 0 2 0 10.578068268514587 5.575478567737484 12.777902499377578 0 6 0
899 0 2 0 -4.3393275191948115 11.587711354264624 10.174765132764367 0 -2 0
616 0 1 0 8.171456954846406 6.048858972179781 15.12894254391706 -1 -2 0
1057 0 1 0 1.911274880170561 10.986243208205288 5.543759216833198 2 5 0
1181 0 2 0 -4.023299281434825 14.224357943413152 7.37475860949686 -2 -1 0
468 0 2 0 2.5741638094513886 2.5498696338731635 9.272700557914607 2 1 0
738 0 2 0 8.063798025809009 2.468881630234276 -0.4101808886611212 1 -6 0
567 0 2 0 7.09870139731867 7.873529058733639 0.45595162827217317 -1 2 0
395 0 2 0 -0.6614501036801775 14.00928646234401 -0.05692027083364326 2 -2 0
886 0 1 0 10.295063765954323 9.957923823611605 3.9863377918729563 -1 0 0
411 0 2 0 -6.684421520316255 17.047819632172555 11.315897871851622 0 -2 0
719 0 2 0 -2.1736316668031694 7.625921022341388 3.3196560020400883 -3 -7 0
531 0 2 0 7.543565541390152 -2.452372921009758 13.518624418415236 1 -3 0
822 0 2 0 3.3599930251892194 5.752309007214909 13.071306874530809 -4 -5 0
342 0 2 0 5.585138010606596 13.723065211300604 15.224115105509746 -5 -2 0
1182 0 2 0 -4.005411563475874 15.178313179611148 8.629207629675873 -2 -1 0
837 0 2 0 8.58713401240964 -1.2400190152845627 7.090484809318387 0 5 0
1690 0 1 0 8.003285708769209 16.493692509010206 2.230978107303469 0 1 0
765 0 2 0 -1.7069550602652483 5.200605207671232 2.010153297125598 0 3 0
2448 0 2 0 -7.730101870347119 18.186105791563627 -0.281657408990599 1 0 1
134 0 2 0 -1.1686010671778357 19.23552153457061 4.492956075488461 -1 3 0
723 0 2 0 -3.3427521100768365 18.98504272837907 6.3071520868320095 -1 -5 0
1455 0 2 0 10.72881870173155 9.912876407661136 0.9694086842330487 -1 -3 0
628 0 1 0 2.3597289101727377 -3.9520357024214814 13.964967172080648 0 -3 0
367 0 1 0 8.365472933125615 11.071822550762024 8.491039433490853 1 -2 0
363 0 2 0 -3.3177558169681567 12.979827328209128 2.4419629991674183 0 1 0
354 0 2 0 -1.4528702915996135 8.560235793199103 8.046539377497808 -1 1 0
168 0 2 0 6.332694998211394 11.651376439668205 11.71390318342995 -1 3 0
541 0 1 0 0.627920255485859 17.265896581730612 4.554772408822352 -2 -1 0
2486 0 2 0 3.1430861131965564 1.2396486869211585 7.716193038883629 -1 3 0
2434 0 1 0 8.22458559031306 1.3668817721171276 4.6728180716741194 1 3 1
2162 0 2 0 -1.2077438002166958 10.994553830266131 6.681691023806306 0 0 0
1199 0 2 0 5.50461090453418 2.6841348762468655 10.13734318237857 1 5 0
292 0 1 0 0.9878560453209837 11.047843969307289 8.774634940773998 -5 -5 0
2219 0 2 0 -1.8163559457209535 9.919919924552403 4.291118719700427 -2 1 1
447 0 2 0 -0.3185941227952705 3.6078748481263423 4.202480115047981 -3 -3 0
849 0 2 0 -2.8302478198874446 14.515902965083612 0.4496937276798598 2 -1 0
681 0 2 0 7.274026985093104 8.716989087224698 3.4416891379244445 4 3 0
996 0 2 0 6.539293945387106 15.497989006328256 2.9070607570885105 5 7 0
1540 0 1 0 11.812328240228192 5.709177247968993 0.7358931964485507 -1 2 0
778 0 1 0 4.438869963638889 14.154220899445395 1.0737585138447179 6 7 0
1094 0 2 0 0.6268364070171719 4.70816171515776 0.21394680137845623 -1 0 0
1169 0 2 0 0.24878928851504284 3.4693329724658946 6.325758213793412 -1 -3 0
61 0 1 0 5.184735630547958 8.765878127436245 0.6498775149418552 -2 -8 0
2510 0 2 0 -2.670562037460531 10.518187980082832 8.634603977151897 2 5 1
2445 0 2 0 4.372276791949921 10.288078960691067 14.970628232016137 -1 -2 1
222 0 2 0 13.975402499692791 3.053062709571001 -0.19883231926011835 4 3 0
108 0 2 0 5.1836505463846025 -0.3576304286290872 7.843824935489208 1 0 0
1002 0 2 0 3.736114882402804 -2.8878278071684553 8.577428448023412 3 4 0
2294 0 2 0 10.251459102000247 2.0991399384289773 4.07309307683639 5 6 0
609 0 2 0 2.071690193861487 17.132131283869757 -0.31549793602093645 2 -1 0
1640 0 2 0 5.085817430910673 -1.6594735729782162 13.622653696295798 1 -2 0
482 0 2 0 13.855510968791009 2.786570425767031 2.8360186366106293 1 2 0
457 0 1 0 7.8024657597099125 3.988718174908365 6.05060538471067 1 5 0
1531 0 1 0 -2.161836404726021 11.478643273505286 -0.15759559567756853 2 -1 0
598 0 1 0 4.826151897824731 -2.592781748429847 9.939574968469168 1 1 0
953 0 2 0 7.243220492568412 12.698053460425507 1.8142258993163796 1 3 0
552 0 2 0 7.321672903269316 1.6337876410490229 1.5047314777231509 -2 3 0
466 0 1 0 2.001116135986188 2.947086770396862 9.945557204056312 2 1 0
234 0 2 0 -2.327925837751414 7.63400114678831 11.245002592179521 -5 -6 0
524 0 2 0 9.792954838586027 -1.7655750983911127 11.142266559072283 -1 -4 0
319 0 1 0 8.299961555667172 8.727049368221971 10.368131476376108 -3 -3 0
2531 0 2 0 0.974448885917224 16.328519987438725 9.397587612266335 -3 -1 1
629 0 2 0 2.690840442194251 -4.1672769293713054 14.845301746476798 0 -3 0
716 0 2 0 5.282337039811612 13.702769363406794 12.358603273177597 1 3 0
163 0 1 0 6.039990980816638 11.430457991752316 2.2656721140494662 2 -6 0
1111 0 1 0 9.447380015004942 10.856705686341236 11.580915617475668 1 -5 0
1086 0 2 0 -2.1713366145581006 13.63940852394529 14.246032448968442 1 0 0
1411 0 1 0 1.8611760383842917 8.03534737105934 13.383987747049227 -4 -5 0
2265 0 2 0 5.867178774730684 3.499568721181176 13.413781917807833 -2 -3 1
634 0 1 0 7.214968897494015 11.22858241880373 6.011107438270733 2 1 0
858 0 2 0 3.567053971230049 2.6862972094053177 13.738767836351732 -2 -4 0
456 0 2 0 -3.9713645923582597 13.61711217652364 10.906868465322919 2 -1 0
1628 0 2 0 -6.260706673247859 13.737126197997279 11.397049069026586 2 0 0
2218 0 1 0 -1.3325160465607797 10.418676425850744 4.9725725807395635 -2 1 1
89 0 2 0 9.642091369497267 -4.110306562267563 13.821877235045239 0 2 0
1207 0 1 0 3.459701811679531 -0.3917423886211817 11.047439103118638 0 1 0
1578 0 2 0 4.800135710983973 8.210740025406139 5.294336506786753 -1 1 0
2386 0 1 0 11.502410719788564 3.835082350270578 8.630398951582153 -1 2 1
967 0 1 0 10.442055173219845 2.6643079442156496 14.618025802089464 5 4 0
1186 0 1 0 6.823288728119236 0.07739417656402647 12.013271146703616 -1 1 0
2394 0 2 0 4.576964863654884 -3.7150091961195493 11.277152670360378 2 0 1
472 0 1 0 9.919099130667131 5.025380361206503 13.15927769876119 0 6 0
2212 0 1 0 2.14639742517652 15.340487321391665 0.1987571317158614 0 -2 1
270 0 2 0 11.323538061376235 0.9230704788156618 11.628219186894048 -1 5 0
2223 0 2 0 3.3448666310527386 13.408807096362937 14.492967846262816 -1 -1 0
798 0 2 0 8.934594498498349 1.814417984536579 14.239966826321467 -1 1 0
2270 0 2 0 9.074388196982312 4.762644678108393 2.08303297602868 0 0 0
913 0 1 0 0.6869930161578939 1.2417147893917635 11.699321183245935 -1 -7 0
257 0 2 0 0.33049198294595405 1.899232896176253 2.3903177065206407 1 3 0
107 0 2 0 6.4537277958212655 -0.4967191788981542 6.886086829354322 1 0 0
1180 0 1 0 -4.465599496444931 14.40840255562852 8.218659592198156 -2 -1 0
529 0 1 0 6.954039793365932 -2.510676728651549 12.70951928356031 1 -3 0
464 0 2 0 1.4834317453800725 7.92861184741957 10.193198541512112 -5 -5 0
789 0 2 0 13.090126611156588 1.3763482967194907 4.690702438565696 -1 0 0
1124 0 2 0 4.953632176397926 13.507707144694049 9.371008832844705 2 -1 0
992 0 2 0 -1.306267750881986 6.305517697673306 8.629391658714955 -7 -7 0
825 0 2 0 5.3878189256174895 6.020550347995593 8.69011653865191 -2 4 0
721 0 1 0 -3.739284178289843 18.083952754253005 6.326929027550545 -1 -5 0
1686 0 2 0 0.8201912516363248 0.30285494441482985 15.331401291791188 0 3 0
2482 0 1 0 -3.756671296625266 16.189693609767165 4.344441812760308 0 -1 1
589 0 1 0 4.1996801447816265 9.978709226134928 13.364052992122216 1 0 0
39 0 2 0 6.082544317938788 17.182300909969012 5.178165029188627 0 4 0
116 0 2 0 7.575561204738331 17.75425515746465 -0.4671128789644982 3 2 0
1489 0 1 0 10.116792868159157 8.72218462430962 6.588342354542837 0 0 0
530 0 2 0 6.916661942818474 -1.6433986310811735 12.338543992544103 1 -3 0
167 0 2 0 7.027368614530504 12.76206188493787 12.394990262400633 -1 3 0
1592 0 2 0 3.8857440826022804 3.7565676215838635 8.270080729490692 0 -1 0
883 0 1 0 4.135148343767093 -0.8663192288452759 4.357714986871075 -1 3 0
618 0 2 0 8.910173041443683 6.009458877698637 14.493662742769626 -1 -2 0
612 0 2 0 7.835241182178374 -2.4963013393476876 10.125117651914552 -1 3 0
368 0 2 0 8.394253775664124 10.289982286981129 9.087730986640182 1 -2 0
712 0 1 0 1.7789434725777622 13.605270904440696 6.810586218883065 -1 -3 0
75 0 2 0 7.128255933217294 13.985563312088404 9.791195771438536 3 -1 0
579 0 2 0 -3.91776295616613 7.723937121015085 6.66521303445651 -3 0 0
1058 0 2 0 1.5218809335252212 11.66753502327817 6.105861291277727 2 5 0
590 0 2 0 4.44434465480408 10.68615616068495 12.813596130572906 1 0 0
90 0 2 0 1.5235804078991873 16.50043877916478 12.941751547078296 0 1 1
2263 0 1 0 6.606527131162163 4.09954522292682 13.52272043347984 -2 -3 1
1067 0 2 0 0.4782746809822702 10.951945119256674 13.220758229465847 -3 -7 0
1120 0 1 0 7.5304212113574325 13.898394520242858 5.353501624323409 2 1 0
183 0 2 0 2.3462518496411406 8.838773432843782 3.132040070883257 -3 -2 0
361 0 1 0 -3.2888013779140213 12.13864195056792 2.914798088221228 0 1 0
37 0 1 0 5.335683426392703 17.583959584267003 4.775937423774607 0 4 0
2479 0 1 0 10.04483380231666 -0.7694932356541822 9.234255123909838 0 0 1
279 0 2 0 -2.6780313976317967 8.913881862695362 1.0803035364828104 6 -2 0
1059 0 2 0 2.692338151722725 11.412091658716058 5.187258768570899 2 5 0
968 0 2 0 11.322859710363302 2.2943885489630738 14.325098284156876 5 4 0
195 0 2 0 6.020558174884598 17.068162073431814 11.270090698739839 -4 -4 0
1083 0 2 0 13.803862927326307 0.5178734831186937 2.729906209682357 0 0 0
1233 0 2 0 -1.5216731870737794 6.900887894111412 5.459262477118969 -3 0 0
562 0 1 0 2.9817931294872166 3.489697241719148 2.5272637900639805 3 1 0
577 0 1 0 -3.054547908401005 7.205506666995983 6.61048039922109 -3 0 0
887 0 2 0 10.729781871456767 9.303886949615364 3.4385024774349366 -1 0 0
2363 0 2 0 -0.18957176009673032 -1.6374064233904653 13.12641025760174 4 2 1
718 0 1 0 -2.7157882305246726 8.372195174486162 2.912108393875434 -3 -7 0
277 0 1 0 -2.425780920718445 8.884691606911261 0.06818242065365665 6 -2 0
2242 0 1 0 10.796532243576184 -0.7859190133123988 2.9216784710779367 -1 3 1
611 0 2 0 8.27452275752478 -1.3638707046582064 9.191907661964223 -1 2 0
2481 0 2 0 10.676653344884862 -0.8779543801025689 8.526789084393068 0 0 1
2480 0 2 0 10.307941659689487 0.06914607947002027 9.631076922094747 0 0 1
564 0 2 0 3.3545413398913455 4.063399172006441 1.8193462450773343 4 1 0
610 0 1 0 7.490490740341794 -1.7588705565132516 9.607691990430098 -1 2 0
1593 0 2 0 3.635476140539262 4.935133524210892 7.448417147656391 0 -1 0
2568 0 2 0 11.206651216270421 5.228280849110282 7.464748629793421 1 1 1
73 0 1 0 6.785135027769228 13.339555033008724 9.179943184778903 3 -1 0
940 0 1 0 -0.09729566011774292 18.867663453821805 0.4482651905563504 -1 3 0
542 0 2 0 1.5664158991095847 16.989399100821895 4.644565577038337 -2 -1 0
1251 0 2 0 0.3486905324827686 8.9184805765161 14.102368610436255 2 2 0
29 0 2 0 0.07199062507074988 13.663412012808564 9.48130627594037 1 3 0
10 0 1 0 11.749551676314187 -1.391518224508543 7.522365107627259 0 1 0
857 0 2 0 2.247193010274799 2.2480788459927536 14.39473245472084 -2 -4 0
696 0 2 0 2.8235963791206147 11.462123326913378 0.21055761269860618 2 2 0
956 0 2 0 0.050045608697437 17.302175507735253 1.5419060292934863 0 -3 0
2355 0 2 0 7.054794297898075 -0.626624751289901 2.175016669977163 0 0 1
1712 0 2 0 7.100394774150279 3.951851748632643 2.5632573331592106 4 3 0
974 0 2 0 -2.675251079069095 17.068410272792256 7.6799773482517235 3 1 0
2392 0 1 0 -4.8757251630098075 17.057930670437557 11.999429802163055 2 -1 1
237 0 2 0 9.090060883883412 4.36193370022215 -0.21061129085739771 -1 -1 0
2567 0 2 0 10.758531131858721 6.74668380558025 7.037850076013413 1 1 1
3 0 2 0 5.5682526401587 10.72782555954211 9.470929356053713 1 1 0
2303 0 2 0 8.687167291538243 14.092266197223694 4.068006242465792 0 -2 1
2331 0 2 0 15.288970147248996 -1.1390270616272418 3.415948091405032 -2 1 0
1525 0 1 0 10.127778893799901 2.3055236512919874 11.427215468751344 -1 -4 0
2388 0 2 0 12.441042393679332 3.468750636219159 8.517107955794293 -1 2 1
916 0 1 0 0.3454127085280676 4.937781007706528 1.9119426745169923 0 4 0
1021 0 1 0 1.5990134178645063 13.435624890636655 3.3421288181524966 2 3 0
879 0 2 0 -1.0548237753310006 12.22555863091255 4.388617695925866 -1 -4 0
1316 0 2 0 6.780256264016459 7.969296824630929 7.737955677169694 3 5 0
256 0 1 0 0.198552798377691 2.1692826037898323 3.3037510580335123 1 3 0
2435 0 2 0 8.160573870087202 0.4854799558848759 5.036758980262775 0 3 1
1396 0 1 0 9.32960992944189 7.348922748666184 2.6213730004536657 -3 -1 0
915 0 2 0 0.03332182483796309 0.9010822427402436 11.068028270093766 -1 -7 0
1685 0 2 0 1.211169230645548 0.2889937369376048 13.952291140387187 0 3 0
986 0 2 0 6.97508982470785 15.202017620276681 6.53523484723835 1 2 0
2472 0 2 0 6.960130230495817 0.84746943509837 15.180577053458764 0 0 1
1627 0 1 0 -6.641799225552077 13.729402933477918 12.289024171801765 2 0 0
571 0 1 0 6.0016796111388375 7.973100203844811 11.424508862373289 0 0 0
836 0 2 0 8.410879233864204 0.05465689137675023 7.8145591137690325 0 6 1
164 0 2 0 5.625892702599387 11.493109400029473 1.4069134386533158 2 -6 0
1419 0 2 0 -0.2251992088164751 -0.9012924275926335 10.168764288282333 1 2 0
1126 0 1 0 3.0871201594404885 17.368195914708632 6.438950504458314 1 4 0
543 0 2 0 0.4220384207664921 17.182861556043417 3.5961114113391943 -2 -1 0
321 0 2 0 9.020575774960829 8.122173387324645 10.104210652750552 -3 -3 0
669 0 2 0 6.547508911275037 18.214763023121908 8.410425332548133 -2 2 0
88 0 1 0 10.48958952330044 -4.010159988161459 13.324175794007669 0 2 0
269 0 2 0 11.404364325750267 -0.47210905087774657 11.884319346110667 -1 5 0
1249 0 1 0 -0.32232318402046767 9.426310176977166 14.49867568029724 2 2 0
304 0 1 0 2.8242041459573946 0.28690602225364686 0.656327776537627 -4 -6 0
898 0 1 0 -5.019076199783208 12.31351776325274 10.077833171349763 0 -2 0
62 0 2 0 4.9650337312046995 8.008410598871105 0.18628890056550262 -2 -8 0
2430 0 2 0 -2.24699152356567 14.777939901764924 2.5713185970728896 0 0 1
1287 0 2 0 -0.7829516530508986 14.574533762072718 13.086080721797705 3 6 0
835 0 1 0 8.191347115298734 -0.3540754650266571 7.020131267517742 0 5 1
596 0 2 0 5.5226058185033216 14.126916494499822 -0.5391741885819257 0 -5 0
782 0 2 0 2.277697982020361 9.375445722258018 8.153113434305576 3 -3 0
2269 0 1 0 9.530217674833661 4.181781396923736 1.5029431177782393 0 0 0
467 0 2 0 1.6854945618857704 3.8183287346260557 9.577807019483673 2 1 0
352 0 1 0 -0.7890144190372985 7.9236948119998765 8.2418171212279 -1 1 0
12 0 2 0 11.976928553009055 -0.7812707402670727 6.807428714785239 0 1 0
433 0 1 0 0.45354696735741984 10.23077170137477 2.457776304141124 0 1 0
469 0 1 0 1.5054830087903572 5.207834724082425 13.326708343725858 2 6 0
1459 0 1 0 5.837765515146915 -4.562649078289814 14.7449914288604 -1 1 0
538 0 1 0 2.017494148459713 7.497740099631591 -0.6532719712165784 -3 1 0
954 0 2 0 7.376700004042847 13.418233462744746 0.4244120374297513 1 3 0
182 0 2 0 2.978252796046995 10.007400795713126 2.377488243790823 -3 -2 0
102 0 2 0 4.720745714340362 20.433404878156015 0.6544434078894033 -1 -3 0
285 0 2 0 7.363348442614665 4.88646736123265 11.683319902429519 -2 -2 0
341 0 2 0 5.831583621388551 12.634777209795681 14.129282734416899 -5 -2 0
165 0 2 0 5.348654002602022 11.795147169064569 2.9333494893670604 2 -6 0
1068 0 2 0 1.2458410369132857 12.274446772158523 13.334641762432257 -3 -7 0
1236 0 2 0 4.943600175645188 6.36865675334983 4.174036180007562 -2 1 0
720 0 2 0 -3.569478753782949 8.306563950126954 3.3582052683849533 -3 -7 0
647 0 2 0 14.2029947459174 -4.885397339071331 14.686322267297989 -2 -1 0
714 0 2 0 0.9782807423659231 14.147904405792996 6.62607516102462 -1 -3 0
1250 0 2 0 -1.035342323417252 8.821892501678972 14.491230511663003 2 2 0
985 0 1 0 6.228844730297916 15.677661264574596 6.986864871939137 1 3 0
2375 0 2 0 2.124483764886563 15.145979127052849 3.3168989671204914 1 0 1
884 0 2 0 4.578216900410169 -0.7095895040052638 5.211848590510974 -1 3 0
471 0 2 0 0.7678462117901614 5.373052982227907 13.954602314501667 2 6 0
2353 0 1 0 -2.3933102193730083 20.177634380128524 1.4657371470480696 0 -1 1
2393 0 2 0 -4.469666682873495 16.22132573917546 11.776597493759056 2 -1 1
2484 0 2 0 -3.811499715774819 16.798509550690017 5.136742329433071 0 -1 1
994 0 1 0 5.876116920255039 15.011001353981811 3.4565793510991174 5 7 0
379 0 1 0 1.2674006511362859 -1.9933700480465497 10.115361083824984 -4 -3 0
2587 0 1 0 1.2988548551627979 8.32808606883873 4.976886876971798 1 3 1
2220 0 2 0 -0.4249281890706975 10.144845887507321 4.670457692837732 -2 1 1
232 0 1 0 -2.0319699531002056 8.583599354249161 11.277181473268117 -5 -6 0
955 0 1 0 0.26872557529716834 16.62253650219095 2.1635486616820536 0 -3 0
2222 0 2 0 1.9431770395087509 13.713871324299795 15.121348049318694 -1 -1 0
27 0 2 0 4.731229665234053 11.59601202572787 5.317388599441819 0 -3 0
2518 0 1 0 5.191685311340129 0.4000343344273509 -0.48298890945922196 3 -3 1
729 0 2 0 8.716716352454718 2.8838273175852196 8.663253588148912 0 -2 0
1418 0 2 0 -0.6624469507077893 0.29640941160636736 9.179397935270224 1 2 0
914 0 2 0 1.0610220912414534 1.941878934468519 11.163544493762664 -1 -7 0
1218 0 2 0 10.305054671679004 -0.20025876085350625 1.2664464453062996 -1 -2 0
591 0 2 0 3.5143220328618865 9.41177639580769 13.00604963991498 1 0 0
20 0 2 0 3.49938920820629 3.7218012749952543 10.93083318192562 -4 1 0
1589 0 2 0 13.889802233937223 -0.6350578239131801 9.792096986578041 0 4 0
1 0 1 0 5.469279904904601 10.48964956880363 10.408922081024022 1 1 0
2295 0 2 0 11.479536167264797 2.655268801678999 3.363968946285218 5 6 0
1235 0 2 0 3.599406614598951 5.5410719466219645 4.1217241212899705 -2 1 0
1254 0 2 0 7.316699214487288 10.659288553925652 13.474749735437195 0 -2 0
1542 0 2 0 11.343741763156457 6.450585093594974 0.299108816946847 -1 2 0
241 0 1 0 6.082719873623028 7.643136428539454 14.102145952379747 -1 -1 1
283 0 1 0 8.15285254490562 5.238549552795243 11.286294020965801 -2 -2 0
991 0 1 0 -1.4266425338593913 5.306800889219513 8.538305750243627 -7 -7 0
429 0 2 0 0.559508114419481 2.51453225692764 -0.016029711546093117 -2 -7 0
2340 0 2 0 1.1073979143291384 12.513845528716056 0.8444055671105641 1 1 1
331 0 1 0 -7.6358211402175185 16.30021594851023 6.725588139291211 2 -2 0
340 0 1 0 5.218052579046512 12.982088731579918 14.761081625558438 -5 -2 0
1557 0 2 0 1.9717028134234165 -0.7755547663829927 9.077817995746862 -4 -6 0
942 0 2 0 0.573088387462713 19.460051179544724 0.10364978280052872 -1 3 0
1188 0 2 0 6.904009349385349 0.6430396353705703 11.216716626431742 -1 1 0
694 0 1 0 2.8111262491068216 11.884868278095587 1.0826183814226078 2 2 0
2589 0 2 0 1.7153136423198039 7.7276025084442175 5.620103339169222 1 3 1
521 0 2 0 3.453687926696886 14.149942667719543 6.22686984838856 -1 0 0
792 0 2 0 -7.702780192354265 19.18828993655775 5.245414688248665 0 -1 0
1588 0 1 0 13.787754882128295 -1.4422421909550245 9.209434572163097 0 4 0
2374 0 1 0 2.759828355537869 15.837543452401302 3.6369590222917774 1 0 1
2362 0 1 0 0.7915205254154674 -1.479955196620247 13.020239533079483 4 2 1
865 0 1 0 3.355283369772272 18.185389866773317 2.815232861609255 2 -2 0
463 0 1 0 0.7056271349628931 8.50156736838592 10.333359137264923 -5 -5 0
2161 0 1 0 -1.413352205586275 11.230875706530886 7.621987471571524 0 0 0
203 0 2 0 0.058606151184633914 5.358399828846161 12.129220803868645 -1 -3 0
1413 0 2 0 2.2125207315397866 7.491778710599571 14.033435011507958 -4 -5 0
294 0 2 0 1.1308213998035754 11.975834261489368 8.975128330822889 -5 -5 0
1040 0 2 0 10.048204763251395 -1.2173358361852662 15.003255427016892 1 1 0
500 0 2 0 6.256149210895459 3.283911755199068 5.562982080128947 -1 -2 0
243 0 2 0 6.84141255556504 7.045256617667659 14.24279706000469 -1 -1 1
305 0 2 0 2.114610309585715 0.9720821797695486 0.5359571657069775 -4 -6 0
181 0 1 0 3.0036613441704456 9.071587439939035 2.514768611628266 -3 -2 0
2339 0 2 0 0.2941951413895823 12.729020021456598 2.1324324552379057 1 1 1
641 0 2 0 -4.017642313638792 17.710353527188087 3.0602385605750038 -1 -1 0
1023 0 2 0 2.330451417319472 12.701515581200566 3.321155459131802 2 3 0
1000 0 1 0 -6.056010007573012 18.257191713687387 7.881993309721844 3 3 0
425 0 2 0 11.670978582141544 -3.55503496050849 10.878967969362945 -2 0 0
194 0 2 0 4.914971520789558 16.803289205715163 10.333896256802207 -4 -4 0
2511 0 2 0 -2.883044345731543 9.652431315562424 9.957001344131713 2 4 0
2473 0 1 0 -0.1625296815077581 5.907290516389198 15.193576627374487 2 0 0
623 0 2 0 -5.967161438656634 15.145816480589577 -0.01721262617399555 3 0 0
1713 0 2 0 6.444151399551731 5.213307768609264 2.5023924693544495 4 3 0
1081 0 1 0 14.460094194170788 1.1989060174868937 2.701758198737972 0 0 0
608 0 2 0 3.2730005525466135 18.066158372474785 -0.7742516591863103 2 -1 0
427 0 1 0 0.5437645638648476 1.6497773214667963 0.44512802315558186 -2 -7 0
2429 0 2 0 -1.370136586288015 14.404253596330634 3.8284414181670376 0 0 1
1103 0 2 0 -3.6255386964107097 12.93677938989938 5.666181967027116 2 -5 0
523 0 1 0 10.19815411017207 -1.6446043202148504 12.01228694341523 -1 -4 0
760 0 1 0 -0.871565600054275 16.03270041347583 14.271310988916332 -2 -5 0
1720 0 1 0 10.685895538074773 1.6888959986510645 6.4881858302928865 3 7 0
1253 0 2 0 8.505009126000415 9.704905608125369 13.752401333036083 0 -2 0
446 0 2 0 -0.6659408852149584 5.052598800752806 4.706582823478216 -3 -3 0
424 0 1 0 12.60209130861949 -3.4383403456679043 10.971795806400536 -2 0 0
1639 0 1 0 4.150668173199635 -1.4156159191579452 13.602529088737402 1 -2 0
572 0 2 0 5.788225532831969 8.872675936904027 11.098528007989188 0 0 0
622 0 1 0 -5.661535236606296 15.780463101132385 0.6801498026802519 3 0 0
333 0 2 0 -7.432983781731337 16.72855049675656 5.895411520971258 2 -3 0
204 0 2 0 -1.3156633276964702 5.510970462390801 11.298519852844304 -1 -3 0
72 0 2 0 11.97655070883253 3.324541031407339 11.385049693479298 3 -4 0
262 0 1 0 -5.127322683663399 18.300926123313417 -0.23438112388874066 5 5 0
426 0 2 0 12.70295865171314 -3.039059831877808 11.81223438258191 -2 0 0
2553 0 2 0 0.017584843361177327 1.695973518282761 7.5924847692307385 4 5 1
1556 0 2 0 1.6134490508457224 -0.6000420393251917 7.574574756308987 -4 -6 0
2588 0 2 0 1.7352642019305673 9.218576924122992 5.151996831349214 1 3 0
715 0 1 0 4.69813103656197 14.312213038250082 11.85986691236377 1 3 0
995 0 2 0 5.3253444015363485 15.717898281931621 3.761727977535987 5 7 0
540 0 2 0 2.5122642000343984 6.9179291347919385 -0.0008591049821620178 -3 1 0
1490 0 2 0 9.776886102085308 9.061310971418193 5.783240172473619 0 0 0
847 0 1 0 -3.350717471980468 14.464476558040609 1.2749719998531899 2 -1 0
106 0 1 0 5.512643483881894 -0.6168764314443098 6.956317295388974 1 0 0
186 0 2 0 2.2859894949077346 5.839458482924838 9.809683626376085 -3 -6 0
434 0 2 0 0.17417665452215697 10.905135120592407 1.7841081713811215 0 1 0
722 0 2 0 -4.599611875903524 18.211927793025062 6.8573231124625105 -1 -5 0
1022 0 2 0 0.9364740915437457 13.155430380285294 4.021284832795153 2 3 0