LAMMPS data file via write_data, version 23 Jun 2022, timestep = 143196000

2592 atoms
2 atom types

0 31.007999 xlo xhi
0 21.374731 ylo yhi
-0.7810022008584134 31.74146122051052 zlo zhi
-9.165637 1.0112403336099176 -10.816252121647546 xy xz yz

Masses

1 1.008
2 15.999

Atoms # full

257 0 2 0 8.214418926417999 0.38369809193064963 13.306635648115966 1 1 0
1686 0 2 0 6.128817072654352 1.0674922015615174 14.298906277768388 -2 1 0
331 0 1 0 5.6657340402948435 1.0952615255581124 6.269350709694686 1 0 0
301 0 1 0 7.4548503697235615 12.060921019434963 9.644063259003685 -3 -7 0
1 0 1 0 5.3328501833879365 9.131186371707098 12.894194073723618 2 0 0
1269 0 2 0 -7.11644021538508 16.972968784952123 7.730788638830827 0 1 0
2439 0 2 0 -1.5662955406107435 0.9948924933981447 15.366606156884057 3 3 0
358 0 1 0 -4.778246195981166 14.589479119620679 9.847734628988714 -1 -1 0
512 0 2 0 0.6215052151818377 17.83982335459033 6.714253411205374 -1 -1 1
946 0 1 0 -6.089230219277514 15.427617428273592 1.950299963094805 4 2 0
343 0 1 0 5.824153628098224 16.727456010843213 3.2491444490661534 1 -5 0
711 0 2 0 -4.920110209344868 17.349829007077624 8.050226880905969 6 4 0
618 0 2 0 5.255149940964266 5.384270270652224 6.172087732595955 -1 -1 0
67 0 1 0 0.952785583582004 -1.8563561225371665 12.363762451735917 0 7 0
672 0 2 0 13.562125133239647 -0.5217096151284917 10.41388551993511 1 0 0
1119 0 2 0 7.353872771415185 6.024361545776107 10.167122201862481 -1 -7 0
1418 0 2 0 -5.20168612268623 13.079755148069479 0.7175289187237084 0 0 0
622 0 1 0 -2.7067180729907534 11.23640730864064 -0.6013801175726378 1 -1 0
274 0 1 0 -5.862868337693357 12.042776421691268 14.709911871691665 -3 -1 0
2335 0 1 0 0.11761060665100667 11.41173905791614 4.660699684587267 3 2 1
165 0 2 0 3.9966420929888677 6.123417157393758 1.4079848160511803 0 -6 0
1197 0 2 0 3.9355274815168313 13.57035971517212 14.36608110177951 1 3 0
89 0 2 0 5.208289471232084 -3.9017706654498565 11.216582232535004 0 3 0
498 0 2 0 12.587124852297885 2.158716282532666 1.6445850811143559 0 -1 0
129 0 2 0 7.1907655274606626 9.82603091494379 13.244559433427032 1 0 0
101 0 2 0 -1.7623521981872161 2.656041118324292 11.414086719656702 0 -2 0
460 0 1 0 4.626491275012382 9.179407100592709 -0.07569172370347255 2 -2 0
770 0 2 0 0.4451407733468751 7.770835997497959 0.14339132619369 4 -1 0
300 0 2 0 7.3169091599663965 11.279276028944055 2.4609045024594582 -1 0 0
1279 0 1 0 -1.5131455895211072 11.599936073430069 1.7843493483142066 0 -2 0
1001 0 2 0 5.956765823628118 13.323272679992865 15.339283675483593 2 2 0
608 0 2 0 9.615560526503007 2.1885802330999002 10.669251410687352 0 -3 0
1185 0 2 0 -3.0456700310021203 10.805177644556075 14.909924862713527 1 3 0
1396 0 1 0 10.94942441722082 -0.1557335473730257 5.345256954425539 -5 -1 0
291 0 2 0 0.23617646596079656 2.9865308996027267 14.296362907707664 1 2 0
1555 0 1 0 5.5307431555530115 10.64961244985551 8.142825466816166 -1 -3 0
1482 0 2 0 -6.314230125411976 14.431474957040187 7.122148505270847 -3 -3 0
1000 0 1 0 5.360261957272728 12.818555743669942 14.804243717608896 2 2 0
551 0 2 0 5.440708417824288 16.231244611281625 6.823502347922551 -2 0 0
364 0 1 0 -0.6450561776339439 7.392360714780968 4.74643700554449 3 4 0
2443 0 1 0 7.5431238730836245 3.2397306731596904 12.71583115161415 -2 -1 1
793 0 1 0 10.944203488680193 -3.6939760010258365 13.285534504477216 1 3 0
521 0 2 0 -1.6701821417693599 13.766237331898557 3.2112149011693467 0 1 0
1268 0 2 0 -7.688837372752243 16.394880338450328 6.39185385150564 0 1 0
911 0 2 0 4.649206420656034 1.0236586921477464 12.260015975595843 -2 -2 1
1449 0 2 0 -4.315350375276616 17.852776913943025 -0.45014073366617846 -1 0 0
930 0 2 0 10.55316681789837 6.220167887840442 7.755526257509731 1 -2 0
713 0 2 0 -1.3842284477412397 15.413965067136473 12.560065474091745 -1 -1 0
491 0 2 0 2.48568044531944 2.6864831269010434 10.072188820658317 2 3 0
191 0 2 0 2.7393208347982863 -0.6435170739539986 14.40959263521041 1 0 0
1049 0 2 0 11.000697955123822 1.372981815813532 -0.5387094527430243 0 3 0
141 0 2 0 -5.9285537525248815 18.84424630854599 2.4592345637050577 2 0 0
786 0 2 0 5.108523426092404 6.74625938006204 14.770337251776192 -1 1 0
360 0 2 0 -5.151584378650496 15.03643388217226 9.020602755995407 -1 -1 0
867 0 2 0 6.439678147094393 13.57706998551064 8.613332989666732 2 -1 0
83 0 2 0 14.017982998349305 -1.9052709785843265 4.970536375508193 0 3 0
1341 0 2 0 -0.3903743738781059 13.432074645778592 7.176249101056003 -2 -3 0
1237 0 1 0 6.392757320276753 7.0971905335116405 4.163288107111379 -3 -1 0
148 0 1 0 3.018604520759002 2.3616827015854476 14.478388123999926 -2 1 0
277 0 1 0 -4.722973218950883 15.374940902224004 6.808321183570744 4 -3 0
1685 0 2 0 6.2178064335341 2.223956364285643 13.37394269235131 -2 1 0
705 0 2 0 3.5028375213903296 -0.08462188156681494 4.29499431840542 1 -1 0
345 0 2 0 5.840569332221952 15.811747287858674 3.4381497984309384 1 -5 0
173 0 2 0 8.29795277486899 1.6168936947106936 4.2037404297603365 -3 1 0
777 0 2 0 3.6490215378189585 7.987177893825923 10.846548600228145 -3 -1 0
923 0 2 0 2.93933353445829 3.4129499978877247 2.907819678645287 0 1 0
592 0 1 0 -3.249655641287486 18.437104285789253 7.189971379610694 0 -2 0
1169 0 2 0 -3.547412293958568 13.477377822775804 8.565074461377092 -2 -4 0
628 0 1 0 -2.4725366760170666 8.648654376742863 0.20771902052517421 0 -4 0
2197 0 1 0 -0.41030251263470563 1.4731262226666715 5.706292317275834 3 1 1
745 0 1 0 13.513289901081562 -4.1177910076292505 14.43691360684498 -2 -1 0
16 0 1 0 0.09587844473175905 4.038606020447995 8.642031762308742 0 2 0
2234 0 2 0 5.584177204749284 4.940962660653142 0.35843695378608476 -1 -3 0
715 0 1 0 12.354124355064304 -3.0514636252144927 8.833978949589184 1 5 0
2362 0 1 0 -2.8364976559380484 10.741875919119702 5.717134957545157 4 3 1
1238 0 2 0 5.8258936212490635 7.660860718685857 3.608573797812155 -3 -1 0
1132 0 1 0 9.083418101690727 0.3631732455219888 1.797854971829218 5 5 0
333 0 2 0 5.7412041526449995 0.40893186644429935 6.93017611830197 1 -1 0
582 0 2 0 3.305567452604533 11.470612498681563 1.7246043255110388 3 2 0
538 0 1 0 11.49338513075869 0.6081125218972794 12.181345561314698 -3 0 0
1374 0 2 0 3.3218884390879775 12.443879987338804 11.354108533688807 -1 0 0
1171 0 1 0 -7.468452212093684 16.1438045256906 10.559166165996091 1 2 0
590 0 2 0 2.7917423479016827 15.647394186398008 0.8554105625820589 -1 -3 0
133 0 1 0 2.5085431877672226 -0.3603378041823535 8.36646619219781 0 4 0
655 0 1 0 -1.4416952990915406 18.44497267842054 0.6095943568556421 -1 -2 0
126 0 2 0 2.6209457259278066 11.085226792530545 -0.6330669445904138 -1 -3 0
685 0 1 0 -4.214970735505018 13.130292701876549 5.133643627604464 -1 1 0
1036 0 1 0 8.167193902656997 9.551908580724252 2.067817158112034 -1 -1 0
1628 0 2 0 12.554455051316149 3.9704148199344305 9.68305304474405 3 1 0
1556 0 2 0 6.064564314517973 11.405958674958903 8.44031602237664 -1 -3 0
1221 0 2 0 3.9465012639567805 7.960386373881996 6.988634689480766 -2 2 0
184 0 1 0 12.595597120060473 0.4933726739154049 -0.554896767059438 -2 -4 0
630 0 2 0 -2.6393740207481398 7.9813565210377195 -0.5760576688125466 0 -4 0
990 0 2 0 2.564181775793173 14.439858937755897 6.96824718089329 2 -2 0
335 0 2 0 12.667851238255256 3.5684379078844604 5.773457580391755 2 -5 0
134 0 2 0 2.3629644126871243 -0.602929371738631 9.262779760614487 0 4 0
1068 0 2 0 3.98341152979608 16.048784818814582 11.206750692721842 -3 -4 0
1158 0 2 0 -0.856273625411621 15.999840763277218 1.5262916174998034 1 2 0
616 0 1 0 5.548534739419015 4.92688763017207 5.3916769235601 -1 -1 0
289 0 1 0 -0.03419904933280882 3.290455545816231 15.173559334769052 1 2 0
462 0 2 0 5.363732054371958 8.578683575710963 -0.012664040433909562 2 -2 0
452 0 2 0 -0.6698002625668456 13.269720634386605 13.786054881117824 -2 1 0
361 0 1 0 7.716883499100093 10.724077795512043 4.754423939808845 2 3 0
712 0 1 0 -1.9099434871606082 15.562379305438945 11.77407760957903 -1 -1 0
811 0 1 0 11.143959665054727 5.021679900495082 10.81365339914432 0 -2 0
1347 0 2 0 6.059459186023421 -2.3033061221126205 13.931208991642029 -2 0 0
400 0 1 0 4.481869035131177 14.631274505876787 1.1365296993654912 0 -2 0
246 0 2 0 -5.958840157004842 16.84711933940815 4.83789527941569 2 -1 0
1373 0 2 0 4.280436161688435 11.35299110202174 10.953083949772527 -1 0 0
84 0 2 0 4.718078999041106 18.08262342159137 5.742807078738902 0 2 0
1134 0 2 0 9.65846926454635 -0.39546144037709263 1.635913028264584 5 5 0
302 0 2 0 8.157000838288207 12.006331469370714 8.95321133648656 -3 -7 0
792 0 2 0 10.760790844491371 4.342716064017693 4.016278392258439 0 -1 0
686 0 2 0 -3.8577115939723017 12.225830535588539 5.162908185195239 -1 1 0
92 0 2 0 -7.680378868874625 19.067499457357773 1.1610239815833328 1 5 0
2337 0 2 0 0.8731943094970688 11.745240251785459 5.130586600120833 3 2 1
775 0 1 0 3.1146118953234607 8.764146966534009 11.146331852830079 -3 -1 0
69 0 2 0 0.22283261139706556 -2.3997564313803554 11.962191869475877 0 7 0
1293 0 2 0 8.567340162158462 5.5516305026895285 1.8891256597672261 0 -2 0
31 0 1 0 0.7509334872403759 9.031918659041308 6.457029223856134 1 1 0
1701 0 2 0 1.7037925865342138 9.24027126477834 13.926593607539028 -2 2 0
1217 0 2 0 2.37752912892795 2.8005592606947216 6.844400256831304 -1 -1 0
243 0 2 0 8.359908957905322 11.414045146664346 13.018258828059787 -2 -1 1
928 0 1 0 11.440416617312303 6.2581524616905755 8.155016284727008 1 -2 0
815 0 2 0 6.999224441151268 1.855257858281044 10.070421310285424 0 -2 0
286 0 1 0 -6.367695907144938 12.246335764001287 10.07892683076726 2 3 0
2271 0 2 0 0.6889006048378666 10.569718942670708 10.960166600862769 0 0 0
127 0 1 0 7.7811653529176406 10.285072837521895 13.846782527342476 1 0 0
11 0 2 0 4.270900209859311 3.561183311402348 5.464862850222067 2 3 0
172 0 1 0 9.293864425637645 1.5889009799075284 4.018171044406582 -3 1 0
885 0 2 0 5.837508051887036 14.939504043587474 12.502021193123039 1 2 0
180 0 2 0 -0.8363007865038958 8.564141517466345 11.045798128605947 0 -2 0
311 0 2 0 -1.3033849240925532 9.008501919198661 3.526448473232511 -1 -4 0
12 0 2 0 2.9501959527964607 3.0769987110826458 4.926513861401251 2 3 0
948 0 2 0 -5.272391472848313 15.60189794643418 1.5244886448569406 4 2 0
1113 0 2 0 -7.5649380770005825 16.434078917322495 14.040512273073507 2 -4 0
2378 0 2 0 3.17849444820528 -0.7695500065903709 6.677856097586401 0 0 0
1056 0 2 0 -5.446316505047573 15.024349013340164 13.18693201522143 5 2 0
371 0 2 0 10.972720060523995 5.962482816704799 2.051198307929205 2 -5 0
1262 0 2 0 12.074600726888011 -0.7237471387794807 14.55448609724665 2 2 0
632 0 2 0 -4.979492819718265 15.16470553189803 15.265612765290697 0 -4 0
1065 0 2 0 9.035099519231018 10.423608383758513 10.610140589537446 -1 1 0
1064 0 2 0 8.076614047425613 9.429058021695006 10.002100578740782 -1 1 0
671 0 2 0 12.900542300617298 -1.7355258861321239 9.808242823282479 1 0 0
269 0 2 0 0.23990206005539166 16.59495327759065 13.514333359548546 0 3 0
2336 0 2 0 0.3274980763078943 10.525837194363671 4.281191744102762 3 2 0
2331 0 2 0 0.4713108394947414 -1.1170613844887005 4.206882882707939 -2 2 0
64 0 1 0 2.3628339271956746 14.793812669308437 3.5863789202521286 -1 -3 0
973 0 1 0 0.9648624975343207 -0.22659798709295487 14.225751050671391 2 3 0
949 0 1 0 6.775763017370711 0.4004690691338695 3.797993505835131 0 -2 0
2278 0 1 0 4.227910333157054 5.9812284103714735 11.381549736609232 0 -1 1
594 0 2 0 -2.861621273244265 17.636799455638812 7.589526377586656 0 -2 0
1170 0 2 0 -2.623706482913544 13.244680267260044 7.3895598617909695 -2 -4 0
1055 0 2 0 -5.652497999166635 13.962493211921181 12.064966238494852 5 2 0
226 0 1 0 -3.999247034066608 16.242590567830565 0.08321768951015163 1 1 0
308 0 2 0 1.1207132730450624 3.7965842613677223 0.1367690934154192 1 1 0
1346 0 2 0 6.223594959571499 -0.9406258501231615 13.277573981188757 -2 0 0
490 0 1 0 1.9595341817624055 2.0298711748647507 10.602221544335013 2 3 0
478 0 1 0 15.198592793937078 -3.742744878104405 11.55406891730455 -1 2 0
438 0 2 0 6.718280578830795 -1.172307908983468 4.587688750916427 0 -2 0
192 0 2 0 4.233329181299113 -0.9557415374841787 14.472406382756507 1 0 0
1174 0 1 0 -2.499061609617671 5.175767896544512 13.463925677546682 -2 -5 0
7 0 1 0 0.3438961935725641 18.95453348917016 5.266870523169063 -1 -2 0
151 0 1 0 1.3203592143045886 19.266673868177946 1.464796456431825 2 -1 0
1345 0 1 0 5.582281616238942 -1.595341915153548 13.518876885870325 -2 0 0
2233 0 1 0 5.63740602269478 5.539710378093462 1.1146529327929569 -1 -3 0
703 0 1 0 3.2040927257001957 0.4052234621969144 3.4730209567156827 1 -1 0
955 0 1 0 14.21402979870873 -0.7859580330386651 1.6508697248050872 0 -1 0
1159 0 1 0 2.102800915387003 17.93698977943559 3.6985748292909078 0 -1 0
261 0 2 0 9.057894168530936 -1.2112199520301692 11.976549881923184 3 1 0
326 0 2 0 -0.2166812845441664 5.953290429101859 3.060974113458068 0 0 0
2270 0 2 0 1.1431125683169359 11.925049612642376 11.67070214302431 0 0 0
593 0 2 0 5.777889602615578 -2.305797630338845 7.916519628121861 0 -1 0
1175 0 2 0 -2.323160107701126 4.722313940677944 14.317825548762048 -2 -5 0
155 0 2 0 3.097842656623626 15.082111290482015 9.593485841591411 0 -5 0
2269 0 1 0 1.3324667911805113 11.25867297689927 10.976901250793397 0 0 0
236 0 2 0 5.7802069624541685 0.5168984949205031 -0.20258592112783602 -1 1 0
709 0 1 0 -5.6931586964608485 17.501986257491268 8.659729979690994 7 4 0
552 0 2 0 3.8772456355884217 16.34141773368939 6.643190204311303 -2 0 0
401 0 2 0 5.038700909146705 14.975392358098768 0.443284967317753 0 -2 0
1137 0 2 0 13.516645004278294 3.7593021146102554 -0.4587484468591421 1 2 0
79 0 1 0 6.407672459405938 3.413224483605356 9.55388227479638 3 4 0
415 0 1 0 2.5726740180856384 12.077110170847249 5.994578501807453 -2 -3 0
2503 0 1 0 0.46348405042050234 15.558512454462507 10.264236081634587 0 0 1
179 0 2 0 -1.4336543344958372 9.906849981318086 10.435198410760703 0 -2 0
1629 0 2 0 12.575375185089632 3.3490773287768123 8.242735457487663 3 1 0
879 0 2 0 -2.2421584195452127 12.691705189065534 12.081587379731435 -2 -3 0
656 0 2 0 -0.6625232843094924 18.407790086493883 1.1812411880221119 -1 -2 0
2193 0 2 0 7.771395076778461 7.610262529054298 -0.10150595990234001 1 -4 1
2192 0 2 0 7.308178117178799 8.267266763115655 1.0406589736460565 1 -4 1
589 0 1 0 2.1310331912338607 16.21229923533101 0.4196598671785561 -1 -3 0
238 0 1 0 10.473283377934873 0.9031448164886506 9.038521360274858 -1 2 0
617 0 2 0 5.845927351460346 5.634420790438117 4.824678047277919 -1 -1 0
275 0 2 0 -5.465058191732169 12.88875467807938 14.574891049636882 -3 -1 0
50 0 2 0 7.499187384314782 13.625717326782514 1.5758025411467589 2 2 0
1377 0 2 0 13.372237298878474 -2.3794532855085855 13.674961614281433 1 0 0
453 0 2 0 0.43947225403541335 13.130276252354811 12.62464326027164 -2 1 0
883 0 1 0 5.5109552445205185 14.736773632745056 11.592726636676417 1 2 0
985 0 1 0 2.1996182867426204 8.152046652585998 -0.6384689686869086 1 3 0
574 0 1 0 8.602006519923833 7.763445101622828 12.171795346399252 4 1 0
670 0 1 0 13.207933338420904 -1.3906387049366242 10.62322840572474 1 0 0
2263 0 1 0 6.723654464607729 15.930487274240093 13.678338265628858 -2 -3 1
1157 0 2 0 -0.34661063136799414 16.07018372047228 3.0497105398269984 1 2 0
33 0 2 0 0.761071939574179 8.65211888672625 7.331739540276178 1 1 0
1029 0 2 0 2.103667205040565 4.852701204184414 5.977617037131465 5 3 0
174 0 2 0 9.68351501372109 0.9522805622225858 4.690489903238967 -3 1 0
1082 0 2 0 -5.78223890022938 13.123567494742252 4.410461832950444 4 1 0
1177 0 1 0 5.693625737406235 11.768111220281083 -0.12308001181983474 -5 -1 0
222 0 2 0 2.322268999424467 10.034242765536312 8.651483727271751 4 3 0
1111 0 1 0 -8.113064690447406 15.718062365192578 14.384707027740326 2 -4 0
1267 0 1 0 -7.934491556877878 16.816864340573538 7.22958464036728 0 1 0
306 0 2 0 -0.21387276782944964 -0.18865176930695338 9.719028511749704 -2 -6 0
924 0 2 0 1.674434797431863 4.179378176976609 3.2626017584595894 -1 1 0
1287 0 2 0 0.6672927692367521 1.6517199498429116 -0.6683813643303381 3 7 0
947 0 2 0 -5.949373257480282 14.677806609035724 2.468211332309724 4 2 0
58 0 1 0 -1.016913156911729 16.403681339229085 4.743013479817162 1 0 0
1142 0 2 0 -1.6674678156294827 6.515833363816209 10.821655609856538 0 3 0
417 0 2 0 3.5051770332228283 12.125831094403422 5.756577820643466 -2 -3 0
503 0 2 0 0.06914966786275112 5.389408112404877 15.304796856392617 2 2 0
114 0 2 0 4.438942857760096 -0.06888363234539341 8.722293681657636 0 -2 0
1469 0 2 0 7.5513638243536985 0.09022181983876609 1.0867927870877818 0 -1 0
327 0 2 0 -0.23742359286697257 5.590402437141709 1.5489401737043456 0 0 0
1104 0 2 0 5.191144763238104 9.758034226868649 14.754945266539647 4 0 0
1285 0 1 0 0.8734986500909775 2.053273132982945 0.19072906679435242 3 7 0
575 0 2 0 9.285698654348145 7.974468033438272 12.83317956183471 4 1 0
288 0 2 0 -6.074805338898536 11.630125018283543 9.354305945346615 2 3 0
2191 0 1 0 6.942580965722623 7.733133090121614 0.3639326611040885 1 -4 1
330 0 2 0 9.777435254812952 9.485220199801331 8.398573142488862 -5 -7 0
940 0 1 0 0.0172332274689046 10.214146803462988 14.333647941048993 1 3 0
1218 0 2 0 0.9056122614542383 2.029077900269983 6.801725286161016 -1 -1 0
922 0 1 0 2.091627358496617 3.3187150215575487 3.3806559150071305 0 1 0
1248 0 2 0 0.1925782312494585 5.717610840804348 11.298308190548829 -1 4 0
336 0 2 0 11.326892056655206 3.0297410613716282 6.334113258503419 2 -5 0
279 0 2 0 -4.793986514871559 16.016996817648394 6.073202545505312 4 -3 0
2494 0 1 0 -1.1364705900445435 15.198941710667038 -0.22739772606257336 1 2 1
86 0 2 0 -0.16743182912646323 10.47296131584066 7.208483161465124 0 1 0
880 0 1 0 2.0652459094813507 6.291864341222405 8.920218054842415 -1 -4 1
218 0 2 0 1.2501020294480227 8.481790826630197 3.3919311954813374 2 0 0
496 0 1 0 12.117812493216219 2.995616846130677 1.8379826156300063 0 -1 0
489 0 2 0 6.671377111838534 8.320149421644437 6.140575091472452 -1 1 0
771 0 2 0 -0.9659651219813594 7.9310228859015846 0.6953190204840249 4 -1 0
1043 0 2 0 -2.270849009979685 17.387130810732984 3.3946460589574112 0 1 0
260 0 2 0 9.683588808329095 -1.8981602084796514 10.826593771363234 3 1 0
975 0 2 0 0.08293051469705287 -0.09369959172464082 14.691764208929806 2 3 0
398 0 2 0 6.0909809716003505 18.479303135301983 7.5139480752414265 2 2 0
285 0 2 0 -3.7823111856447125 7.319649575117888 6.236994991406186 -1 -2 0
1375 0 1 0 13.325083789296142 -1.421711589075167 13.4638011856311 1 0 0
609 0 2 0 9.18663303906619 2.7699739851899654 11.967926062946974 0 -3 0
60 0 2 0 -0.2952683493731486 16.850050127709704 5.205824960281684 1 0 0
1247 0 2 0 1.4544824339070388 4.964192563199806 11.874288752525683 -1 4 0
1453 0 1 0 12.794106158015238 0.1495926745205307 7.407228315819385 -2 -3 0
888 0 2 0 5.30450808453866 13.699595431206465 4.475825255504817 -2 -2 0
278 0 2 0 -4.461768097843014 14.555149075856685 6.40859486790271 4 -3 0
98 0 2 0 1.682860419993721 5.370274043175867 14.042737774472528 3 2 0
1199 0 2 0 3.871684290661663 17.693555823835638 0.8843313619683275 1 3 0
581 0 2 0 3.755749839447277 13.017701600670971 1.217535198454807 3 2 0
1311 0 2 0 14.00279164503553 0.8533680903939016 4.715270514271401 -1 1 0
93 0 2 0 -8.592801444246211 20.08099460288742 0.47655400498735623 1 5 0
941 0 2 0 0.21648194263875675 10.734588618101766 15.042990638514427 1 3 0
240 0 2 0 11.342060144236124 0.64776962807818 8.651581929812723 -1 2 0
970 0 1 0 8.988062314034492 4.403048732634368 0.2514020665975223 0 0 0
2328 0 2 0 7.864851296412178 6.084237533362391 7.737759484619245 0 1 0
247 0 1 0 6.351608563309554 9.183310441325911 10.019316343868764 3 4 0
1044 0 2 0 -3.41573311502532 18.224720502055817 2.6124192876144403 0 1 0
428 0 2 0 9.445777560790534 5.383728298519261 5.999462712498401 -1 -5 0
687 0 2 0 -3.669488196163339 13.527303184580491 4.351925005338096 -1 1 0
865 0 1 0 5.8522962669980885 13.917338575695243 7.992404543585188 2 -1 0
704 0 2 0 3.1654252839010786 1.3114340249911063 3.8269560157922404 1 -1 0
751 0 1 0 5.34450150750731 9.535670663142689 4.504520708844469 1 3 0
2401 0 1 0 6.226729321586101 -2.600324935499115 10.571924764895844 2 4 0
1173 0 2 0 -6.984280392572362 15.543839049068536 11.15735479106887 1 2 0
550 0 1 0 4.717199585094684 16.84522076912941 6.9211232396343405 -2 0 0
365 0 2 0 -0.25155407255240336 7.992362399453249 5.4087530038342155 3 3 0
2517 0 2 0 10.430252486207996 8.359889959155032 4.496938709122006 1 1 1
402 0 2 0 4.8826152929938855 14.853427444655996 2.0005617517891 0 -2 0
88 0 1 0 -4.253445561635322 16.604620102473998 11.533220000168654 0 2 0
298 0 1 0 6.570827503233291 11.899678749583655 2.332134207148736 -1 0 0
1239 0 2 0 7.123140623714584 6.863045239437012 3.5589790403090733 -3 -1 0
258 0 2 0 7.398058286792643 0.35283717261591896 11.998278691246878 1 1 0
2495 0 2 0 -0.5833658798247535 14.449165859806328 -0.013951370775619143 1 2 1
163 0 1 0 3.14151906414026 6.469789207751812 1.7387021875782445 0 -6 0
740 0 2 0 -3.5240356093500167 8.374555909336781 9.896674062684879 2 0 0
268 0 1 0 -0.34101450155764373 15.919847192763088 13.885436440907373 0 3 0
1027 0 1 0 1.5677598761097147 5.600883865281564 5.9932298769739525 5 3 0
769 0 1 0 -0.11752955803388723 7.556052282951381 0.9060006240715359 4 -1 0
304 0 1 0 -0.19226900259954932 0.659997115959003 10.157549238086629 -2 -6 0
1468 0 1 0 6.598256726884127 -0.2677647692452173 0.9855499125632712 0 0 0
139 0 1 0 -5.017706106763735 19.087659639036684 2.2644720770906255 2 0 0
1028 0 2 0 2.075558224214719 6.2328534153784165 5.430552629090199 5 3 0
186 0 2 0 13.136266897612588 0.07061461780245804 0.17072184104495458 -2 -4 0
1648 0 1 0 4.454610057783937 2.6179948008998744 2.1298179857552593 0 0 0
2450 0 2 0 7.05997006664607 15.336882439768223 6.9909131875130806 0 -1 0
2516 0 2 0 9.394543980947411 7.75495891421013 3.5335530207742583 1 1 0
2235 0 2 0 6.211914289010049 6.313135011598811 0.7199272018591449 -1 -3 1
816 0 2 0 7.751497874986431 0.558436636673771 9.530145494292467 0 -2 0
1650 0 2 0 4.333608164732152 1.8770668462044484 1.5351573326656491 0 0 0
1398 0 2 0 10.393833434036818 -0.9385597587439076 5.317300569032825 -5 -1 0
813 0 2 0 10.74207435849311 5.25418438213404 9.957445343189987 0 -2 0
2364 0 2 0 -3.1093181787276585 9.885072278992375 6.047420051078419 4 3 1
1340 0 2 0 -0.766083675013861 13.585410201361194 5.665412431970184 -2 -3 0
219 0 2 0 0.5341185134633292 8.766870330138625 2.0505108350151446 2 0 0
483 0 2 0 5.303384658852355 6.03322646401997 8.07917690582989 1 1 0
659 0 2 0 3.569428336890519 0.5115603490043136 -0.08273627120536631 -1 2 0
128 0 2 0 8.597783986250754 9.757921547497709 14.011908499095751 1 0 0
328 0 1 0 9.98200010840642 9.364177654066381 7.438140427413691 -5 -7 0
284 0 2 0 -4.141469828066593 8.401826811480493 5.251260906573853 -1 -2 0
716 0 2 0 3.912711683892586 18.135559758267274 8.20787688384395 1 4 0
74 0 2 0 6.676933573998241 3.9240048872278983 3.8337770355530747 0 1 0
791 0 2 0 9.605182671728372 3.3197671024316024 4.115047150267607 0 -1 1
497 0 2 0 11.387333629013016 3.1000730458172323 1.1802946022745646 0 -1 0
2505 0 2 0 -0.4064446679275012 15.664836237601488 10.706267297227937 0 0 1
248 0 2 0 5.774734695092665 9.537572638100823 9.362061826359678 3 4 0
1235 0 2 0 -3.299907149449134 15.336323515259084 2.5264781696245406 -1 1 0
1123 0 1 0 0.12181536288581424 13.017678578789615 8.900943790398772 4 -2 0
1448 0 2 0 -5.218684756180864 18.759960159644248 0.23092331790318488 -1 0 0
891 0 2 0 9.006822573331599 3.4203222762015337 7.403596096868457 1 -1 0
244 0 1 0 -5.2106898335353105 17.355039319681993 5.141439781842838 2 -1 0
502 0 1 0 0.21966993284196906 6.293028132915363 15.075409645877183 1 2 0
1117 0 1 0 7.240459296847326 5.6473075161731305 11.057915381804861 -1 -7 0
341 0 2 0 -0.9335771645878593 6.643957323845408 6.605282622600734 -4 1 0
878 0 2 0 -3.3890482212675113 12.86812656386872 10.986247267852614 -2 -3 0
1063 0 1 0 9.05056268902692 9.518417639762166 10.122767260047146 -1 1 0
2445 0 2 0 7.340732862853905 4.054967908763858 12.271213152076076 -2 -1 1
1216 0 1 0 1.6322514930961864 2.34980092050583 7.34634010977288 -1 -1 0
580 0 1 0 3.0417872675809328 12.363218529799695 1.2583030151779209 3 2 0
344 0 2 0 5.345531632594396 17.21809875322768 3.8832027871289263 1 -5 0
276 0 2 0 -5.232082135849343 11.342853209120861 14.607489005582757 -3 -1 0
325 0 1 0 -0.2665782856266371 5.155789107658873 2.4597769684115938 0 0 0
220 0 1 0 2.7657271833297643 10.905355896357953 8.426393390485485 4 3 0
525 0 2 0 -3.3491104189361223 10.850891374835545 12.275759223893852 -4 -7 0
658 0 1 0 2.9974220231058943 0.40990480061974033 0.6940104026808049 -1 2 0
824 0 2 0 7.942198581549541 -2.8244497129382222 9.494766322416101 0 3 0
937 0 1 0 -2.0692439645910885 16.161360289398672 8.278366473359332 2 3 0
1557 0 2 0 4.563066297103203 10.869736705579747 8.060629141549878 -1 -3 0
1397 0 2 0 11.38672815880925 -0.1057801585108229 6.200176059787719 -5 -1 0
938 0 2 0 -1.401355395237169 15.737567979913264 7.679324403745419 2 3 0
80 0 2 0 6.76327103608114 4.277100808553014 9.941865206810409 3 4 0
366 0 2 0 -1.5964312322445862 7.304289882306148 4.92574052327243 3 4 0
17 0 2 0 0.16653830762517413 4.363118367832989 9.603235668058938 0 2 0
631 0 1 0 -4.450657499850113 15.447314530616858 14.509716877842662 0 -4 0
688 0 1 0 -1.207149414152191 4.121376115565079 5.35114086105441 -1 -1 0
1046 0 2 0 3.7177310396361074 9.728972130034007 1.6157696721159454 0 3 0
845 0 2 0 9.76767504690243 0.32100178996098716 14.911326833837272 1 3 0
245 0 2 0 -4.627822671795548 17.440717021891626 4.386879595214959 2 -1 0
73 0 1 0 7.1704671389662735 3.6723101085005156 3.0482232798012965 0 1 0
1002 0 2 0 5.352334044232965 11.873047730533274 15.107650147479957 2 2 0
2329 0 1 0 0.46293264958526303 -0.3765174620195033 3.589764859674018 -2 2 0
1519 0 1 0 -2.6522139261540323 5.590909721560963 9.51601975491945 1 0 0
1125 0 2 0 0.4404956678881718 13.932954588434898 9.193075921847552 3 -2 0
752 0 2 0 4.665361873939243 9.949440860137512 3.9655847925220398 1 3 0
846 0 2 0 9.507208231991994 1.783294512787621 14.70005580997941 1 3 0
87 0 2 0 -0.7280370229511488 11.655611220247563 8.08153674343875 0 1 0
951 0 2 0 5.998817665440187 0.6442193542683279 4.308162834343287 0 -3 0
332 0 2 0 4.764810002694321 1.3948700838586459 6.210062740042932 1 0 0
1124 0 2 0 0.8155819086964541 12.489467770934404 9.25256385609505 4 -2 0
866 0 2 0 4.960113140954175 14.074575891027372 8.421869451232418 2 -1 0
864 0 2 0 3.6539664299224106 -1.050966366419694 10.775410110942904 0 0 0
426 0 2 0 0.9159700853971097 2.3405843442123153 12.08012131873805 -1 -2 0
182 0 2 0 7.1870899179606935 17.797061367023556 3.0690594359168046 -3 -2 0
623 0 2 0 -2.2951895793316557 11.439773978102938 0.25462847074338324 1 -1 0
149 0 2 0 3.9562429038355584 2.1266832854779762 14.327030810023137 -2 1 0
760 0 1 0 -2.1398097819219632 8.691006197504159 8.757291097123675 -2 -4 0
1286 0 2 0 1.6375019040633472 1.5228251274599975 0.45423775868776595 3 7 0
138 0 2 0 -3.2052433931856568 6.308881947390939 4.105733181356259 -1 4 0
363 0 2 0 7.937199682560735 11.645639852794563 4.79475397045864 2 3 0
9 0 2 0 -0.6176578390731827 18.93644561072197 4.854993133936831 -1 -2 0
419 0 2 0 -2.308712871575429 3.372896804092627 7.0156149509891215 -3 -3 0
513 0 2 0 1.1326986225312548 16.379899993415222 7.026838767454521 -1 -1 1
51 0 2 0 7.455382218217307 14.871481368523618 0.6694617252336779 3 2 0
762 0 2 0 -1.6182938855173834 9.421578376629473 8.355329477490644 -1 -4 0
972 0 2 0 9.122889260718447 3.4229066465772178 0.03391933233495137 0 0 0
242 0 2 0 8.294116267365533 12.906364460306008 13.046162585587764 -2 -1 0
44 0 2 0 -3.6688497557482 10.223750110611437 9.872055772610436 2 -4 0
303 0 2 0 7.786793117627782 12.593465309760061 10.40202173519359 -3 -7 0
714 0 2 0 -2.278117849651593 14.700792550666254 11.592354600438041 -1 -1 0
1054 0 1 0 -6.174667255887274 14.44870860047107 12.761344938465234 5 2 0
710 0 2 0 3.2974448189226697 -2.987642758843422 8.955178012550032 7 5 0
1376 0 2 0 13.046570714155965 -1.3962725203453412 12.502857266010745 1 0 0
2504 0 2 0 1.1438719087544815 16.196439880565602 10.567475097441047 0 0 1
368 0 2 0 3.3597405898577337 -3.4756050544334522 14.071345812645822 1 -1 0
32 0 2 0 1.6806657884986238 8.894601740524475 6.22849338333475 1 1 0
82 0 1 0 4.472507663137008 18.568045004125807 4.9479269714576954 0 2 0
1118 0 2 0 7.670468017366313 6.3550583451087235 11.556074141748958 -1 -7 0
49 0 1 0 8.021952141888475 14.268771696320668 1.1366599246713 2 2 0
1649 0 2 0 5.417667503266864 2.8174236621769078 2.2338446206556744 0 0 0
939 0 2 0 -2.803280851298105 15.55565188248883 8.286794329515823 2 3 0
2279 0 2 0 3.884159039556499 5.772631495326098 12.247334527971947 0 -1 1
2330 0 2 0 1.4033818805732916 -0.12196158775536436 3.5171213602088285 -2 2 1
2227 0 1 0 6.415078086820113 15.397874212347515 -0.7099016049417051 -1 0 1
790 0 1 0 9.914681763738486 4.198115766668341 4.407193278270134 0 -1 0
482 0 2 0 3.8308937706031703 6.2705511193656935 8.105378441370473 1 1 0
1220 0 2 0 4.102931674130138 9.166164389001104 6.011201844397987 -2 2 0
2363 0 2 0 -2.0246017696522562 10.86651019804616 6.25203950397875 4 3 1
81 0 2 0 6.677583016654626 3.582461951702141 8.606719315834946 3 4 0
913 0 1 0 3.6594198155266313 3.867486336203894 9.189082308259193 0 -3 0
862 0 1 0 2.9776694139097524 -1.685004265583267 10.480950277314646 0 0 0
624 0 2 0 -2.8868985613191582 10.29260149589527 -0.6132187364555264 1 0 0
753 0 2 0 6.141886319181539 10.07227342762747 4.422420392427641 1 3 0
2326 0 1 0 7.261011964086311 6.353197673595957 8.480283643590777 0 1 1
823 0 1 0 8.88772838110495 -2.586310011887937 9.32093268117406 0 3 0
316 0 1 0 8.278644486054874 6.545791210917303 15.425705133537495 -3 -3 0
99 0 2 0 2.5190917152632024 4.060432578703581 13.67631867802286 3 2 0
1339 0 1 0 -0.8520330614476833 13.987500892616602 6.554262319601724 -2 -3 0
241 0 1 0 8.626766975026632 12.211954662204722 12.500026937748618 -2 -1 1
357 0 2 0 -1.1192273280672662 3.682471861776681 2.169744339510763 1 4 0
416 0 2 0 2.540279277392534 11.566977562798714 6.851705770949599 -2 -3 0