LAMMPS data file via write_data, version 23 Jun 2022, timestep = 7931000

2592 atoms
2 atom types

0 31.007999 xlo xhi
0 21.374731 ylo yhi
-0.8572049741315837 31.817663974129733 zlo zhi
-9.165637 1.01597917008118 -10.866938836120868 xy xz yz

Masses

1 1.008
2 15.999

Atoms # full

50 0 2 0 7.345312405492669 1.7830026810869581 13.79492300611668 0 0 0
1263 0 2 0 10.199370311450492 -1.0258334126005608 5.417854390285402 0 -1 0
13 0 1 0 11.701946749540836 6.8046803005200855 6.430737812869898 1 1 0
1208 0 2 0 10.78844009984709 9.593900877076058 -0.08757515202241528 1 -1 0
1100 0 2 0 5.672618454591527 18.54579808134243 7.1636798714112455 1 -1 0
1169 0 2 0 12.041193675747548 5.87855959802652 3.7825584148029057 -1 0 0
1082 0 2 0 2.709148246708902 5.0198688914541885 6.0000887874908235 0 -1 0
728 0 2 0 3.646609162944856 9.611671303827812 -0.8162578906773741 1 0 0
610 0 1 0 3.462925649335212 9.789699625112426 7.766159661922879 1 1 0
976 0 1 0 -4.1359917680382114 13.66036140016851 -0.4936556318137477 0 0 0
1341 0 2 0 5.499753168653075 1.6857235540383317 4.273204976176133 1 0 0
454 0 1 0 10.009201316225667 -2.025250600375681 13.813045719666766 0 1 0
165 0 2 0 5.921719202399846 4.497741377178455 5.705777271721107 1 1 0
557 0 2 0 12.28493812559042 2.6374012669254814 8.925751218539 0 1 0
1216 0 1 0 -2.78027832731476 15.2896883717755 2.723017104128169 1 -1 0
151 0 1 0 12.477577658348135 1.250636216053803 11.126313034770323 -1 1 0
717 0 2 0 -0.9097629739456643 14.8822465856572 5.688844687268058 1 0 0
356 0 2 0 9.231623266810377 5.58796013396921 7.16893423427889 1 0 0
12 0 2 0 -3.1301568190005273 14.320481147688632 11.379263017819081 1 0 0
650 0 2 0 -0.8186075687067743 9.457974999899646 2.1554234577654316 0 0 0
1142 0 2 0 1.9284207679792493 -0.24553910144854507 8.759825972025975 0 1 0
1025 0 2 0 7.351515114467606 8.371561396718583 7.152330038914892 0 0 0
276 0 2 0 5.601264751569958 6.040248577930653 3.277547583245644 -1 0 0
500 0 2 0 2.1244569778513185 20.128018695068402 0.9491120504819441 0 -1 0
1010 0 2 0 6.544671909290962 -2.5854715644787665 7.633080591482537 1 0 0
507 0 2 0 6.941882016222653 1.9697656139268336 9.450220895310617 0 0 0
2306 0 2 0 -2.158136660928018 11.359543152780342 0.7781152954183843 0 0 0
16 0 1 0 3.7689248512705937 -3.6568606286306697 10.932928629216013 0 2 0
658 0 1 0 4.705131535744792 6.475621334882645 12.368418173035703 0 -1 0
2307 0 2 0 -2.4621655150523103 12.152777991911165 2.030423404866073 0 0 1
732 0 2 0 1.8523765328627722 -1.1779497856739216 3.8679394226769412 1 1 0
1134 0 2 0 7.026480547992643 5.7299574280947 9.959910057411765 1 0 0
1133 0 2 0 5.963733020795927 6.061559015929124 9.0074431906057 1 0 0
701 0 2 0 -2.811920351694109 12.94735893654385 7.455908439952134 0 -1 0
493 0 1 0 9.461934852505333 9.872903361107376 5.643842409129377 0 0 0
528 0 2 0 -2.346663914885411 9.51273239847835 8.61600540210229 0 0 0
940 0 1 0 6.710773224574853 4.571821064841936 13.16798004787092 0 1 0
668 0 2 0 6.248589980456404 4.242088834906523 2.6184046906103347 0 0 0
2473 0 1 0 -6.56629257713231 20.931670206843137 -0.5761909936870384 0 -1 0
456 0 2 0 9.328023123375432 -2.010914695432504 14.503014512273186 0 1 0
244 0 1 0 10.312801985644178 6.493558382999458 14.540789702829311 0 -1 0
324 0 2 0 -2.1150137713627237 2.3982181477019964 11.961953522259568 1 1 0
811 0 1 0 1.4180913433704765 16.465146493734174 11.457545681359877 1 -1 0
683 0 2 0 0.20349262991303607 -4.035647007496102 15.378109835560512 1 0 0
452 0 2 0 10.268148371287934 -0.12541345422856143 13.974978088353536 0 0 0
32 0 2 0 2.887443579568524 13.301767681667005 11.311350669767004 0 0 0
301 0 1 0 5.15802394120611 8.843571325718802 11.211914110250662 0 0 0
101 0 2 0 3.8888431014098344 15.60403412927548 7.922851715461396 0 1 0
267 0 2 0 -6.5943605816550175 12.03103966027769 12.154900722595356 1 0 0
952 0 1 0 7.5512341119696265 11.186997065509868 0.9230963595927966 0 0 0
62 0 2 0 8.577101571167807 2.457827611310798 7.972606219003749 -1 0 0
694 0 1 0 3.0122624114725873 6.41034121397522 14.553425104081931 0 0 0
294 0 2 0 12.75317302597945 -1.3897818933634918 14.607721416793026 0 0 0
82 0 1 0 5.14462091625993 11.659522604806625 11.614295128392966 0 0 0
932 0 2 0 10.568433345680807 4.329746880435478 1.0938900093172514 -1 -1 0
1166 0 2 0 3.7639989497964517 9.662944313377476 14.132936720891665 1 0 0
179 0 2 0 2.2271965616855858 10.907474448559174 13.224317760440915 0 0 0
1112 0 2 0 8.745477054507754 13.379491947303666 4.8081245870958975 0 -2 0
2305 0 1 0 -2.876007028145348 11.863967367058995 1.1795935434219573 0 0 0
988 0 1 0 0.7534884671005857 -2.247341616206628 15.142959274935134 0 0 0
60 0 2 0 3.91972770546013 4.720654820185068 1.0124998110350736 0 0 0
943 0 1 0 0.38262943390336507 -3.0836116417404904 10.46081078980906 0 2 0
274 0 1 0 5.96329803247463 5.637125282424821 4.070133566154916 -1 0 0
614 0 2 0 10.589431551287575 8.169094579559777 10.373246131045594 1 0 0
194 0 2 0 -1.0434409753965774 3.392099238503076 -0.7788636456278804 1 0 0
100 0 1 0 3.4066416629029237 16.0504254200507 8.589574347045922 0 1 0
2401 0 1 0 5.678793756362898 14.66548587374244 11.252266948084122 0 1 0
1261 0 1 0 9.894763722613819 -1.8311921080740388 4.901117134163915 0 -1 0
2567 0 2 0 3.557813060248357 8.472342715913404 3.7107797632303123 1 1 1
1230 0 2 0 2.5267610410226546 -2.3240976535002282 8.304262314558663 0 1 0
1181 0 2 0 -8.534190647444806 20.10168254362716 2.0799480042740415 0 0 0
642 0 2 0 13.445416479332687 -0.8159662931962992 5.17149807674441 1 2 0
2437 0 1 0 5.4314393001751 17.103272659887224 10.159702420673403 0 0 0
2207 0 2 0 -5.938776672862537 18.746852686862265 1.526638074845347 0 -1 1
2510 0 2 0 9.066121555751673 5.6928322349854446 11.77017236471987 0 1 1
774 0 2 0 -2.997229494170068 14.246997987168442 14.724075721768616 1 0 0
915 0 2 0 11.452393699034351 3.756614323935636 7.0761662247252595 0 -1 0
368 0 2 0 3.557079785944463 19.34430349504313 3.219594281922264 0 0 0
1175 0 2 0 2.3307712734073034 5.421432382513945 11.868143972432351 0 0 0
168 0 2 0 4.729966090917673 -0.9445190863824329 11.373808891831793 0 0 0
836 0 2 0 4.353080301000569 7.598320478731784 9.726102884950983 -1 0 1
2439 0 2 0 5.477125101381405 16.291638339656213 10.685514976207159 0 0 0
10 0 1 0 -2.3011163122070784 14.289738201834476 10.86383183225197 1 0 0
31 0 1 0 3.0205078563643792 14.232882063053733 11.49530159568007 0 0 0
527 0 2 0 -2.121174706337486 11.08881163524433 8.977877185798377 1 0 0
847 0 1 0 8.64785802193782 -2.156499839756644 11.301616617750408 0 1 0
1075 0 1 0 5.3094039664151165 15.72959060723718 1.9223129836928767 -1 -1 0
660 0 2 0 4.688092670479992 6.235015809834061 11.408757528732577 0 -1 0
805 0 1 0 1.204805455781774 20.81937537919355 -0.5250165517057401 0 -1 0
1095 0 2 0 -4.279973764051902 9.857848879977777 10.588852914616366 1 0 0
238 0 1 0 3.1873721320682717 -5.114319237364832 14.788938253296038 0 1 0
436 0 1 0 -4.596067480398781 17.869225858559417 5.463876851067631 1 -1 0
982 0 1 0 -1.0792822703242702 16.371409437094982 13.182705109674691 0 -1 0
232 0 1 0 -0.9486696572214715 1.6625004263063605 7.67161685514751 0 -1 0
2547 0 2 0 -4.349678395169661 11.421044865294672 1.8245554350458328 1 0 0
652 0 1 0 -2.637665486005541 14.79462159442594 6.575226914647856 1 -1 0
571 0 1 0 -1.592174325671258 8.86371563829018 12.113179129603202 1 0 0
998 0 2 0 0.9894771803223227 9.945080189360661 5.5462145635998565 1 0 0
1009 0 1 0 5.681864400257348 -2.4143560207249917 8.119996302694254 1 0 0
2474 0 2 0 -5.971930889075602 20.52441591360571 -0.012077656710736906 0 0 1
716 0 2 0 0.48313909133026617 15.076063085422513 6.27465828005378 0 0 0
490 0 1 0 -2.071015671750888 5.873743353268763 12.385104429023311 1 0 0
337 0 1 0 4.969090921931585 2.304042974360069 13.490238045217136 1 1 0
7 0 1 0 2.0324183073760227 7.325049384735593 12.076188888390671 0 0 0
1377 0 2 0 -0.7747765028831112 15.705598440477019 0.2835582019466527 0 -1 0
1076 0 2 0 4.573351161084243 15.203184861726028 2.228226349520106 -1 -1 0
900 0 2 0 8.529948340453743 8.294752866545991 2.626088038087726 0 -1 0
879 0 2 0 5.470279366138617 -3.3166909144985732 12.191289861489686 1 0 0
556 0 1 0 12.224748844008944 2.273636238336057 8.022456315773336 0 1 0
696 0 2 0 2.7015501085258116 6.489964957504213 15.467401066526676 0 0 0
5 0 2 0 10.359400464566274 -1.5492438248427638 8.574614283828621 0 0 0
162 0 2 0 4.816760246096903 2.3408566862069504 15.10851832352361 0 0 0
1699 0 1 0 5.678839279113515 -0.7688513979628491 14.550643512483502 0 0 0
152 0 2 0 12.223084264772725 1.924453909797223 11.791864935005185 -1 1 0
24 0 2 0 -0.11284066360680045 9.329996607858053 13.037972106234097 0 0 0
760 0 1 0 6.634056314690905 19.03729346617713 3.957934738689854 0 -1 0
1180 0 1 0 -8.74849396070282 20.08502383693566 1.1185075067908112 0 0 0
183 0 2 0 8.824891019336869 6.8954186710215755 5.055182335661549 0 0 0
1221 0 2 0 4.107472594760649 -0.8056237968490754 7.811490857898802 1 1 0
263 0 2 0 10.814111055349864 -4.525870782598488 13.62217363904306 1 1 0
818 0 2 0 -6.7761048080738755 12.971277637290232 14.645100139452163 1 0 0
266 0 2 0 -5.072489563879954 11.812122773132653 12.262047077866288 1 0 0
45 0 2 0 0.7624701711190179 2.630816932264228 1.6777396767572719 1 -1 0
450 0 2 0 0.3320029038245669 5.075442845633255 0.8599495638338723 0 0 0
1340 0 2 0 4.056564155093585 1.6772920201236594 3.6678143702051855 1 0 0
997 0 1 0 1.158139350990883 9.093995309506976 5.868788272898379 1 0 0
1202 0 2 0 4.475549946957339 6.849480735949448 1.4239438377829305 0 0 0
820 0 1 0 10.867387795737589 4.377121911674462 9.791640507187946 -1 -1 0
783 0 2 0 13.023683558191632 -0.137368837047874 -0.2775713467715306 0 -1 0
440 0 2 0 6.249770396181405 14.719109212727167 0.6757725349297325 0 0 0
87 0 2 0 -3.3139534476399364 15.999931332619088 9.535368248532306 1 1 0
446 0 2 0 1.6218746178843042 0.04985414585125625 13.457450671297261 0 0 0
689 0 2 0 0.06108932168556286 4.306314782676551 4.997876670525954 1 0 0
126 0 2 0 -1.105100619871623 17.950177153904203 3.5475687476562303 0 0 0
611 0 2 0 4.170011818238778 9.163345748028304 7.476760395822794 1 1 0
1540 0 1 0 -5.230147693763104 12.17408023258674 15.247103073966024 0 0 0
755 0 2 0 0.7406170085461834 16.433484104334383 2.6406814744211244 0 0 0
884 0 2 0 -1.4885931048128744 19.589593940825303 0.8876035623585898 1 1 0
649 0 1 0 -1.2361310027043333 8.789067603455047 2.739959002006572 0 0 0
501 0 2 0 3.263865781552439 19.076136175536504 1.2225718799161829 0 -1 0
63 0 2 0 9.385597274602242 3.096079512426844 9.16802747261311 -1 0 0
367 0 1 0 4.040849424268755 19.3432733777475 4.037538697382047 0 0 0
1686 0 2 0 7.807349915635775 -4.869952307270243 15.21286494627174 0 0 0
488 0 2 0 14.221506384265822 0.04151684098409536 9.51704643517921 0 1 0
1141 0 1 0 1.0881559208213405 -0.07098939924654424 9.271003954521925 0 1 0
615 0 2 0 9.79441586199043 8.162631605178767 8.985990818612455 1 0 0
1228 0 1 0 2.452734597776877 -3.1865519547433263 8.743405532998501 0 1 0
121 0 1 0 -0.6347273098827678 6.465396122735742 -0.30333115713145486 0 1 1
381 0 2 0 10.689268807225998 7.224672214938336 -0.3809509934268808 -1 -2 0
578 0 2 0 -0.42877635539943315 9.066264311753782 8.918956667588358 0 1 0
1052 0 2 0 12.50897913338475 -1.3565042780154988 9.58789143321975 1 0 0
1084 0 1 0 -1.4385099249215818 10.4884244689541 5.209765623458703 0 1 0
327 0 2 0 10.508216416852258 1.1377286367814232 2.163828339360445 0 0 0
1246 0 1 0 2.7331716093321465 7.007962023344931 0.7547950444144254 0 0 0
364 0 1 0 -4.881015491673817 14.789855738829502 11.720182133672699 1 0 0
1165 0 1 0 4.300195739819522 8.893561007740804 14.288224244744542 1 0 0
747 0 2 0 8.506802483479111 7.553555478161169 10.810725329000734 -1 1 0
570 0 2 0 -5.1834478083282045 19.55569296799728 4.4263969643393315 0 -1 0
1069 0 1 0 6.977157549110181 11.504187201535187 7.694575757848016 0 -1 0
153 0 2 0 13.358847425996348 1.4941802790928445 10.845898301054461 -1 1 0
1117 0 1 0 5.332783912639698 0.4107432824728062 0.2665440651294553 0 0 0
410 0 2 0 1.7601405308093203 1.624237894171975 5.731021579070747 0 0 1
499 0 1 0 2.4942752479630195 19.52186999745218 1.631347696910324 0 -1 0
104 0 2 0 0.5796714438124448 13.86120078466099 1.2158974017482485 0 0 0
247 0 1 0 5.010155808739673 12.12678394639391 1.3739447454733855 1 0 0
1199 0 2 0 5.579382726871066 18.686060293754377 1.1773129180647603 1 -1 0
150 0 2 0 0.44061062238563403 14.898585042355737 14.829668704517577 0 0 0
855 0 2 0 1.689102618489318 4.120314574439764 8.048367115802087 1 1 0
518 0 2 0 11.08352620210903 2.8745960061205302 -0.6149346572049862 0 1 0
9 0 2 0 2.5111384483856085 7.279788868524073 12.925221106787783 0 0 0
130 0 1 0 4.031441354271837 15.309531080608945 6.0345719515669485 0 0 0
1167 0 2 0 3.710440579024878 8.171853198806186 14.295044824396552 1 0 0
1604 0 2 0 3.6838203994775958 11.660362771970984 8.704965764157459 0 0 0
66 0 2 0 0.3749064398922488 3.831427522416166 13.521857123046718 0 -1 0
730 0 1 0 0.9019014316359146 -1.2543000505031339 3.754764132167841 1 1 0
669 0 2 0 6.3702961356562415 3.2559570450041786 1.3738210957842578 0 0 0
477 0 2 0 -2.6944908113354433 6.444561527519374 3.063293075941776 1 1 0
1101 0 2 0 6.852916632095504 17.571146740482792 7.2984387341539545 1 -1 0
1424 0 2 0 -1.9840976482791532 8.908707990222375 14.912269094453691 0 0 0
1176 0 2 0 2.9688120028698815 4.27451750744948 12.832357626075678 0 0 0
86 0 2 0 -3.83095495145451 17.17331205122052 8.666081534119819 1 1 0
1292 0 2 0 8.067021732709199 4.615446500202989 1.6062104905377144 0 1 0
975 0 2 0 0.01838436975716376 10.288535457245267 0.3202050852943086 0 1 0
561 0 2 0 13.46440113621379 -3.8249905887096682 13.347142505525738 0 1 1
978 0 2 0 -3.5203634827411454 12.995045566523004 -0.216671915770133 0 0 0
334 0 1 0 5.79893018494035 8.416192677158865 6.232123434514657 0 1 0
845 0 2 0 -3.8142303312287633 11.923854429223587 14.017819204291506 1 0 0
896 0 2 0 5.875421810594402 12.932420043665301 2.863506830359207 -1 -1 0
1220 0 2 0 2.9867847961757117 -0.16421302872569354 6.876104738119262 1 1 0
352 0 1 0 -1.534492765894214 12.769392203197873 3.729354250382479 0 -1 0
17 0 2 0 -5.2955337753727845 16.773195803026688 11.060530847972416 0 1 0
199 0 1 0 3.36771221211432 3.6136378935666342 7.648273753589407 0 1 0
538 0 1 0 -1.0010776618013604 4.707802442213715 6.308563243484862 0 0 0
127 0 1 0 -0.8020615571335064 1.4550307976299877 14.751021329961432 1 0 0
391 0 1 0 -2.8399917467432996 18.13541324482002 0.9373718553821175 0 -1 0
1011 0 2 0 5.822318326237123 -1.7752444870182609 8.935815454979213 1 0 0
43 0 1 0 0.5406184874294422 1.7171132773072066 1.656392548370694 1 -1 0
1701 0 2 0 5.0796687805013665 -0.6494011960275881 15.299947308661231 0 0 0
910 0 1 0 12.1897576669691 -2.424404923671588 11.08943510290318 0 0 0
712 0 1 0 11.267400066353245 2.8371301467611403 13.103907673675256 0 -1 0
842 0 2 0 9.618466870358004 0.7314528206466338 9.236001036138966 1 -1 0
941 0 2 0 7.520259847514853 4.38076774987455 12.661072354100064 0 1 0
336 0 2 0 5.318991488945805 7.5854784278719425 6.031040311188132 0 1 0
1251 0 2 0 7.0966219622126 16.001290137700433 4.798353827934448 1 -1 0
149 0 2 0 0.8566570999021204 13.427916295677605 14.967858327844656 0 0 0
856 0 1 0 -1.1852850673869644 18.293410421677716 6.888299207224881 1 0 0
1252 0 1 0 -5.541644825181299 14.861825478208214 2.3148356982690164 0 0 0
166 0 1 0 4.349167992519042 -0.27077624028730884 11.98445075367767 0 0 0
898 0 1 0 9.102715650863088 7.6590022302325504 2.215959286957469 0 -1 0
233 0 2 0 -1.070296400816585 2.550848285213402 8.059356130886428 0 -1 0
297 0 2 0 12.689612066350591 1.1350121753356652 5.336044177868622 0 1 0
1253 0 2 0 -5.68997755457732 14.152279132594403 1.6398019195770996 0 0 0
568 0 1 0 3.633476850236965 -1.056067413566283 4.010465523960136 0 0 0
14 0 2 0 11.55294420187518 7.046333315725908 5.496360284943191 1 1 0
355 0 1 0 9.00841522620887 5.462953388529926 8.079776236440502 1 0 0
439 0 1 0 6.881024726077101 14.487868779005957 -0.04499779035898854 0 0 0
329 0 2 0 7.474784388105277 2.232280658759429 3.279632192988064 -1 0 0
365 0 2 0 -5.441430994820121 14.022789631934401 11.60976547591171 1 -1 0
190 0 1 0 -0.3966604563796033 7.48922061288461 14.448475498449346 1 0 0
1249 0 1 0 6.176218039703531 16.19907242540494 4.615747701018432 1 -1 0
651 0 2 0 -2.0550834505648115 8.567741697768632 2.3120245366277303 0 0 0
163 0 1 0 6.165557884869574 4.348123567927054 6.594181746359221 1 1 0
750 0 2 0 -3.8861368182642217 8.432071384447653 7.502686370783014 0 -1 0
931 0 1 0 11.471697816476446 3.9211551483022324 0.9645892301087 -1 -1 0
953 0 2 0 7.486755931736109 10.484898362049567 0.262346404271278 0 0 0
933 0 2 0 12.06045604099261 4.657789983533001 1.042199231298017 -1 -1 0
989 0 2 0 1.442958350173173 -2.487138661345355 14.478879268011482 0 0 0
123 0 2 0 -1.577135966800892 6.450319739228597 -0.12714355469196903 0 1 1
2367 0 2 0 2.5722182331852967 13.714174842931003 0.1300405155871881 0 0 0
30 0 2 0 3.5477829807872268 17.852538095754937 7.585639668886801 0 -2 0
999 0 2 0 0.2719525280439555 8.78745346171997 6.05578178414932 1 0 0
644 0 2 0 -4.915814810507195 14.850436665669356 4.094975864809073 2 1 0
146 0 2 0 6.7428104900692505 -0.4666820195653667 5.683621744627712 0 1 0
1339 0 1 0 4.545108035944873 1.4688546496114636 4.471907211554683 1 0 0
695 0 2 0 3.839994193446394 5.936483315645173 14.693700449746213 0 0 0
1521 0 2 0 8.584810094145615 0.6036636336326227 3.4089449779222036 0 1 0
640 0 1 0 13.656261876429179 -0.17769035150038848 5.845946815096403 1 2 0
303 0 2 0 5.90089762149032 9.01045003357907 10.69087014388828 0 0 0
1111 0 1 0 8.759442272316372 12.475822298105467 4.463706381324933 0 -2 0
2511 0 2 0 10.081854779414146 5.515389626722786 12.935478646471934 0 0 0
541 0 1 0 -6.993372299952478 17.22603335422136 1.701145874718637 1 0 0
688 0 1 0 0.5202732865820808 3.830416939735665 4.266574575699862 1 -1 0
781 0 1 0 13.273774372849891 0.5798531063352959 0.2638265667603865 0 -1 0
1289 0 2 0 0.06374655019446676 2.187913706948388 4.795424136648041 0 1 0
540 0 2 0 -1.0128627949421891 5.660446305454008 6.335114035501452 0 0 0
899 0 2 0 9.753113894544907 7.3856800119201305 2.881705196653698 0 -1 0
1248 0 2 0 2.649375059404355 6.595146605665016 -0.11671871019495705 0 0 0
494 0 2 0 9.35939258789611 9.397244380266097 6.454001965547576 0 0 0
1113 0 2 0 8.799250782183003 11.84563601240499 5.218692670513834 0 -2 0
690 0 2 0 1.4257157959707474 4.104333361575771 4.368715489099714 1 -1 0
773 0 2 0 -2.4776034759643766 15.319730888307536 13.77482563524957 1 0 0
846 0 2 0 -3.39773849322337 10.621417062902605 13.267797548022141 1 0 0
338 0 2 0 5.499636463830929 3.0924981593968335 13.35705601573032 1 1 0
1641 0 2 0 0.4074812751443723 11.962407937553696 11.613824086915372 0 0 0
445 0 1 0 1.589422034043682 0.5386874907477761 14.324543037387231 0 0 0
2438 0 2 0 14.02820886344888 -3.646143296662258 10.715820691246472 0 1 0
885 0 2 0 8.294761683557052 -0.5888335628594856 1.7194324797070641 1 2 0
587 0 2 0 -0.8312606682736752 -1.4932393269830788 14.732913195347166 1 2 0
1639 0 1 0 1.138872158043755 11.753361848050869 10.954346878065925 0 0 0
1425 0 2 0 -3.500555428996175 8.354388719895741 14.715291843802216 0 0 0
56 0 2 0 -5.674344807099326 9.179722093816787 15.158721991222038 0 -1 0
1201 0 1 0 5.173622296618811 6.089282297614815 1.4459007050971469 0 0 0
554 0 2 0 2.284910861108318 2.30658342274708 14.274368684346099 0 0 0
1107 0 2 0 2.7501128458760236 -3.1361888684211072 12.234047045466541 0 0 0
746 0 2 0 7.172991914352084 7.519407606651827 11.653886591264003 -1 1 0
447 0 2 0 2.3487297674914007 0.18125885148315568 14.878009600127676 0 0 0
1099 0 1 0 6.598613974959409 18.458694743492433 6.9718505373090105 1 -1 0
49 0 1 0 7.540978291447298 1.357459170415063 14.630076913983425 0 0 0
181 0 1 0 8.531478864547779 5.997649892876126 4.886979503242071 0 0 0
1250 0 2 0 6.14024548012878 17.160863248968212 4.824118952572678 1 -1 0
590 0 2 0 7.17368281207664 -1.2356135704543112 10.641893514008622 0 0 0
346 0 1 0 5.902809314639171 14.131655633100895 8.294195150818632 0 0 0
1182 0 2 0 -7.936258164454639 20.02184253437218 0.5958977021944598 0 0 0
639 0 2 0 -4.591447611325589 9.665913404642687 3.1496916844247433 1 -1 0
455 0 2 0 9.614381899614116 -2.3159994493343743 12.993661404983778 0 1 0
234 0 2 0 -0.3230143572683021 1.1497886005555307 8.203119786862114 0 -1 0
479 0 2 0 7.7436079609564885 3.54709841935771 6.284597388923593 1 0 0
383 0 2 0 2.2134010426719337 12.854251772834516 7.085263652791142 1 0 0
272 0 2 0 -1.6525048233867443 7.231967834920922 5.277143919105267 -1 -1 0
1519 0 1 0 9.226953552684478 0.012952663457016289 2.967942798286628 0 1 0
495 0 2 0 10.29157061108363 10.359034691843366 5.686446027196397 0 0 0
328 0 1 0 7.217651377294851 1.5721124074488146 3.984996540549578 -1 0 0
844 0 1 0 -3.3634653978230507 11.615856433674246 13.213764010784283 1 0 0
148 0 1 0 0.0806292998078621 14.020633173861532 14.833104861068508 0 0 0
562 0 1 0 7.693617699103531 9.617502719734302 3.4601437410426836 -1 -1 0
1700 0 2 0 5.234312677879869 -0.4689397565093607 13.740827934433023 0 0 0
246 0 2 0 9.582672560736428 6.06649638457041 15.110666665520554 0 -1 0
1266 0 2 0 -5.2801389890521335 15.376821604567848 8.196847268738797 0 -1 0
654 0 2 0 -3.372455119314287 15.041821073074692 6.039148547233712 1 -1 0
384 0 2 0 3.024984139506559 13.792035856398025 6.294455005906533 1 0 0
325 0 1 0 11.431419313813326 1.5273036779977534 2.0737543714875684 0 0 0
2221 0 1 0 -0.10375046090526331 17.253541099100328 -0.39912505138678867 1 0 0
282 0 2 0 5.937252027730936 4.9274964257698075 14.776046675377113 1 1 0
147 0 2 0 6.404887281239611 -0.35810179846836565 4.285703319181262 0 1 0
772 0 1 0 -3.299781232282359 14.972932593679428 14.149174546824096 1 0 0
2403 0 2 0 5.849133536650731 14.299912393942893 12.125632439573971 0 1 0
1024 0 1 0 8.21053208080974 8.26942874143639 7.591172635513644 0 0 0
1293 0 2 0 8.696825892833562 6.014943086774807 1.6795038499656636 0 1 0
262 0 1 0 10.938464266876979 -5.0691570590783614 14.386996731030019 1 1 0
382 0 1 0 2.763154977381362 12.855621582167048 6.317262664539896 1 0 0
449 0 2 0 0.8847669367372575 5.094354938315973 2.265034250657906 0 0 0
178 0 1 0 3.104255964251398 11.217850888315626 13.501978318242955 0 0 0
174 0 2 0 14.029687425699002 2.091833855067134 -0.45909209679572416 0 1 0
744 0 2 0 0.013221495886683032 11.846928370874494 7.84417080629753 -1 -2 0
849 0 2 0 9.42465979884809 -1.680996597231034 11.082993735707163 0 1 0
906 0 2 0 1.8383481919853517 16.77126441756448 4.494415796993595 0 0 0
788 0 2 0 10.708559891784477 0.9471014742212165 5.7054747174623 0 1 0
1345 0 1 0 -5.4370204996062155 12.075850237171093 9.143965830740223 1 0 0
957 0 2 0 -1.0406389429691303 3.887033728946992 2.6083685227004283 1 -1 0
28 0 1 0 4.069154656285075 18.585387743289598 7.17717911863075 0 -2 0
891 0 2 0 3.6512230172952314 14.207382361267904 3.9821888625948647 0 -1 0
2450 0 2 0 -3.3644068476538753 16.702146039021038 -0.22445221199594778 0 0 0
1254 0 2 0 -6.165166672222484 15.589886262172032 2.1260043211055373 0 0 0
354 0 2 0 -1.9595925270366608 13.553648775713805 4.051114235884235 0 -1 0
659 0 2 0 4.918541539289498 7.436757077674697 12.39661771173158 0 -1 0
563 0 2 0 8.270808723692209 9.935207366768754 4.151794855230759 -1 -1 0
388 0 1 0 1.6470739795425522 12.100084973080618 4.0991503392944075 1 0 0
125 0 2 0 -2.2976384980918945 18.50914985606182 4.323193758006456 0 0 0
1081 0 1 0 2.801226905559134 4.866426777277198 5.035748519601018 0 -1 0
591 0 2 0 6.263881046615838 -0.016880833628008407 10.139200047515239 0 0 0
2206 0 1 0 -5.214453155069192 19.4032569695901 1.3823123541180746 0 -1 1
268 0 1 0 9.096215169363907 13.29325069987064 0.8815471548501732 0 0 0
269 0 2 0 8.90772649308099 12.36656337779839 0.8956338974196469 0 0 0
83 0 2 0 5.4704750119119865 12.346737756971319 12.19430308186745 0 0 0
745 0 1 0 7.700867114781363 6.98161186042536 11.059278972685973 -1 1 0
966 0 2 0 -4.667792942155759 12.206505422256976 5.505300036772441 1 0 0
1520 0 2 0 9.562903718813331 -0.6808809759378311 3.580312602240763 0 1 0
1041 0 2 0 0.03962083261389898 -1.23311487725721 7.321286329986727 0 -1 0
853 0 1 0 0.8126179294766607 4.331350244250798 8.388349390594225 1 1 0
603 0 2 0 2.9874313552610228 14.97819408542362 14.455372407333327 0 0 0
584 0 2 0 3.7739928971959924 3.9436047451189937 10.833622435326514 -1 0 0
380 0 2 0 10.108331243838661 7.841438236361301 0.888194215383431 -1 -2 0
326 0 2 0 11.475707801132465 2.4778410158685618 1.7541290800064773 0 0 0
1190 0 2 0 9.05610907182798 8.714364719676638 13.842291673502544 1 1 0
438 0 2 0 -4.4968750278482 16.99103068281331 5.119624777484603 1 -1 0
1375 0 1 0 -1.0633253526524515 14.836435731701606 0.5816171793085168 0 -1 0
1072 0 1 0 7.399508248191339 7.566432971501686 14.082064250042741 0 -1 0
8 0 2 0 1.0963657328578247 7.621719976076747 12.32720536345979 0 0 0
865 0 1 0 7.16505759737608 0.4527541687507166 7.040279291983474 0 0 0
762 0 2 0 6.969335665038602 18.447069591985105 3.2444418208783645 1 -1 0
1029 0 2 0 7.82701289335312 17.20220294860781 0.468073406071728 0 0 0
702 0 2 0 -2.597760791558202 13.577564168794503 8.74021421112027 0 -1 0
970 0 1 0 -0.8770742647345525 12.92476512328669 12.67666595364768 0 -1 0
543 0 2 0 -7.631906500793142 17.738792673274922 2.203088816293743 1 0 0
323 0 2 0 -1.774970547806408 2.730285023435436 10.446736196158465 1 1 0
144 0 2 0 3.4522310799906117 2.379322566296802 1.6833000494302564 1 0 0
128 0 2 0 0.0515853592407004 1.1276886157846793 14.523163397918701 1 0 0
353 0 2 0 -1.6079352277250725 12.097193020406074 4.426385427190497 0 -1 0
59 0 2 0 2.457363327191042 4.330549570039606 0.9190130782894199 0 0 0
802 0 1 0 0.821306067278091 2.3325881422236057 10.373856123047519 0 -1 0
65 0 2 0 -0.8518016617288038 3.1039430687645417 13.976516965836538 0 -1 0
1296 0 2 0 2.656701299955916 10.796650888334401 3.0245902238879467 0 -1 0
1262 0 2 0 1.370503433738597 18.83451805659146 5.002420319646192 0 -2 0
721 0 1 0 0.27546903223819524 18.064946587696447 2.1777289059628333 2 1 0
555 0 2 0 2.293015869737741 3.481901827976232 15.124058659043461 0 -1 0
293 0 2 0 14.152068164961614 -1.8657293838206925 14.319819859614473 0 0 0
271 0 1 0 -1.2817485432630487 7.3123027681134225 6.13101927658483 -1 -1 0
1143 0 2 0 1.264084937822447 0.7626249467016621 9.76117166123556 0 1 0
1074 0 2 0 7.45870799650361 6.789013105157833 14.579385027131346 0 -1 0
1062 0 2 0 7.677589630654133 9.129214871097144 9.335499613639428 0 -1 0
749 0 2 0 -3.205709788243225 7.362822371457661 8.354243290798284 0 -1 0
667 0 1 0 6.888595402304045 3.633678956301904 2.1185950711809673 0 0 0
348 0 2 0 6.218403458018746 13.208790125417954 8.220344976633935 0 0 0
972 0 2 0 -1.6194697975966588 12.344541269860654 12.912375666434837 0 -1 0
1241 0 2 0 8.812273480847406 2.027356831195707 11.956975601944256 1 1 0
18 0 2 0 3.3643555492590296 -3.4716486542387184 10.096338309162665 0 2 0
255 0 2 0 6.0405833886875095 2.020851018344604 -0.5386608675590107 0 1 0
973 0 1 0 -0.2750695465495803 10.68909354570511 1.155975043712134 0 1 0
729 0 2 0 2.503512745861489 8.766851169670625 -0.1635236011385981 1 0 0
583 0 1 0 4.409956152063686 3.725562585030748 10.065538000897226 -1 0 0
2509 0 1 0 9.75885892584658 5.104906752181681 12.134030268201135 0 0 0
389 0 2 0 1.8839126839392102 12.516180937270272 4.9804579087012995 1 0 0
2315 0 2 0 -1.0094345475637876 13.257337913259978 -0.7898969710031102 0 0 1
905 0 2 0 3.1204365073074642 17.664533037695715 4.499955503673242 0 0 0
1229 0 2 0 -7.046995022490812 17.654741322983885 7.973383602877066 0 0 0
1247 0 2 0 1.859035268195598 6.824060384190368 1.1673449243197243 0 0 0
877 0 1 0 5.932622591871823 -3.542491464279728 13.013696011366884 1 0 0
1086 0 2 0 -2.3713241538389 10.574310206052072 5.3483161185381265 0 1 0
239 0 2 0 -5.056290562358679 15.98162011109699 14.684592358397085 0 0 0
1174 0 1 0 2.642917343415789 4.481698499319364 11.896449735152663 0 0 0
113 0 2 0 7.59223282651142 13.18716210481978 13.85906960971198 0 -1 0
374 0 2 0 1.7729640559958777 7.12809384594564 3.3765590963016825 1 -1 0
974 0 2 0 0.19074628279860012 11.541536354012035 1.1657318377045987 0 1 0
2402 0 2 0 4.738185805418851 14.405440202322211 11.126813014438428 0 1 1
1071 0 2 0 6.7690053622681425 10.864942558485076 8.428635556389446 0 -1 0
4 0 1 0 10.405888237579456 -2.4909246695747713 8.487832261468105 0 0 0
131 0 2 0 4.976261370139635 15.4879984140921 5.804157886187933 0 0 0
1288 0 1 0 0.15549768998823807 1.270625543142894 5.165428109809439 0 1 0
883 0 1 0 -1.2869450384318635 20.56718787175818 0.8871856495196326 1 1 0
954 0 2 0 6.587744277682998 11.296881627592123 1.0658105627048053 0 0 0
164 0 2 0 5.309418715675956 4.151832396810526 7.001865116928632 1 1 0
643 0 1 0 -5.022024133907285 15.21492302342011 4.955865055342913 2 1 0
339 0 2 0 4.784939394530655 1.8273338838493176 12.695938402885247 1 1 0
248 0 2 0 4.387056117818605 11.65353547896483 2.0154993710448896 1 0 0
653 0 2 0 -2.731303929174336 15.371303266450978 7.31829190805159 1 -1 0
379 0 1 0 10.82959344044019 7.976976565755734 0.24907192639544462 -1 -2 0
837 0 2 0 3.4877543488594522 7.202611306575951 8.59375998236877 -1 -1 0
1093 0 1 0 -4.678175542585684 9.032631627660866 10.737385328814858 1 0 0
492 0 2 0 -2.8570359049540572 5.421056531982624 12.071050468328478 1 0 0
51 0 2 0 6.852237472552854 0.5921977537674366 14.68045015257775 1 0 0
857 0 2 0 -1.2401244518431145 17.66593645445691 6.14123747786691 1 0 0
491 0 2 0 -1.472479279403034 5.119778677619169 12.526800548091696 1 0 0
858 0 2 0 8.248019876857645 -2.2567812287096936 6.483296151358499 1 1 0
878 0 2 0 5.605743991115708 -2.868618778575206 13.624564227267363 1 0 0
525 0 2 0 14.800810303616375 -0.24649294584630005 0.7349200220620828 0 -1 0
1118 0 2 0 6.218119674348532 0.06713882473545546 0.5656181291014097 0 0 0
366 0 2 0 -4.680271592201431 14.814151137389244 12.66142582865442 1 0 0
335 0 2 0 5.627709757140332 9.021287112728766 5.4667183065331875 0 1 0
748 0 1 0 -3.073169801091211 8.210961905397209 7.958434612294306 0 -1 0
180 0 2 0 3.572701488672271 11.450035298007439 12.692467539174409 0 0 0