LAMMPS data file via write_data, version 23 Jun 2022, timestep = 150761000

2592 atoms
2 atom types

0 31.007999 xlo xhi
0 21.374731 ylo yhi
-0.7896735925604368 31.75013261221247 zlo zhi
-9.165637 1.0117795831084588 -10.822019947883268 xy xz yz

Masses

1 1.008
2 15.999

Atoms # full

826 0 1 0 7.086089035189709 17.960097600627208 1.0255899480320019 -1 -4 0
68 0 2 0 3.2665110305071807 -0.8678601468076925 14.99015831679837 0 8 0
687 0 2 0 9.970224967699929 6.4865160838526075 13.714549305289818 -2 1 0
1341 0 2 0 8.11096864936627 11.628011408744609 11.006847021726442 -3 -4 0
709 0 1 0 11.165954266936415 2.4604178121102116 14.810422991973711 7 6 0
140 0 2 0 -3.846102801807749 16.025643814570763 14.85527996611498 2 1 0
1059 0 2 0 2.7719888051193085 4.108260959544571 11.415114977458439 1 2 0
444 0 2 0 11.236586194841808 3.3958023633518106 5.298335945005475 -5 -4 0
934 0 1 0 14.327916480779015 -1.0633636764653494 6.77950535297022 -3 -2 0
115 0 1 0 -1.7212969523108257 11.278762272534813 -0.34933991644430545 3 2 0
45 0 2 0 5.1838306578313285 8.144145045662281 -0.1077895992610679 1 -4 0
818 0 2 0 9.333158765476625 9.645678771500766 7.897012249633255 -5 2 0
935 0 2 0 13.71924119848408 -0.25990551040803656 6.908016749172561 -3 -2 0
400 0 1 0 9.029617654830579 3.786535082670223 -0.20875547103747738 0 -2 0
272 0 2 0 -1.3467572960202665 4.1474797361331195 2.2954509509214325 -1 3 0
1213 0 1 0 7.109202850102025 10.734500376760618 9.996515116054093 3 -1 0
1252 0 1 0 2.4206144617236536 1.1105466806851498 7.747395278859887 -1 -2 0
199 0 1 0 10.775150828719605 -2.266564290175493 9.951260199880648 0 2 0
2337 0 2 0 -5.935911535147926 15.885555403874658 12.317631967053925 3 1 1
716 0 2 0 11.558879346864412 4.493759691441326 12.201410500873425 1 5 0
376 0 1 0 2.300169701878352 11.255455778949193 1.0416309663705723 3 7 0
940 0 1 0 -4.905406650969416 14.64759364004247 14.712458806549638 1 2 0
1256 0 2 0 9.353578700921403 2.2718261948666982 7.637986696320175 -1 3 0
590 0 2 0 0.16671570982279177 2.9122293541532525 7.506654101143361 -1 -1 0
544 0 1 0 -2.666870431819858 7.650936105665832 8.540735984867275 1 3 0
1090 0 1 0 13.939473432029166 -4.75183461302623 14.520188337941295 -3 3 1
1023 0 2 0 4.371921602967819 13.523566665289106 14.89443491697168 2 3 0
631 0 1 0 13.167953186258 -2.6269389215752295 11.113272020302498 0 -3 0
82 0 1 0 4.060773040514699 6.100162864824323 1.0691577517131379 0 3 0
225 0 2 0 -6.703423908381037 13.929458839039594 6.94607125889426 2 -3 0
18 0 2 0 -3.229879566304268 7.023019618644917 15.464922507952284 0 2 0
175 0 1 0 7.263735101724643 6.6591952702576735 0.8450579244080518 -3 -3 0
188 0 2 0 3.935181200040657 3.867139471705213 6.07143982559591 2 0 0
142 0 1 0 3.1403303165647496 0.2028038438898203 4.4967116573602555 3 0 0
1161 0 2 0 3.7028705113277565 6.390866172088277 10.89544553653387 0 0 0
1198 0 1 0 -1.271664538981219 11.047713184001328 3.6630072626054604 1 3 0
445 0 1 0 6.256515409500875 1.190679342185771 5.997624139052411 -1 1 0
580 0 1 0 6.328146725803666 13.785441399639986 5.6994948488996515 3 3 0
982 0 1 0 3.631178224296099 15.969038236070642 11.593417507419078 1 -1 0
152 0 2 0 1.2781103922472186 6.326533297446303 5.975835345691554 2 0 0
945 0 2 0 8.65996080212012 -2.2848031368525645 13.337233543826752 4 3 0
513 0 2 0 11.758034275703631 1.903184821561538 9.599935350753048 -1 1 1
750 0 2 0 2.8664525634569866 17.226137755173653 6.3399967642934945 -1 -9 0
259 0 1 0 -0.816678190711567 15.317641154089799 14.055051900720601 3 1 0
206 0 2 0 1.8687573946772258 19.040418387254686 3.7373016586977315 -1 -3 0
1593 0 2 0 11.331385673001154 7.815088656047456 5.332578608176583 -2 -2 0
674 0 2 0 4.177586813940994 12.40067119069898 3.963083193508634 0 -2 0
1257 0 2 0 9.678208846100134 1.1051404910317353 8.56059219932533 -1 3 0
135 0 2 0 1.273003936453796 0.5502226986950474 7.0355584454924065 0 4 0
987 0 2 0 1.4312707427520048 7.264162399241716 -0.20443042993019855 1 2 0
700 0 1 0 10.483429283975132 -4.514232849178637 13.046438686804445 0 -6 0
1103 0 2 0 8.668263903999314 9.277416537695277 14.772652687498587 4 0 0
153 0 2 0 1.3528536611095532 4.895016485110951 5.754512994543744 2 0 0
2481 0 2 0 12.227949589279064 0.6683887103786121 5.693554895122452 0 0 1
467 0 2 0 6.164867730580297 14.285882840419289 0.10217042291187617 0 -2 0
521 0 2 0 1.338952257798124 13.020239855402906 9.562003654381032 0 1 0
319 0 1 0 3.7650858187199248 8.060387772780155 8.451129490448903 -2 -2 0
1497 0 2 0 3.2438814018122892 0.3145775574469605 10.701526053716995 3 -1 0
780 0 2 0 -4.309836887715161 13.51791739344764 6.552393624933409 5 8 0
1482 0 2 0 -3.762339144872461 13.17452554242665 12.607196133616657 -3 -3 0
1690 0 1 0 11.565627648145995 4.55868817975402 8.113840335205907 0 0 0
313 0 1 0 8.433030531255959 -2.3926971870394333 15.080876986957206 2 4 0
365 0 2 0 10.864390779329241 -1.3699497314359808 14.831218293562447 3 4 0
1168 0 1 0 6.935594115228299 8.400992159847679 3.080195601027831 -2 -4 0
1117 0 1 0 7.690385509163704 -1.359026091803687 7.261887403933457 -1 -7 0
1711 0 1 0 11.942594051555654 -0.14103743937051672 11.957588323006515 1 2 0
705 0 2 0 7.832292274339543 1.327736762784708 1.294911354958065 1 0 0
2505 0 2 0 9.172828441887104 0.40098891009123583 -0.3971005449349155 0 0 1
2258 0 2 0 0.6270114591127938 18.102305136110704 1.3668619301600171 3 3 1
796 0 1 0 -3.496558578803229 15.712643522905374 7.6716164330523196 0 1 0
2233 0 1 0 -7.692778075467366 16.585180280963048 5.601540791116396 0 -4 0
569 0 2 0 -1.793450647386142 11.237613067971344 10.706908303343852 1 -3 0
1085 0 2 0 0.39295476839261473 4.416549103105513 -0.5015309178711409 3 5 0
730 0 1 0 6.206514970164169 7.903091289755345 9.890530207188798 1 2 0
648 0 2 0 5.515287219701592 3.519804533786796 9.297312984752223 -2 -1 0
1195 0 1 0 9.881320650683953 2.4122183477441457 4.324390780073033 1 4 0
321 0 2 0 4.624562658933866 7.890891058689187 8.905215545785465 -2 -2 0
1091 0 2 0 5.672382437451334 16.209340433141694 14.697600592106397 -3 2 1
633 0 2 0 13.268820811525305 -2.335044288977596 12.019647414162637 0 -3 0
905 0 2 0 -5.059058828801999 18.58764170881079 0.3632308920065199 2 -2 0
1447 0 1 0 -0.5120726418996168 14.641795353125017 -0.5354956433398852 -1 0 0
995 0 2 0 11.853477339871212 -0.34359193088086454 0.8241992295855571 3 4 0
186 0 2 0 13.494297233805264 0.8738280452411902 -0.36664435461464956 -2 -4 0
885 0 2 0 2.1265537615629806 10.561125947109812 5.872921653020391 1 3 0
66 0 2 0 -3.109611883070001 14.062004820736314 2.0502826239743417 0 -2 0
914 0 2 0 9.072528304448964 12.878284598897965 5.348898683084265 -1 -4 0
703 0 1 0 7.039620171147716 1.4277609265221982 1.8651411875809156 1 0 0
2329 0 1 0 1.2321849290002902 9.713453611058064 2.842597452633013 -2 1 0
442 0 1 0 11.901666889543353 4.03193914223774 5.450264029120115 -5 -4 0
2170 0 1 0 4.765344191738766 11.989813537458586 0.6290568615475791 2 0 1
2567 0 2 0 5.195467172781059 -0.6867006768930586 8.164166567861322 3 0 1
133 0 1 0 0.5114545946577846 -0.1306412849912677 6.702148140937359 0 4 0
1639 0 1 0 -5.608932276131326 15.749905974936274 2.7352135689890913 2 -1 0
597 0 2 0 10.209257403595386 2.8886700250609527 12.097563926532416 0 -4 0
581 0 2 0 6.826272936906936 14.634142149488763 5.722629683220128 3 3 0
837 0 2 0 -1.5597212155795488 7.546997511731512 4.1895440572126335 0 3 0
984 0 2 0 3.9536604031198395 16.826022473768987 11.233051078792633 1 -1 0
187 0 1 0 3.1335384360412566 3.743745784815441 6.612270051018427 2 0 0
1132 0 1 0 15.102770076346957 -1.7783447120579339 9.289111982431528 4 4 0
1200 0 2 0 -1.32716206098646 10.310333104948594 4.28871366946115 1 3 0
614 0 2 0 -8.509371203013387 19.06680831642339 3.8180257232354498 -2 -6 0
1133 0 2 0 14.506759052723556 -1.903035964412063 10.066127857193521 4 4 0
247 0 1 0 8.06423873464932 7.877892989555072 6.224295952003983 3 4 0
320 0 2 0 3.3745214160021795 8.677839934242787 9.097588349487708 -2 -2 0
1203 0 2 0 -2.1683772648589645 7.47196756929447 13.550350214443307 2 1 0
1123 0 1 0 5.694894310310837 6.092092401655833 7.316671819456385 4 -1 0
2341 0 1 0 6.404846975607344 0.2421455673199775 9.165085561217145 0 -1 0
141 0 2 0 5.940412445161265 -4.094139621823857 14.067109385188733 2 2 0
701 0 2 0 2.053565618529313 16.574200108475175 12.477132127835697 0 -7 0
1267 0 1 0 11.208251849324474 5.764569141542284 1.6256811770020554 0 2 0
706 0 1 0 -3.565255187184893 16.586212905345356 11.235108478373812 -3 -3 0
792 0 2 0 2.774979428181726 15.01395642335651 8.837022668001664 0 -1 0
2 0 2 0 8.183301758205207 -0.05069727213101216 3.459822587735557 2 1 0
865 0 1 0 -2.9772613702239252 9.65369900475297 5.731277843386591 3 -1 0
2445 0 2 0 1.7973177919741787 5.054945483022558 14.069709992963636 -2 -1 1
1696 0 1 0 -0.5031544431976451 17.463129260413787 4.309658673592413 -2 -3 0
280 0 1 0 4.381358487537856 9.28822792157094 2.9524659615565634 2 -2 0
523 0 1 0 0.3903559365996047 8.941756784548337 8.231266481791975 -4 -7 0
1024 0 1 0 -4.694676830350626 8.341423728345013 10.331060119327732 3 6 0
1340 0 2 0 8.020190453823089 12.081984065234607 12.519927192682815 -3 -4 0
139 0 1 0 5.9802687710738125 -4.655696792902908 14.859445547626972 2 2 0
70 0 1 0 -6.86471781127864 19.209117259844323 4.223086909675721 4 -5 0
1173 0 2 0 -1.666786744730132 8.126725223540621 11.331664402229777 0 2 0
756 0 2 0 2.5907147643682 -3.9020233818217704 14.424216943813615 -2 -2 0
959 0 2 0 6.3825360869772 3.2679271104981695 -0.39134506275571845 2 -3 0
2330 0 2 0 0.9714289644328015 8.76991361763704 2.728807210761409 -2 1 1
1377 0 2 0 -6.409411067818954 18.47049602664068 7.164534743157546 1 -1 0
1454 0 2 0 13.830820474827116 -3.1905016321480018 13.964908590064569 -2 -3 0
84 0 2 0 3.805424742740292 5.179441550711104 1.0437737895347112 0 3 0
717 0 2 0 12.106780931867592 3.4869274326194546 11.097059016619543 2 5 0
43 0 1 0 5.2978193668136155 8.997982829667915 0.29275507693461145 1 -4 0
2519 0 2 0 -3.916124269985331 17.395037963487454 4.918524667910177 1 -1 1
535 0 1 0 -0.8430923166274626 3.1512498277260415 13.433464408896898 2 2 0
143 0 2 0 2.4937231054837237 0.7594749262709672 4.050291636610763 3 0 0
762 0 2 0 3.9959586631261854 1.554574053946248 1.502429148847666 0 -3 0
2291 0 2 0 6.029160979944254 -0.0021629172341048886 2.743943090676097 -2 -1 1
1045 0 1 0 8.316909376298852 5.411024530129153 12.421967464823773 0 3 0
1697 0 2 0 -1.3288376962913224 17.844042462456326 4.606988431545287 -2 -3 0
2331 0 2 0 1.3308126697922045 9.74868611241943 3.8315953624217647 -2 1 0
510 0 2 0 -0.02076566343024497 12.81790304818849 2.2881532274764984 1 1 0
377 0 2 0 1.7580060241079558 12.086373504410307 0.9590077006693019 3 7 0
226 0 1 0 -1.959265636954113 2.4594410279325793 9.855252182888144 1 1 0
195 0 2 0 6.9362143430470065 9.961983156837952 0.5884231449052069 -3 -2 0
726 0 2 0 8.22969514767557 4.102733819946597 6.72648041362195 0 0 0
44 0 2 0 4.748340100517264 9.000983713171872 1.1147724204388565 1 -4 0
1261 0 1 0 7.120157532234991 2.895499903999567 13.426244470912089 2 2 0
362 0 2 0 14.994984595543531 -0.771089987919026 4.846935320415738 2 3 0
91 0 1 0 9.732576664481986 0.26874812088524447 14.08936136692359 1 7 0
1010 0 2 0 3.159120618360932 3.025631509561408 2.8321826563442953 2 -4 0
616 0 1 0 -1.9031883857281775 8.671098794607405 0.38990479451339377 -1 -1 0
332 0 2 0 1.4531464353619161 13.6218841546687 3.6359664835250705 2 0 0
692 0 2 0 3.2936598100351997 6.973804124260559 5.028439390459632 1 2 0
1351 0 1 0 8.514239478239325 12.889128396881201 1.6924582907924806 -4 -1 0
1263 0 2 0 7.208703707331296 3.118576702565413 14.378901791060805 2 2 0
228 0 2 0 -1.0579195734972866 2.1218626701676113 10.110737040118535 1 1 0
563 0 2 0 -0.9681466927704985 11.486099501740275 12.85229918480522 1 3 0
866 0 2 0 -3.925156440840458 9.96268791623348 5.937238443274788 3 -1 0
260 0 2 0 -0.28859812973092036 15.966807978355149 13.503237824498878 3 1 0
440 0 2 0 4.777032349228268 -2.860005323459042 10.618229950781476 0 3 0
520 0 1 0 1.077702231393596 12.123542792606921 9.213289470451187 0 1 0
148 0 1 0 4.746965350767843 16.155901611729035 8.484490282947537 -2 1 0
774 0 2 0 -5.892389637153577 18.755937511874492 2.8904044879717876 3 -2 0
299 0 2 0 4.845803509008933 9.467232021804028 8.057386305854719 -1 0 0
2335 0 1 0 -5.850605506640587 14.920324098385693 12.307676187334176 3 1 1
480 0 2 0 -1.2668103482360236 13.017780501920626 8.016853072407775 -1 1 0
159 0 2 0 2.1536686221739147 8.036584482115135 13.828437366048442 3 0 0
646 0 1 0 5.517647432368211 2.846111775011298 8.584632716177952 -2 -1 0
2259 0 2 0 -0.5041114890298481 19.128071839305324 0.8176599342263651 3 3 0
573 0 2 0 5.854521065596 6.16538713423968 10.36229754148395 0 -1 0
1089 0 2 0 1.0894807662174322 1.323001988763365 11.097895168816086 -1 -1 0
173 0 2 0 7.039272503687834 16.41030082466919 6.560639373748259 -3 1 0
1172 0 2 0 -1.2433962279367694 8.189562502803067 9.851124473563988 0 2 0
950 0 2 0 5.893206858734531 4.215028533599762 5.510165976374318 1 -2 0
2343 0 2 0 6.2678864320060805 1.2039771907303978 8.967707604210897 0 -1 1
301 0 1 0 0.9303272029809447 -2.5835307695924548 7.4300760453061265 -2 -5 0
438 0 2 0 -5.499330582881984 12.610276515690494 4.0322672559348804 1 -2 0
760 0 1 0 3.877204656946453 0.6720351454148857 1.112345210265654 -1 -3 0
2342 0 2 0 5.965395820613991 0.24338516079129624 10.019278666258359 0 -1 0
2294 0 2 0 5.16055330233084 5.532230397970302 13.473233476738175 5 5 0
19 0 1 0 -1.1164798100104831 4.890750479490054 10.886758997033931 -2 4 0
54 0 2 0 2.785898787081585 17.0176791259321 2.4897767470289853 3 4 0
629 0 2 0 1.8572241538556686 5.611941805283859 8.44712952267536 0 -4 0
1087 0 1 0 0.5490078850903912 2.12220997932491 10.822543104738358 -1 -1 0
1102 0 1 0 7.681664402083489 9.316608939568884 14.60092329530137 4 0 0
2171 0 2 0 5.467693144718027 11.325269567547632 0.9204059950968766 2 0 1
737 0 2 0 5.952314077549127 8.490235343848525 12.114618049099914 0 -6 0
2558 0 2 0 -5.2168158687942325 11.498855938694932 11.611648705959533 0 0 0
1557 0 2 0 6.1361873809091705 12.619074169856862 4.152974797998834 -2 -4 0
519 0 2 0 -2.2411090720684856 14.614593554979242 -0.06949965703338101 0 1 0
298 0 1 0 5.315416834767655 10.26487000814707 7.958892257090973 -1 0 0
1455 0 2 0 12.999422342272483 -1.9280744817669682 14.346012930415979 -2 -3 0
249 0 2 0 8.14407326888568 7.030226804675177 5.746416545850591 3 4 0
144 0 2 0 3.9921140585758916 0.32519316792566144 4.01934692583925 3 0 0
1047 0 2 0 7.7996086519106775 4.9899708310272475 11.745432287932067 0 3 0
854 0 2 0 0.7889360801704668 15.867491323127512 2.714195356276733 0 1 0
786 0 2 0 3.680024134098638 6.335207437392629 2.7621197767171233 -1 1 0
1046 0 2 0 8.09273051417287 4.942234624736102 13.228621706978473 0 3 0
1589 0 2 0 1.204833833693666 3.200328549625116 3.082113019970698 2 4 0
1449 0 2 0 0.04155347264456197 14.255011173129688 0.10663228808646585 -1 0 0
416 0 2 0 5.0371430429976085 11.705098226600118 11.337455403577582 -2 -3 0
734 0 2 0 2.464685951384907 10.210020158344221 13.077827544995838 0 -2 0
71 0 2 0 -6.706137878601416 18.655197177683785 4.982252981953398 4 -5 0
735 0 2 0 3.2967908324146187 11.305795659997745 12.483661782064875 0 -2 0
470 0 2 0 6.7503324188005775 16.919329408317214 2.4537864438742383 1 3 0
546 0 2 0 -3.471941698245516 8.055427989503768 8.907812400987527 1 3 0
447 0 2 0 5.519825194593341 0.5664253445321799 6.1376439272090035 -1 1 0
238 0 1 0 0.3205258554133382 -1.3467711556719428 12.277961012079034 -1 2 0
282 0 2 0 3.9605245137771266 10.13408365898356 3.1743266412944116 2 -2 0
1015 0 1 0 -0.19211546978160127 6.671691797193435 0.22744881933340788 2 -1 0
343 0 1 0 -4.460167984107585 11.747784345306217 0.25001250397078767 1 -5 0
52 0 1 0 3.028051843865535 17.797785771708288 2.994651866798443 3 4 0
729 0 2 0 5.864445555256473 0.692036378370009 14.577056285931363 1 0 0
333 0 2 0 0.9300292490704757 13.055806677053779 4.933720835129537 2 -1 0
290 0 2 0 -0.07873881143067463 3.0364683155726606 15.12820025666162 1 2 0
251 0 2 0 -3.240312516034597 11.28434400289589 3.5785284456814193 3 0 0
2517 0 2 0 2.73564806574312 2.980087107244664 14.106768108649756 1 1 1
1460 0 2 0 8.942672062007455 3.61419936379943 3.350684877402137 1 2 0
2443 0 1 0 2.24135758336501 4.52916198000085 13.37185930364562 -2 -1 1
696 0 2 0 -0.48212917946840184 15.97270614190231 5.544702661156655 1 1 0
2257 0 1 0 0.49412295913674703 18.884426483211143 0.7900004367922842 3 3 0
308 0 2 0 -2.92783611796086 17.204502851835297 8.293125413892517 1 0 0
1603 0 1 0 -0.36360409063467913 17.337363650821757 10.479649326854759 1 0 0
773 0 2 0 -4.768900166529416 17.992110692008122 2.313311025804567 3 -2 0
2227 0 1 0 4.668540665447198 17.97729589046911 5.324619427738251 -1 -1 1
673 0 1 0 3.6542880383891663 11.618378238921542 4.198505934486464 0 -2 0
584 0 2 0 -3.347883227880683 5.915278647197081 12.50233947829928 -2 -3 0
1002 0 2 0 6.127907411522472 5.015500174974032 1.1399219825742608 2 3 0
913 0 1 0 9.075670643445909 11.934986621921297 5.344524744463124 -1 -4 0
536 0 2 0 -0.25153650289559054 3.1304811408058484 12.649044607762209 2 2 0
2515 0 1 0 2.949126613964088 2.340582168593081 14.774803012085028 1 1 1
172 0 1 0 6.893212481458309 16.50799570331125 5.591954783944201 -3 1 0
595 0 1 0 9.585898787469638 2.102529278596494 11.995015926129744 0 -4 0
784 0 1 0 3.4507003630652093 5.924402490125791 3.6249095951737447 -1 1 0
723 0 2 0 -3.7318265963871005 9.289279563941944 3.0147178788037787 0 -5 0
1182 0 2 0 8.85829051775084 8.739766024495022 11.805449615941923 -1 0 0
539 0 2 0 7.583619616373109 11.001404747978485 14.311761809440677 -3 0 0
1026 0 2 0 -4.991456048004088 9.165852128914645 10.828109638461372 3 6 0
1268 0 2 0 11.840432649843391 5.094478290659316 1.2374583405793889 0 2 0
429 0 2 0 9.25953610515552 10.484079849903052 3.7794710252068944 -1 -6 0
2292 0 2 0 -4.1036205410313995 20.21535431335837 2.59351550115594 -2 -2 1
2199 0 2 0 5.237855492365693 13.287859254570325 1.6227817104581987 3 1 1
699 0 2 0 0.4169516469873714 17.844025910885275 -0.6914861552116914 0 3 0
347 0 2 0 4.733800203754923 1.4315651134057745 12.106970337822547 0 4 0
1699 0 1 0 4.705046275169472 12.390048138966193 9.438260531928425 -2 2 0
394 0 1 0 4.837002294378628 19.489253422727664 1.8118493107890656 0 -1 0
525 0 2 0 1.2125590457948363 9.034097314910268 8.757938134575495 -4 -7 0
835 0 1 0 -2.082545314429901 7.110503440464487 4.926899544350547 0 3 1
524 0 2 0 0.7797096983255014 9.145697106914966 7.349769856260297 -4 -7 0
250 0 1 0 -4.138756943575186 11.018685177058153 3.235181649617899 3 0 0
779 0 2 0 -2.89468939975169 12.982067468745294 6.286286336060288 5 8 0
2532 0 2 0 10.601861940719509 -1.889017116340168 8.390285043973561 -1 0 1
583 0 1 0 -3.010709394385296 6.73934050119178 12.130190913122473 -2 -3 0
840 0 2 0 2.4442996843798195 13.961582879576634 13.595639542809566 2 -1 0
261 0 2 0 -1.460169735630402 15.81193485226999 14.518395183019157 3 1 0
2229 0 2 0 4.637238190448275 18.87612096063898 5.684690510793979 -1 -1 1
106 0 1 0 5.719696051785864 -1.8950635684407753 13.593230389066198 2 1 0
1214 0 2 0 7.826939598311662 10.254687691381019 9.508830836650498 3 -1 0
1119 0 2 0 8.649537385659865 -1.4066039960165246 7.304876169196767 -1 -7 0
417 0 2 0 5.043138564391429 10.626563763096438 12.397553704361892 -2 -3 0
1480 0 1 0 -4.3427548665216165 12.42492668084911 12.79553780792132 -3 -3 0
1202 0 2 0 -1.3975767872065654 8.243832633152653 14.626717944973192 2 1 0
910 0 1 0 9.060691252350315 0.0792484466390233 9.793620511670683 -2 -2 1
1496 0 2 0 2.2240479012677152 0.06846048948618888 9.569983166593238 3 -1 0
446 0 2 0 6.8974573465186975 0.6733951429431042 5.425489816860486 -1 1 0
1178 0 2 0 -0.9839050073125727 14.086510970329297 4.93736699212931 -5 -1 0
593 0 2 0 0.6624237158923514 6.382584946415793 12.755814536088694 0 -1 0
335 0 2 0 -5.740104508752062 15.502931972028353 0.7079741880880179 2 -5 0
378 0 2 0 1.7674669384929165 10.651431936405302 1.5422454267731904 3 7 0
1042 0 1 0 -1.1644629016240646 3.6299690808568874 3.9599843068594556 0 0 0
3 0 2 0 9.156228102861164 -0.826854267672545 4.397367904419023 2 1 0
2504 0 2 0 10.095574495716553 0.6633769023509382 0.8525212061852148 0 0 1
331 0 1 0 0.816399147605321 13.038495068107636 3.9708121427455714 2 0 0
640 0 1 0 8.540412814686949 6.132676898807283 15.11098125550587 0 -2 0
1208 0 2 0 6.627210443160622 -1.7215562565437386 5.770673805942786 1 0 0
488 0 2 0 -2.3760329422886106 19.026619051794373 1.25932568563131 -1 1 0
248 0 2 0 7.582757303270391 8.503604653121073 5.637083981764397 3 4 0
1701 0 2 0 4.055731174557755 13.110343422151445 9.702055634664001 -2 2 0
828 0 2 0 6.57433978829231 18.765595148005385 0.9600194484007354 -1 -3 0
827 0 2 0 7.408280100634263 17.69260597799042 0.18917557659617723 -1 -3 0
1481 0 2 0 -3.7531274481856913 11.645868025555743 12.966155526327327 -3 -3 0
508 0 1 0 -0.027527236632247418 12.7113929870379 1.3565002932479846 1 1 0
1448 0 2 0 -0.258251141231283 15.581140949920044 -0.7305097540419379 -1 0 0
1339 0 1 0 8.586625872278121 12.034856095577098 11.719428470928682 -3 -4 0
2401 0 1 0 -0.46040951897938875 14.55394357826664 10.688765617229043 2 2 0
176 0 2 0 7.004976184972178 7.3873720789122 1.472227635249586 -3 -3 0
1215 0 2 0 6.350089504650455 10.788510090913913 9.350472157803418 3 -1 0
704 0 2 0 6.682121097395129 2.3288932940104496 1.861091532096943 1 0 0
1092 0 2 0 4.196663998392843 15.862958988833345 14.258220914973558 -3 2 1
478 0 1 0 -1.2971081131690019 13.947666019476756 8.079856443549177 -1 1 0
391 0 1 0 -2.5850927956967116 14.308774804808726 12.374590848678826 -3 -4 0
2386 0 1 0 7.324863472515883 -0.021105188339450187 12.307023866657662 0 1 1
727 0 1 0 5.119190255293186 0.9983421698487938 13.937495308486449 1 0 0
790 0 1 0 2.507773695740855 14.530940787077494 9.605232211654084 0 -1 0
1604 0 2 0 -0.4321090438849269 16.41349431183098 10.734037772568337 1 0 0
1541 0 2 0 3.1588559550324256 -3.0775606343179396 12.297500307749063 -1 0 0
244 0 1 0 0.12729001663490125 7.154291787282486 3.2065880661073187 2 1 0
2293 0 1 0 4.89727760095335 4.738747639121546 12.96869012618621 5 5 0
1125 0 2 0 6.354721422075824 6.777887888429181 7.054147192707982 3 -1 0
572 0 2 0 5.64813828626262 4.9537811134783 11.28280154221089 0 -1 0
990 0 2 0 7.627900273986401 10.86212983959295 5.650682709877848 2 -2 0
1691 0 2 0 10.812663546797044 4.187085372213923 8.5521275742784 0 0 0
772 0 1 0 -5.2199849845832675 18.76166705435441 2.2332189810142187 3 -2 0
2206 0 1 0 12.3159184633042 1.1664265150223108 3.755781439086059 2 -3 1
582 0 2 0 6.820368001465477 13.263823175881953 6.358453373584302 3 3 0
346 0 1 0 4.6577621615776685 1.3811906013347235 11.110836371504876 0 4 0
630 0 2 0 3.1827117526720876 6.395676875837079 8.63929939538571 0 -4 0
1241 0 2 0 6.546686967664824 6.774597328771881 3.613503353436329 1 5 0
529 0 1 0 8.89160054955882 5.372305691111278 5.597188384110004 0 -3 0
2516 0 2 0 2.3458969912008127 1.5888510818519226 14.643870698701628 1 1 0
241 0 1 0 -2.7258885450447075 12.924292231560685 15.05019100188652 -2 -1 1
941 0 2 0 -5.082563795218988 14.710691406075686 13.69920078636169 1 2 0
628 0 1 0 2.79303107620773 5.502788625635591 8.617888194362507 0 -4 0
1122 0 2 0 0.826813283453021 0.8948308004658603 0.8720869191426408 2 1 0
686 0 2 0 10.704903792291432 7.0099972639305035 12.452547757059927 -2 1 0
370 0 1 0 -2.5523135128345396 17.28180098463004 2.196282343516809 2 -3 0
371 0 2 0 -2.6969772750272925 16.48542285585365 1.7148232761196773 2 -4 0
1120 0 1 0 1.4502781553597073 1.1353949334752322 0.1922805625143278 2 1 0
1453 0 1 0 13.70709748856959 -2.2374566322904332 13.731823078435644 -2 -3 0
2403 0 2 0 -0.7220024857342812 14.296536440191119 9.7794571212981 2 2 0
1317 0 2 0 -4.087587231989098 13.182889110228805 9.547905667074813 4 5 0
1021 0 1 0 5.20788227878211 13.219823398257937 15.204886147791152 2 3 0
193 0 1 0 7.342100116464312 10.789713103753076 0.7874298751976658 -3 -2 0
1170 0 2 0 7.657597954012853 9.058331627665426 3.0290669077719787 -2 -4 0
205 0 1 0 1.420398738234384 19.59061479694996 4.403647655926389 -1 -2 0
1159 0 1 0 3.459648006078038 7.1665081654356415 11.458534418479928 0 0 0
1185 0 2 0 -3.903852158922384 11.296820352096026 9.958982943182782 1 3 0
728 0 2 0 4.3292639783465665 1.406659050633614 14.327510004485065 1 0 0
2192 0 2 0 0.11587775133037109 6.945485167641253 8.871990029964204 1 -4 1
2208 0 2 0 13.188136409098199 1.54545504731272 3.3897811496463692 2 -3 1
395 0 2 0 4.487292151201253 20.185712843850585 1.222288994283343 0 -1 0
919 0 1 0 3.1443152889461894 14.612682409775141 3.65052307054036 0 0 0
1044 0 2 0 -0.5351446421715835 4.328402609865367 4.380675454622833 0 0 0
568 0 1 0 -0.876136159412143 11.246974847642772 11.101436476352262 1 -3 0
65 0 2 0 -3.125861770001409 13.77568436288301 3.625328761715508 0 -2 0
800 0 2 0 -5.007018493697579 11.342223603831904 6.980619497204439 -2 -2 0
1605 0 2 0 -1.0434493893150896 17.527956004729717 9.835282941838658 1 0 0
658 0 1 0 -3.4809866409893075 9.920049396444952 13.319097471043039 -1 1 0
785 0 2 0 2.8473476186248345 5.245368672537402 3.466221716907146 -1 1 0
1016 0 2 0 -0.8391211616159888 7.39669096998358 0.12506067111236308 2 -1 0
1226 0 2 0 6.324762451432708 13.431229490746677 9.462224341561484 -1 -1 0
867 0 2 0 -2.871061692468979 8.763668608943632 5.459082529949685 3 -1 0
906 0 2 0 -5.09646084992873 17.40097036925745 -0.635462731685581 2 -2 0
904 0 1 0 -4.824732767144753 18.343129947581552 -0.5841824578823225 2 -2 0
428 0 2 0 9.864372429688183 9.69152683751757 2.774754163707686 -1 -6 0
594 0 2 0 0.2423522925273376 7.529663744097775 11.667290270578233 0 -1 0
1347 0 2 0 2.5129442716287267 10.146406080053403 10.901587875089373 -2 -1 0
1461 0 2 0 7.787971434699204 4.3890784109929735 2.50008448873348 1 2 0
732 0 2 0 6.338295033824501 8.826379066461381 10.213800018157558 1 2 0
2451 0 2 0 4.590545692053562 14.422095926133775 6.079873612666372 0 -1 1
502 0 1 0 0.551462438859702 6.0061823754138395 15.164314244679847 1 2 0
334 0 1 0 -5.5867622754276125 15.750274219953237 -0.22859339839869697 2 -5 0
174 0 2 0 6.0634428689474635 17.0447079528592 5.588315455613256 -3 1 0
348 0 2 0 4.25095214421584 2.291183727862883 10.924814371158776 0 4 0
20 0 2 0 -1.8167058111358103 5.404039507214621 11.328414924745116 -2 4 0
545 0 2 0 -2.1722719831619828 8.407684795117401 8.195059250069416 1 3 0
1001 0 2 0 5.357494662902806 3.9419928618161624 1.8715727101414816 2 3 0
464 0 2 0 12.147405273639846 6.160675889426768 3.3293396081145223 -4 -3 0
1316 0 2 0 -4.4049566584145845 14.682272850618322 9.431517883058907 4 5 0
1206 0 2 0 2.606521307068904 13.16713241576399 6.538144147307717 2 -1 0
372 0 2 0 -1.6396287049086284 17.083830253302114 2.5845489089773013 2 -3 0
2172 0 2 0 3.9112586481180944 11.576738892978401 1.046321932322027 2 0 1
531 0 2 0 9.839109306868872 5.393296324147453 5.543320443290142 0 -3 0
336 0 2 0 -5.776607113752331 14.905108228560714 -0.6841880221800994 2 -5 0
1088 0 2 0 1.3000875309855844 2.583157257656085 10.41835670130217 -1 -1 0
951 0 2 0 5.8249255338116654 2.6012801309396782 5.466693435716375 1 -3 0
702 0 2 0 10.378903585598376 -3.6078052658604585 12.782567080130956 0 -6 0
393 0 2 0 -1.947855210617799 14.605090394301506 13.102422238749236 -3 -4 0
21 0 2 0 -1.6270340653188475 4.213410347452144 10.44645834779823 -2 4 0
589 0 1 0 0.0687709723622516 3.429807164583134 6.738167778546639 -1 -1 0
596 0 2 0 8.765236199787392 2.4894726830488647 12.274200371088478 0 -4 0
1196 0 2 0 9.438287806787423 1.527209200264134 4.60959290550062 1 4 0
1166 0 2 0 8.845142865281453 5.958030108107397 8.681561617345256 -2 1 0
2480 0 2 0 11.303143483788713 1.094843942386118 6.886571614887393 0 0 1
1171 0 1 0 -0.9851756365402163 8.493637898739827 10.708494858049386 0 2 0
532 0 1 0 2.686338261707382 15.442572998328808 0.19256938633563592 -1 -2 0
2566 0 1 0 4.57886144217966 -0.6185654287357356 7.401943628942492 3 0 1
281 0 2 0 3.893340217670369 8.677104372321715 3.532450643661744 2 -2 0
522 0 2 0 0.43640068579634017 11.752372463558288 9.880957839104488 0 1 0
1470 0 2 0 -0.7607052361513189 10.218147538675307 7.716608558923641 0 -1 0
1253 0 2 0 3.2382979457915453 0.6146551543163525 7.6216655478199105 -1 -2 0
1641 0 2 0 -5.271679110464378 14.879534730747803 2.8769805824208032 2 -1 0
200 0 2 0 10.267065163533621 -1.581540806817928 10.414209944306608 0 2 0
632 0 2 0 12.284799347993664 -2.3513916425668895 10.912867253970733 0 -3 0
2228 0 2 0 4.024168521718219 17.92275323801857 4.610150960095727 -1 -1 0
715 0 1 0 11.553201522813207 4.264297655089256 11.257118450001725 1 5 0
814 0 1 0 -7.777153303313809 18.865853539109395 0.4496401210313914 0 -3 0
1084 0 1 0 1.223064963924949 3.9694957752000954 -0.37154421016785266 3 5 0
1009 0 1 0 4.0775615101453 2.7327082641116185 2.832842354664227 2 -4 0
1104 0 2 0 7.638786677809113 8.959635667205852 13.689610513599485 4 0 0
976 0 1 0 -0.1495205469934573 9.574109590169176 14.95779125130414 1 3 0
245 0 2 0 0.7084717115208479 6.606145021449221 3.668149904221389 2 1 0
855 0 2 0 1.444802131832715 15.791647241120865 1.335538509080601 0 1 0
1199 0 2 0 -0.4943807138393386 10.863464629334688 3.1331930224401665 1 3 0
465 0 2 0 12.239148289120363 5.676615111239634 4.730197682119964 -4 -3 0
1197 0 2 0 10.782067266715298 2.168683756621924 4.060008182658933 1 4 0
1209 0 2 0 -3.0586302677330433 19.58149320751178 4.365758105546682 1 -1 0
2402 0 2 0 0.40615632514914 14.1611284905587 10.876341361939307 2 2 1
302 0 2 0 0.7996257529761035 -1.681357167596301 7.078667280598222 -2 -5 0
246 0 2 0 -0.14502869884785083 6.8839413604034 2.3273687540203936 2 1 0
978 0 2 0 0.7011915240396975 9.14194457934612 14.91889982345702 1 3 0
797 0 2 0 -4.036446077042601 15.751183865283856 6.907076840667127 0 1 0
2479 0 1 0 12.046215714481397 0.527265367690795 6.68497180147279 0 0 1
53 0 2 0 3.6849118977616273 18.282493327304206 2.4545752878769784 3 4 0
2444 0 2 0 3.1246058413328064 4.940847376836192 13.171955094000232 -2 -1 0
1227 0 2 0 7.434159439568743 13.696970474766594 10.485187061936427 -1 -1 0
2197 0 1 0 5.178288096784214 14.208126169469601 1.9794124343046553 3 1 1
471 0 2 0 6.895520121054509 16.352639592998642 3.8835094756228425 1 3 0