LAMMPS data file via write_data, version 23 Jun 2022, timestep = 26000000

2592 atoms
2 atom types

0 31.007999 xlo xhi
0 21.374731 ylo yhi
-0.7701410782799307 31.730600050261643 zlo zhi
-9.165637 1.0105649108979715 -10.80902778328517 xy xz yz

Masses

1 1.008
2 15.999

Atoms # full

2365 0 1 0 -1.1174913776619042 16.723361855814698 9.050561398643508 0 -1 0
1137 0 2 0 9.53612812099204 9.602726944443226 0.5811160306114127 0 0 0
750 0 2 0 9.66629489914883 7.9242525815712765 3.9248963102612384 1 -1 0
640 0 1 0 -1.223446816635514 16.572895473021582 1.763099621491353 0 0 0
192 0 2 0 1.8803537043857808 15.729113614478909 1.0191682159922746 1 0 0
1459 0 1 0 0.8554239172393472 15.679276796477616 10.746675096843363 0 -1 0
1116 0 2 0 5.227693448102736 3.3623747886739404 11.729371340133678 0 0 0
846 0 2 0 9.315655199155177 -0.6513312386771748 15.021731074313404 1 1 0
669 0 2 0 7.317747225545143 -1.4207561469846635 13.89710096362198 0 1 0
1340 0 2 0 6.161310167326191 17.05935745842756 1.5998589801184209 0 -2 0
547 0 1 0 3.5408818415175056 0.5550459483595702 10.849437634033807 0 0 0
686 0 2 0 5.600815161837132 11.228930438805826 1.2552665408338766 -1 1 0
797 0 2 0 -1.1454452608593757 9.759500445598 15.2290381311517 1 0 0
448 0 1 0 -3.1284123942703728 10.557131202494896 14.84280621438863 0 -1 0
1162 0 1 0 0.842723374587526 6.7975867102046035 0.3599512776443823 0 1 0
368 0 2 0 -6.209111981073341 17.58478080146248 5.269017344965035 0 -1 0
1034 0 2 0 9.974947811875317 5.598684126798101 4.423723904682312 1 2 0
688 0 1 0 -2.919508480283425 14.715898719417012 9.61426635289168 1 -1 0
358 0 1 0 9.430338492932252 1.4838469599108417 2.193183565837307 -1 0 0
1712 0 2 0 9.6520606651081 9.469117595511172 12.067546897594575 0 0 0
745 0 1 0 -0.2577159254398767 8.011792288334005 9.65518017984736 -1 0 0
1133 0 2 0 12.680284323054932 -0.17955918445241448 3.8589934492667455 1 1 0
199 0 1 0 11.957667084121258 0.8066480193856287 6.642269181421085 0 1 0
1259 0 2 0 -7.157334732262642 14.869240969946953 10.20701725345238 1 -1 0
1149 0 2 0 4.891496594014022 -1.4658177687015956 14.845783666583559 1 1 0
2259 0 2 0 9.438221505274765 2.481090836322933 5.226767094958554 0 0 0
121 0 1 0 -2.9797122947768284 8.963264113180763 2.16334143359282 0 1 1
1213 0 1 0 -2.1179340051346465 13.12438043534502 15.021013789341877 0 -2 0
243 0 2 0 13.561974813171611 1.3280270432165433 1.397343124102031 -1 1 1
241 0 1 0 12.611672161572473 1.3909611827887245 1.4580869391638176 -1 1 1
602 0 2 0 3.5709852881912822 9.89828882941723 4.48115805671974 -1 -1 0
2221 0 1 0 -1.999195968443394 15.614520244797403 13.156015060723734 1 0 0
1461 0 2 0 0.4610738469231993 14.938470083501281 11.242813482636972 0 -1 0
284 0 2 0 14.402586700129557 -2.9502740112532635 13.130837230620065 -1 1 0
840 0 2 0 10.43761498469921 -0.7155963135432217 10.973393438171298 0 -2 0
729 0 2 0 -5.2882994057168755 15.690522481342153 11.474899377334783 1 0 0
2193 0 2 0 8.338466914204565 8.152850300618331 0.6307443819263443 0 0 1
1648 0 1 0 14.526368044584023 -1.989870048034838 6.448209627595082 0 0 0
1557 0 2 0 1.7226678590723046 12.826590482115403 2.9594792408360133 1 0 0
864 0 2 0 3.9476943824598254 17.99993900586072 3.8885385770408485 1 0 0
859 0 1 0 -3.859100428167351 13.633605389102705 7.280255841987726 1 -1 0
1163 0 2 0 1.388981783723683 6.039515681153848 0.6306101994107844 0 1 0
436 0 1 0 0.9899766454169572 -0.9754090135065616 13.365774661140563 1 0 0
773 0 2 0 -0.027570076394630924 14.10494502803498 2.5566519134148087 0 -2 0
2223 0 2 0 -2.274438241064871 14.696473897611057 13.335856563404443 1 0 0
1138 0 1 0 0.7065773114334405 7.889864114524341 12.507924294994048 1 -2 0
204 0 2 0 1.7833414764528919 14.160631452753723 5.912135132316757 -2 -3 0
976 0 1 0 9.462111401994562 -0.9470079469164729 4.368438365556132 0 1 0
355 0 1 0 -6.9563239779190065 18.246334461973756 0.16862004742554637 1 1 0
848 0 2 0 -0.9573292047977349 2.087279544024245 11.84708674769091 0 1 0
244 0 1 0 5.736156856929456 0.17107576882121034 9.175992387018956 -1 0 0
722 0 2 0 -7.014164946408351 19.67409948821337 2.805663954543235 3 0 0
489 0 2 0 4.193302882766171 11.118250308934687 13.28158277277786 0 -1 0
420 0 2 0 -3.879109697873866 9.858753690652193 9.32236636813627 0 -2 0
1006 0 1 0 2.642608631623302 -3.99046722794408 14.18709483221858 1 -1 0
728 0 2 0 -3.777297472395274 15.333173137724494 11.263118463587816 1 0 0
1447 0 1 0 0.17414263650224296 5.390445857494554 3.58192312635385 0 0 0
360 0 2 0 9.059207001501083 2.2468389884069007 1.6637361102363064 -1 0 0
676 0 1 0 13.929070008725759 0.04419811768844428 4.872269964682478 2 0 0
1078 0 1 0 -0.1395668526470894 -0.7892772444911205 9.320850120766783 0 -1 0
182 0 2 0 2.389106073219555 0.0015175158372811026 7.2014392141730035 -1 0 0
1005 0 2 0 1.3393691079469217 3.7035682060341344 1.3565282967673893 0 0 0
549 0 2 0 4.435065496565502 0.37317605956513766 10.416709586849443 0 0 0
1219 0 1 0 5.305355566023111 2.2758635518490298 1.0694244031127262 0 0 0
74 0 2 0 3.7152242281687435 0.201938219944215 13.769809031118129 0 1 0
975 0 2 0 5.303456947705941 -1.0593156500192311 7.529803645761717 0 1 0
622 0 1 0 4.7046145500126535 6.772330992906753 3.3472619204185206 0 -1 0
76 0 1 0 5.887667386467784 16.04215264336708 9.423710829120996 2 2 0
801 0 2 0 0.8872200442267788 11.995571318083844 14.792759709611689 -2 -1 0
1150 0 1 0 -1.7380048197831235 3.824222643867987 1.0038499891214911 1 0 0
1114 0 1 0 5.677720305806954 3.17312088311139 12.549510574653088 0 0 0
275 0 2 0 3.0134629404304665 3.5724607126187475 10.762359966494973 -2 0 0
907 0 1 0 12.233768754401282 -2.607027095852633 8.275397411875868 1 -1 0
649 0 1 0 8.284455631253998 4.0884028313402805 5.507615701698849 1 0 0
1176 0 2 0 -0.9697815668468279 12.862335779918737 11.599339738149416 0 0 0
668 0 2 0 6.125808959318728 -2.377413753240414 13.575425200653019 0 1 0
329 0 2 0 0.5267672118419682 2.7753132924088746 3.2392504636570845 -2 -1 0
2460 0 2 0 -0.5031005117684458 11.283933701548312 0.6644244302276465 0 3 1
1107 0 2 0 3.2022948398729416 15.896535841155973 3.0955426290388437 0 -2 0
1043 0 2 0 8.449105628090415 5.216231924737902 14.354046720119172 1 2 0
1048 0 1 0 0.9601820316135159 15.710289873406007 13.916440314166369 0 -1 0
597 0 2 0 -1.7620403112410146 6.14928100981362 14.086007098507272 0 -2 0
18 0 2 0 7.189452495365904 3.100282638992935 8.439117162312225 0 1 0
600 0 2 0 6.356230605226452 18.98360220454606 2.9521463599022413 -1 -1 0
741 0 2 0 0.27080220227304463 8.04644700126524 6.093814699094268 1 0 0
211 0 1 0 1.5986721172307243 4.132870646490902 7.4462433255178375 -1 -1 0
861 0 2 0 -4.830355095965137 13.27437276815845 7.35565887643604 1 -1 0
457 0 1 0 -1.9593431462972555 11.95445290939514 8.258250678021838 1 1 0
179 0 2 0 5.850567499078787 14.570710597259307 13.682895615032082 1 1 0
2379 0 2 0 0.14404587947408995 17.360062172642003 4.7081799167442 0 -2 1
916 0 1 0 8.559726681931215 -3.210394452756995 11.877826733207975 0 1 0
2459 0 2 0 -1.0242281103840394 12.004184544997754 1.8506617479183975 0 3 1
1101 0 2 0 9.352027486596848 10.379208546009295 5.123485213804705 1 -1 0
2485 0 1 0 5.646761033490768 20.464838221540997 -0.6632545528941266 0 0 0
103 0 1 0 -2.0840460267809746 17.518830290675048 -0.5193792465710858 1 0 0
294 0 2 0 5.976385179096891 17.784936149964214 5.737684574593579 0 -1 0
1145 0 2 0 8.693354783679677 11.036263250760786 14.873132698980777 0 -3 0
1180 0 1 0 5.4659096178116275 6.235391487152749 13.19118112828365 0 1 0
345 0 2 0 -3.3763093430235207 14.269863348643815 0.2598091145067527 1 0 0
1296 0 2 0 -1.1502719884844383 6.326280913988323 1.0747268908530803 2 0 0
942 0 2 0 3.8120063832944613 1.6347317046669754 7.800176654337291 0 1 0
723 0 2 0 0.8310848100601089 -0.9675284101172678 2.538545742935419 3 1 0
286 0 1 0 5.282996952187494 -2.771147703551354 11.921155298222427 1 2 0
315 0 2 0 4.821152639780405 10.618100898144204 6.9878752139701295 0 1 0
727 0 1 0 -4.366262898809617 15.972655438216787 11.700559761038843 1 0 0
404 0 2 0 -3.8345538461956696 5.5962210968469 14.160361707153585 -1 0 0
1044 0 2 0 8.856557209554923 6.48734430975319 15.088878310511737 1 2 0
601 0 1 0 2.5782282503023892 9.890929525039251 4.488669635401427 -1 -1 0
1118 0 2 0 4.921826930405615 0.25176777667131356 3.9379635835473357 0 0 0
1424 0 2 0 -0.8171357468432028 10.677057403214416 11.967173848291576 0 0 0
532 0 1 0 7.9474397444101585 11.648689657114785 3.1399956100567206 1 -1 0
264 0 2 0 2.686065576880315 7.997264129325612 11.93828253439399 0 1 0
1104 0 2 0 2.4906897272542277 7.3444878777038145 9.110783310874247 -1 0 0
141 0 2 0 7.2342161051447365 4.594223512104711 1.0764020218811088 1 2 0
2378 0 2 0 1.1895929636189047 17.120428145622835 3.6025294343205996 0 -2 0
507 0 2 0 4.082432559437787 16.346490484753712 14.064571534666307 -1 -3 0
647 0 2 0 -4.379093170353778 9.775613022568898 6.753924495054852 -1 -1 0
49 0 1 0 10.160921611923847 2.0541523225373917 14.942270238275546 0 0 0
488 0 2 0 3.361299650573989 11.193213839127111 14.612649779187457 0 -1 0
1398 0 2 0 -5.101128182647857 8.726661383397897 12.931948277869296 0 0 0
1132 0 1 0 11.970253027335746 -0.5258946857874234 3.271157996446334 1 1 0
1017 0 2 0 -5.715389347658857 12.730553369029533 10.396437377810976 2 -1 0
287 0 2 0 5.025262767616097 -3.7554970497525395 11.911849081603458 1 2 0
1144 0 1 0 8.143667728082233 11.361795814785465 14.148639098081869 0 -3 0
2305 0 1 0 0.5951630978208733 1.0728611030959776 11.383494453234535 0 0 0
877 0 1 0 -6.04845755986745 17.067937261637976 3.333514709515091 0 -2 0
474 0 2 0 -0.5320672518455297 5.017070700085439 11.820814701201467 0 1 0
482 0 2 0 4.546943395838516 14.785473526697578 0.5268854228854976 0 0 0
1229 0 2 0 -6.702608336530883 18.335903216407658 7.97907567530055 0 0 0
203 0 2 0 2.3985240303005555 12.90095774655451 5.217027549806916 -2 -3 0
534 0 2 0 7.491366664186634 11.13415871380268 2.4642483004139333 1 -1 0
1245 0 2 0 2.757059548897872 -1.3192984941626875 10.612780925620207 -1 -1 0
1033 0 1 0 10.262161776021074 6.4111945351465085 4.911888439189677 1 2 0
1270 0 1 0 0.3700158053252046 18.859096095598396 0.9870440262531259 1 0 0
699 0 2 0 -2.954610520985302 11.43280272457538 0.3811883205850759 0 1 0
1070 0 2 0 9.718064683083934 -3.206133741857271 14.978884386697922 -1 1 0
1061 0 2 0 2.255550103889742 14.369362266577514 13.115623182757538 1 0 0
1639 0 1 0 6.1432696795541855 6.174369441023574 7.939860758846184 0 0 0
1068 0 2 0 6.9738916369282276 3.0353123776536046 14.988107133739828 -2 -1 0
1164 0 2 0 1.3285945118571978 7.51369868457767 0.868980703355041 0 1 0
800 0 2 0 0.9572299745577703 13.404373047679128 14.609050542035936 -2 -1 0
2163 0 2 0 -4.5710736248101735 19.734844373465535 3.391158603434448 0 -1 1
1080 0 2 0 0.2768998724096609 -0.0718979589326274 9.857719220241254 0 -1 0
442 0 1 0 5.5075925208196175 3.6757734412452 5.778762449287109 0 -1 0
548 0 2 0 3.6272306215766674 0.7617279569490734 11.807128289429759 0 0 0
1339 0 1 0 6.565178234732421 16.52517232245017 2.2673813425908094 0 -2 0
1665 0 2 0 -4.0515843026287985 12.37535866028332 3.603979282025411 1 2 0
687 0 2 0 7.000642034286287 10.75651754813192 0.6610330396273603 -1 1 0
305 0 2 0 0.15836667931818343 1.8615867974350673 7.6014840568736535 -1 -2 0
885 0 2 0 1.9402261343319203 3.54346832795412 5.497283092746145 2 2 0
169 0 1 0 1.7502371169743092 0.33572863297106803 4.811199644075279 0 0 0
1269 0 2 0 7.10159049491458 8.737654998694374 9.440624881433706 1 1 0
106 0 1 0 10.069430924135375 -1.3224656522091658 7.177219873612543 1 -1 0
884 0 2 0 2.562821832706499 3.740169304851795 4.101994412190267 2 2 0
785 0 2 0 11.634696425796195 -1.6880681406174989 14.926556680649535 1 0 0
1099 0 1 0 8.934285950388215 11.032312036200151 5.70236512400696 1 -1 0
807 0 2 0 9.574770161209072 7.991557547815178 10.152769121657517 0 -1 0
974 0 2 0 6.294414049164539 -0.7287651034476605 6.332560406154913 0 1 0
213 0 2 0 0.8009050939630329 4.5940074548276355 7.740755146429535 -1 -1 0
224 0 2 0 5.2453724039028105 12.598983993544643 14.562172086648708 2 0 0
984 0 2 0 2.8166573352994684 13.017572999398848 10.91693636830509 0 0 0
1004 0 2 0 2.7230115854788104 4.400078750115704 1.549754213745559 0 0 0
313 0 1 0 4.420050691530024 11.005832905566367 7.792581606267538 0 1 0
2386 0 1 0 3.35251054494668 4.540485192024272 13.769656914307166 0 0 1
293 0 2 0 5.471702639044338 16.38826146038476 5.650625419260416 0 -1 0
1226 0 2 0 0.3631393949203179 5.3850184151645974 14.812102102912718 1 -2 0
1187 0 2 0 0.33486094040922243 3.059115158052447 14.844561695407673 0 0 0
164 0 2 0 5.356307041114353 13.06606281275918 9.723597780126964 0 0 0
918 0 2 0 8.463763322548669 -2.929529694858326 10.937424182645081 0 1 0
114 0 2 0 -3.514431748560769 14.289663763497193 2.863196029975896 0 -2 0
596 0 2 0 -2.264398375587447 6.498727810063701 12.68896669415172 0 -2 0
1247 0 2 0 -3.865892483905099 17.30221032903363 0.22159221033308707 0 -1 0
2341 0 1 0 8.96323290960936 -1.0665892032201962 9.875076561536112 -2 -2 0
2521 0 1 0 8.11642089552952 1.3600235607821074 8.210931385097897 2 1 0
201 0 2 0 12.387276122363364 0.8677884931966569 7.502322122478967 0 1 0
1181 0 2 0 6.2005918591365035 5.941154340509464 12.637056000130881 0 1 0
1449 0 2 0 1.075888047058159 5.785966069322825 3.6976824779457207 0 0 0
930 0 2 0 -0.6412502274277356 2.8265280287426644 5.7510501769814875 1 0 0
163 0 1 0 5.491952462783564 13.353919475692468 8.794921049844877 0 0 0
642 0 2 0 -1.5337875960513874 17.19669530276215 1.0625470476221492 0 0 0
369 0 2 0 -5.376178944253805 17.67545107437846 6.656936297412015 0 -1 0
122 0 2 0 -3.813438644792566 9.203273992357573 1.6845675215380629 0 1 0
417 0 2 0 2.1380463286054336 9.93722418249856 0.978588408344983 -1 -1 0
51 0 2 0 9.793536279150398 1.2400913240538056 15.372158431758507 1 0 0
595 0 1 0 -2.0186890575867675 5.7661780695399765 13.237242650250263 0 -2 0
187 0 1 0 4.941896945661197 15.091556509727091 6.380292082008571 0 -1 0
171 0 2 0 2.453514522675578 -0.10603299271654532 4.309921069067042 0 1 0
786 0 2 0 12.214653974990712 -0.4145250165897618 14.155267169860183 1 0 0
2191 0 1 0 7.76610457615046 7.586791206465792 0.15231307391838877 0 0 1
1185 0 2 0 9.269896649549056 13.806847824594982 -0.4436448374476537 0 -1 0
1049 0 2 0 0.01875278835148564 15.893750658575044 13.928779623658778 0 -1 0
744 0 2 0 3.324094752683467 17.467805389405697 0.33759791033886466 -1 -3 0
772 0 1 0 -0.28465255989629945 13.329679455432574 3.0483323412873675 0 -2 0
13 0 1 0 5.252456485803591 10.328438720067986 5.031525191995108 0 -1 0
926 0 2 0 0.9412705360583802 13.549146626512641 8.52033247588562 1 1 0
1065 0 2 0 9.252053933739228 3.5510585290586674 -0.06937925794455446 1 0 0
402 0 2 0 14.704963209779079 -3.225447140553373 10.99839053518055 -1 0 0
743 0 2 0 3.6410510345559035 17.757631436389143 1.766219055817532 -1 -3 0
1199 0 2 0 11.946321571161302 3.944194344533777 14.227868174606602 0 0 0
16 0 1 0 7.2721204123208985 3.89064757901233 8.94310724699619 0 1 0
123 0 2 0 -2.2943851067392917 9.604079382328964 1.912005701511502 0 1 1
2367 0 2 0 -1.6629917750078251 17.456112982502482 9.416052602540985 0 -1 0
2387 0 2 0 3.994759070603802 5.322356198867795 13.686934212031076 0 0 1
330 0 2 0 0.3166177036410193 1.6353781013139956 2.2139402285995113 -2 -1 0
1294 0 1 0 -1.9023738809651185 6.844402854185989 0.7972065594902396 2 0 0
17 0 2 0 8.133785333583434 4.316292299867511 8.744160449336228 0 1 0
505 0 1 0 12.667845489350453 -5.047989834865924 14.856558180390856 -1 -2 0
583 0 1 0 -2.2135306367013063 9.205771630899937 8.23015900238095 -1 0 0
2509 0 1 0 -5.2092186177494915 13.110357679872134 13.075121372916493 1 2 0
1174 0 1 0 -0.08540126713782736 13.211034187332526 11.624667260978093 0 0 0
617 0 2 0 0.244928382576977 -0.3697485582520026 5.03452699666835 -1 -1 0
437 0 2 0 0.1221265167632054 -1.3187326273689162 13.656245066950923 1 0 0
1134 0 2 0 11.971524301338407 0.04214753661828308 2.5282139542097872 1 1 0
879 0 2 0 -5.291673617171304 17.067054258811414 2.705796358126576 0 -2 0
558 0 2 0 12.347472096472716 -0.08116137203726703 9.610669711368105 -1 -1 0
674 0 2 0 -3.377028375320313 18.704731690509952 2.0146162265021528 1 -2 0
527 0 2 0 12.699661163117598 3.2046074931398425 6.635159723584681 0 -1 0
1663 0 1 0 -3.147303678125343 12.521154046194008 3.9649796983895476 1 2 0
2197 0 1 0 -3.053643197553042 12.581512298221773 11.468353759085161 1 0 1
862 0 1 0 4.458941869418851 18.48464388216746 3.1759435633171993 1 0 0
2438 0 2 0 3.6040828502070084 13.61076228940854 2.7648113175462847 1 1 0
458 0 2 0 -1.0860542823019013 12.167070391438996 8.673330758365411 1 1 0
1215 0 2 0 -1.1359545200330543 12.934585999987966 14.913406954682092 0 -2 0
990 0 2 0 -3.2595461013792018 8.079999228993474 11.789226838223989 1 -1 0
2511 0 2 0 -4.441366707478344 12.721676903548548 12.565900927348753 1 2 0
170 0 2 0 1.9571606078448336 1.286178720017491 4.763080248033483 0 0 0
274 0 1 0 2.4283421560549234 3.179361510710706 11.45205154475214 -2 0 0
416 0 2 0 3.1416698471413835 8.829066233427696 1.3116906951294736 -1 -1 0
87 0 2 0 8.006496496862919 7.840955924813594 11.71992350929305 1 2 0
139 0 1 0 6.7062912208025285 5.363939742656996 1.388768748863968 1 2 0
1175 0 2 0 0.1968474542386776 12.919303514143241 12.539268679741507 0 0 0
1136 0 2 0 10.767425556285115 8.947023114910898 1.245898583754911 0 0 0
528 0 2 0 11.455990229007233 3.497240348453718 5.730647142564589 -1 -1 0
1200 0 2 0 10.988425937330861 5.2043855620893815 14.095148550149935 0 0 0
946 0 1 0 -8.455306936504694 16.563880215441955 12.419838596099707 1 0 0
1056 0 2 0 -2.7556292939902765 7.041263752349636 4.89559972142815 2 1 0
1244 0 2 0 2.317823441173771 -2.7890569665296088 10.37991617904736 -1 -1 0
470 0 2 0 3.7753077981579826 11.038480423389066 -0.147625767717267 -1 -1 0
860 0 2 0 -4.021817901118771 14.418506052355987 6.715293230930187 1 -1 0
1037 0 2 0 8.327196340644518 0.19461554702334993 12.557530273795184 -1 1 0
808 0 1 0 11.177276684211616 3.3517362647085838 -0.620682815695264 0 0 0
462 0 2 0 3.5623778425303434 6.238783350521953 5.818108169965246 1 0 0
245 0 2 0 6.566751555988687 0.5936372838993744 9.457502382352915 -1 0 0
367 0 1 0 -5.9126675998807805 18.137762931464586 6.021174644043619 0 -1 0
2307 0 2 0 0.9105887092747101 0.42780126974248134 11.982430807846432 0 0 1
2198 0 2 0 -2.6931490674199865 13.34109412861267 10.923538507170282 1 0 0
209 0 2 0 2.7724034042613726 0.4357560330632455 1.0749159553716503 1 3 0
689 0 2 0 -3.425190307096401 14.393146450241435 8.844912703474128 1 0 0
552 0 2 0 6.93444463882346 13.211878566966403 4.833680225121728 0 1 0
1268 0 2 0 5.914498006682754 8.888249434419956 10.330929674002679 1 1 0
908 0 2 0 2.874983559667 17.86774729261627 8.591748681857533 1 -2 0
2437 0 1 0 4.0258436768985995 14.375796956077847 2.4474702471944676 1 1 0
651 0 2 0 8.811838781194606 4.5170571713373775 6.227723341884836 1 0 0
526 0 1 0 12.137655039651154 3.9070628986466565 6.302631133075576 0 -1 0
1243 0 1 0 2.515369463870278 -2.1517821914844717 11.114086728956163 -1 -1 0
246 0 2 0 5.366347745434919 0.8043794711344701 8.592171902040011 -1 0 0
188 0 2 0 4.0744985746287625 14.660905397983877 6.444853399336416 0 -1 0
645 0 2 0 0.42296690998115977 15.55600789279137 7.112579933707314 1 2 0
68 0 2 0 10.76606021605591 5.447637639035513 10.587454374940334 1 0 0
1220 0 2 0 4.481506518735807 1.7761880100162135 1.1729732034787932 0 0 0
1295 0 2 0 -2.240864211231257 7.29191259120388 1.6080357403363088 2 0 0
1700 0 2 0 4.575916390646772 3.5973167209085424 9.059812049462412 -1 0 0
983 0 2 0 2.588795351421287 12.3426781661976 9.581938810061246 0 0 0
85 0 1 0 8.551531916957934 8.024920558428006 12.46944399337547 1 2 0
1351 0 1 0 9.018075535720126 11.735298818626202 10.367308743478192 0 0 0
989 0 2 0 -2.002239929760352 8.213028240425963 10.919569516678326 1 -1 0
533 0 2 0 8.854836061681812 11.358313735249121 3.1466783181732385 1 -1 0
165 0 2 0 5.027611696209177 12.743727001335952 8.163242114962976 0 0 0
1214 0 2 0 -2.607377225543759 12.32925425988812 14.812873687629342 0 -2 0
193 0 1 0 -6.58049404952746 20.896581859169604 -0.46186069681013797 1 -1 0
7 0 1 0 10.35320492795044 0.015886752471479915 -0.004234492818452673 -1 -1 0
703 0 1 0 3.5213370474465044 8.80238704868448 14.800354350520445 0 0 0
708 0 2 0 4.252002472190306 9.517358943102899 11.695428042172509 0 0 0
472 0 1 0 0.22175728036337056 5.142015968824907 11.21508672256474 0 1 0
70 0 1 0 2.323796317233139 7.026808551775005 4.1478579192421305 0 -2 0
1699 0 1 0 4.347527281031645 4.230348743314935 9.784572395356701 -1 0 0
1556 0 2 0 2.470199003565203 11.519862223444406 3.3912183161076275 1 0 0
113 0 2 0 -2.6235921264407147 15.310650521397323 2.1157527180466946 0 -2 0
1100 0 2 0 8.308528432068469 11.572179446853156 5.189714844029151 1 -1 0
495 0 2 0 4.98927205074884 -4.212839825392189 15.34942680698671 0 0 0
1060 0 1 0 2.954280929479362 13.96725180480809 12.559490397035606 1 0 0
276 0 2 0 2.726261531045373 3.6767220349373586 12.244295323627922 -2 0 0
1069 0 1 0 10.359871940842503 -2.6368236361479482 14.526396799942086 -1 0 0
272 0 2 0 1.2111927588001759 12.002643920227815 -0.34128124861866144 -1 0 0
1228 0 1 0 -7.27499479661216 17.810755211231193 8.512019201349807 0 0 0
706 0 1 0 4.6688578544226775 10.387526923729418 11.522885991801916 0 0 0
1423 0 1 0 -1.4751465934291226 10.222789994612572 12.470103861723652 0 0 0
832 0 1 0 8.344351638449208 10.80519708392347 -0.5885104195226358 0 -1 0
1186 0 1 0 -0.4228314535778558 3.656729174815326 14.668187528646348 0 0 0
805 0 1 0 9.868479946714537 8.451377229369317 9.353283657854984 0 -1 0
1071 0 2 0 10.492119955122382 -3.0289903823869073 13.653665437653917 -1 0 0
242 0 2 0 12.418220297608194 2.181698619543776 2.005380940355862 -1 1 0
140 0 2 0 6.67935455277092 5.2716745482515375 2.3631661349858475 1 2 0
392 0 2 0 -1.3654565688877112 4.594371583507481 8.584819922858195 -1 0 0
698 0 2 0 -4.167751873700225 10.712400952728544 -0.24328525574293247 0 1 0
1281 0 2 0 7.407416833405661 7.590631542197739 5.269133181365689 -1 -1 0
748 0 1 0 9.566031757995134 8.91815126426843 3.9226188792223518 1 -1 0
390 0 2 0 7.119092328943316 13.19319361839573 2.599025297652513 1 -1 0
400 0 1 0 14.493346349115788 -3.7870198643983723 11.75494702609049 -1 0 0
742 0 1 0 2.9753605745013574 17.293929085308267 1.2373966831539644 -1 -3 0
78 0 2 0 6.0378417218231695 15.073683534994707 9.476040463015565 2 2 0
563 0 2 0 12.359574647292009 1.771267939857755 12.779840483164437 -1 0 0
1115 0 2 0 5.13723464326781 2.477403603306188 12.900475595718039 0 0 0
479 0 2 0 -1.732468164267381 6.756345907077991 6.337771622503467 1 0 0
1019 0 2 0 11.124079282640011 1.7576961111412892 9.564900232988467 -1 0 0
928 0 1 0 -1.0296967826248804 3.6071671931016134 5.240208290170508 1 0 0
937 0 1 0 6.295133029862734 -2.6988117872522004 9.509540424417583 1 1 0
292 0 1 0 6.090104652228149 17.0091589374463 5.20444644383848 0 -1 0
783 0 2 0 -1.1415257207960057 16.65367167040829 7.4409366472369225 0 -1 0
725 0 2 0 -1.2282537988651978 3.097520032207954 -0.5518758636453718 0 -1 0
202 0 1 0 2.5371432217984564 13.830626160770999 5.429865219410616 -2 -3 0
1640 0 2 0 6.45775329925154 5.3177055142084075 8.408758499895164 0 0 0
1062 0 2 0 3.2371764165191568 13.159943858428681 13.033676678773958 1 0 0
418 0 1 0 -4.089022707941584 10.289676680899323 10.152053934708006 0 -2 0
673 0 1 0 -3.019314964025695 19.217341572350982 2.743548935199565 1 -2 0
2342 0 2 0 8.54188058118887 -0.3145925909582563 9.575255022309918 -2 -2 0
483 0 2 0 4.192690027693988 13.627281210550198 -0.331868012856848 0 0 0
1147 0 1 0 3.94614605035942 -1.2877011977064994 14.885630666301921 1 1 0
2306 0 2 0 1.3236159328315449 1.7130325738575936 11.272487758523377 0 0 0
271 0 1 0 1.0740765369089784 11.00222522510475 -0.14111712902385432 -1 0 0
200 0 2 0 12.762541400855863 0.9896066925550051 6.098354345576303 0 1 0
749 0 2 0 9.655254368817483 9.134942305525016 2.979304156641794 1 -1 0
1218 0 2 0 -3.2409574021169485 10.975631411354572 5.334824502215864 1 -2 0
1460 0 2 0 0.9469183126403954 16.338335587032 11.487650544788398 0 -1 0
108 0 2 0 9.875799815215785 -1.3008738647682239 6.2208017900494506 1 -1 0
61 0 1 0 4.687192086842019 8.172770104662831 1.1539159520338897 0 -1 0
697 0 1 0 -3.886186950593315 11.24905148093732 0.4962899655918802 0 1 0
823 0 1 0 -2.8918664286264053 17.829894939229426 5.207195758219167 0 -1 0
972 0 2 0 3.934915137259164 16.05440348485415 9.303510647904995 0 -1 0
1198 0 1 0 11.700749984886832 4.715453415743086 13.707187594703356 0 0 0
1230 0 2 0 -8.10773874699722 17.98882704175009 8.041687034061336 0 0 0
406 0 1 0 7.575215688056843 5.641109780164595 11.28213671931242 0 1 0
873 0 2 0 6.9611317392062855 9.002402172529646 13.450433928431393 -1 -1 0
2161 0 1 0 3.7385954077496826 -1.4537736894344817 3.8745462324029303 0 0 0
1092 0 2 0 2.3415943531291648 1.271030796008708 9.190393958373283 0 1 1
1267 0 1 0 6.562517998720178 8.210932780653074 10.022575600408311 1 1 0
1038 0 2 0 8.804399875205506 -1.2283179099352695 12.883645508565339 -1 1 0
237 0 2 0 -0.3861695374734677 8.864610817407325 4.386962028443071 0 0 0
205 0 1 0 0.987006974078071 10.122663035978235 10.468171185386309 0 0 0
1649 0 2 0 13.793322934236782 -2.1633252389856263 7.081451627747428 0 0 0
67 0 1 0 10.316737486231826 4.858866258062043 11.231346653327941 1 0 0
524 0 2 0 8.99050604373942 7.905984799449294 7.475190251797287 0 -2 0
958 0 1 0 0.8270768889479887 11.499812066754583 6.182669797988026 1 -1 0
551 0 2 0 5.9307233494805685 13.477879959897091 6.074359738720364 0 1 0
425 0 2 0 7.183758751626589 2.1252879847150004 11.564974400383198 -1 -1 0
1248 0 2 0 -5.321926515964041 17.816777489755648 0.6683608397259713 0 -1 0
15 0 2 0 5.832772032334958 9.642137581361268 4.683923622805452 0 -1 0
356 0 2 0 -7.399712207758798 17.618057513921762 -0.36707837461914083 1 1 0
650 0 2 0 7.388060039923282 4.032346843727153 5.871706545412346 1 0 0
285 0 2 0 13.93709781277957 -2.0178787877147757 14.376388777598565 -1 1 0
2352 0 2 0 5.662898764075027 18.621686468829836 -0.13037352495533228 0 0 1
2192 0 2 0 7.539019209009251 6.821797920486049 0.697181161128783 0 0 1
796 0 1 0 -0.38846077782660066 9.227519334695826 14.9234403468054 1 0 0
756 0 2 0 4.690947296705968 3.6813054005727412 2.321499196486605 0 -1 0
471 0 2 0 3.439341863171732 11.729169093434196 1.2040950929226784 -1 -1 0
306 0 2 0 -0.44621730392695935 0.7496391493260388 6.758000790008383 -1 -2 0
1289 0 2 0 7.681372243641048 13.343043972531358 7.412637461034466 -2 -1 0
110 0 2 0 6.643150614053441 1.180659913841391 1.2808000231805678 0 -1 0
1225 0 1 0 0.9227456190383596 6.0993829922247 14.507376844378546 1 -2 0
1129 0 1 0 2.2052530274398836 8.984709620782915 8.023221591590255 0 -2 0
523 0 1 0 8.529831039701849 7.341238090543213 6.892812831168538 0 -2 0
1082 0 2 0 3.1685670350967805 3.4734285369267037 -0.5914859238368136 1 0 0
388 0 1 0 6.470559466195214 13.875386176621458 2.9186137606961324 1 -1 0
181 0 1 0 2.6967910661742227 -0.875344645695814 7.5410880701614165 -1 0 0
1701 0 2 0 3.695809844779776 4.839270011322725 9.425322793376976 -1 0 0
2366 0 2 0 -0.3287471271951497 16.42277776680281 9.570773015078968 0 -1 0
1271 0 2 0 1.1737990275445687 18.60607050612514 1.5292458967424678 1 0 0
444 0 2 0 4.952138705107924 3.358579934875827 5.061698994276038 0 -1 0
58 0 1 0 -1.2227117914119814 13.846942236597464 5.475882827082526 0 -1 0
632 0 2 0 13.548238275747412 -2.0165349902539838 9.238114216570853 -1 -2 0
1288 0 1 0 8.438589092016285 13.8883570114787 7.602343528888554 -2 -1 0
424 0 1 0 7.765843469025894 1.453701411866163 11.21385054756304 -1 -1 0
1113 0 2 0 10.247109865681349 5.579424850750918 7.9402739186015925 0 -3 0
283 0 1 0 14.477350646470624 -2.7791264010184835 14.115261446893012 -1 1 0
678 0 2 0 14.30094699176267 -0.7510971210923598 5.296850524441431 2 0 0
344 0 2 0 -3.831746563435783 13.069294843256412 -0.6179962583058239 1 0 0
80 0 2 0 6.191359900875764 6.708008738237649 14.74767823040792 1 2 0
739 0 1 0 0.7237220523762992 7.4129909767266255 6.650562844289756 1 0 0
675 0 2 0 -2.741587758714649 20.024201262971456 2.354668392763493 1 -2 1
240 0 2 0 -3.9627451416293766 17.741876915021628 8.50537980549838 0 2 0
1035 0 2 0 9.73565208143153 6.282493080756598 5.7162027347023745 1 2 0
116 0 2 0 -0.24703375555947293 9.523575100659402 2.5733523465019097 1 0 0
556 0 1 0 12.46573108311371 0.7776565581183177 9.159467991777362 -1 -1 0
740 0 2 0 1.2086952535228916 6.887211368865158 5.994939898277856 1 0 0
755 0 2 0 4.513972973990179 5.170566037838919 2.896675856325208 0 0 0
2199 0 2 0 -3.122443941867784 11.841411284487934 10.796367392490264 1 0 1
774 0 2 0 -0.7359567097812604 13.517816846119192 3.867958990071699 0 -2 0
746 0 2 0 -0.3331961006460182 7.0680369870021025 9.367755239293588 -1 0 0
1008 0 2 0 1.9808136569294876 -4.209755755407206 13.533060627074091 1 -1 0
1105 0 1 0 2.783482296078929 16.358285805643355 3.8265444921925376 0 -2 0
838 0 1 0 11.322692524893021 -0.9892901687260851 11.184175271837596 0 -2 0
408 0 2 0 7.060299884637995 5.064346862546991 10.65451044560715 0 1 0
112 0 1 0 -3.307396391749077 14.659885485017927 2.030496549157738 0 -2 0
925 0 1 0 0.966752390297169 12.66412047249547 8.947584048128645 1 1 0
966 0 2 0 4.390523015081751 5.571473295322331 -0.706797455279176 1 0 0
1050 0 2 0 10.765426708222213 -4.98205709259798 14.269464552750575 0 0 0
225 0 2 0 6.754676398184174 12.573247684824025 14.696447380190879 2 0 0
183 0 2 0 2.9966577580020095 -1.3228802671605595 6.736427813364021 -1 0 0
781 0 1 0 -1.009817227684181 16.545703342738932 6.4639740640179335 0 -1 0
478 0 1 0 -2.5879889343708617 6.95192061873305 6.7788156573996226 0 0 0
1131 0 2 0 1.6007494263538837 8.4055256437487 7.588948451182437 0 -2 0
419 0 2 0 -4.514464984102518 11.06735648291923 9.723020776785154 0 -2 0
452 0 2 0 12.43302006030954 -3.591606681087035 11.814709699771434 0 0 0
328 0 1 0 0.3661075916830746 2.5933457702328395 2.3385625982381786 -2 -1 0
389 0 2 0 6.701022812715282 14.757892535468574 2.6261383417292707 1 -1 0
481 0 1 0 4.630857856424903 14.488282021307034 -0.387545586288208 0 0 0
75 0 2 0 3.087703423080794 1.5772610411812087 13.89893402315001 0 1 0