LAMMPS data file via write_data, version 23 Jun 2022, timestep = 88414000

2592 atoms
2 atom types

0 31.007999 xlo xhi
0 21.374731 ylo yhi
-0.8315583316212383 31.79201728889929 zlo zhi
-9.165637 1.0143842774094818 -10.849879823851664 xy xz yz

Masses

1 1.008
2 15.999

Atoms # full

1285 0 1 0 8.657914729734511 -1.2715738132208574 9.128952043344135 0 5 0
553 0 1 0 12.087480190048558 2.1198940724791875 5.479084455743228 1 -1 0
1326 0 2 0 0.39374580737843545 19.946664735356514 2.3188763112591664 0 -1 0
283 0 1 0 -3.6003928710802446 8.567810207697315 9.081904708518557 -2 -2 0
968 0 2 0 -3.9394844132174622 6.993413802892652 10.288010689257511 2 0 0
120 0 2 0 1.2066496347196938 -3.0763579898999405 14.68514577801661 -1 -1 0
201 0 2 0 -2.8363223539118625 13.405506726525266 2.822273484088321 1 1 0
458 0 2 0 5.4043188727030085 12.766739603623794 13.251147369106867 0 3 0
1304 0 2 0 1.206638815223557 17.196669119878234 2.7647066897822947 -1 -2 0
1070 0 2 0 -7.997308423048796 18.424543255584165 1.1627217162825298 0 0 0
1026 0 2 0 -1.002400047856189 0.6213028405758596 9.375395013487296 2 4 0
546 0 2 0 4.572856250145867 0.154792549125216 13.4783692608532 2 3 0
427 0 1 0 6.689444184034128 16.303096075924387 10.143173954502597 -3 -4 0
606 0 2 0 9.2660010416447 1.9049605436959567 8.924644801534324 1 -1 0
514 0 1 0 7.129574310454949 17.076247407771206 4.059433967479663 -1 1 0
1413 0 2 0 0.2879672226501186 15.676937272375877 8.762476095851184 -1 -4 0
1021 0 1 0 7.955887401871276 11.000046373623722 12.585908351012929 4 1 0
576 0 2 0 0.8349883521010908 18.52765041668056 6.8372293491572425 4 1 0
256 0 1 0 4.643220977219169 7.570411030974386 2.0316044893946152 -1 0 0
759 0 2 0 -1.1256168939244948 11.159289977761453 10.133813011069055 1 -3 0
14 0 2 0 3.0398508138783864 7.903006040294622 15.244651179558396 1 -5 0
490 0 1 0 -1.2672673426873822 7.691921614421437 10.7656625016715 3 2 0
1324 0 1 0 10.056098167561919 -0.6661486177510096 2.6878509471601837 0 0 0
2510 0 2 0 0.48994431954976464 2.2756907760566247 -0.7262010685010604 1 3 1
610 0 1 0 2.644301820399212 7.320214284454722 5.641441136521816 -1 4 0
1453 0 1 0 6.130388812579659 16.489177181369403 0.9310372354441832 -1 -1 0
5 0 2 0 3.284921324415991 3.974265223425218 11.117538249678688 -3 -1 0
509 0 2 0 6.350595131045177 17.99954097743367 7.338321501759006 0 1 0
934 0 1 0 3.5643117756171785 10.700534515282104 15.262194907778667 -2 -1 0
350 0 2 0 -2.921534323392649 8.250068950519191 5.661321469063644 0 2 0
718 0 1 0 4.265161157558011 5.35098178337258 14.199218426184343 -1 -4 0
1176 0 2 0 1.3049893509493158 16.301914512804565 0.17708547401673225 -1 -2 0
2439 0 2 0 -2.2934936114357756 7.540443150984448 2.8238837331842532 1 1 0
515 0 2 0 6.476668807379352 17.63879085284019 3.578502589285754 0 1 0
2335 0 1 0 10.211643358878433 0.14224024491029974 5.200902649900952 0 1 1
761 0 2 0 10.894805328824482 -0.8551769651958581 10.708853841289717 -1 -1 0
987 0 2 0 -2.1535362989745384 19.566152022222802 3.368969075438569 1 1 0
419 0 2 0 -8.490399029658938 19.588905159154244 3.3580489241000917 0 -3 0
1345 0 1 0 10.783682373658259 9.31227965027366 0.7275885355600464 -1 -1 0
1238 0 2 0 3.4649703444982114 18.24825620593015 0.593867238198456 -4 -1 0
1109 0 2 0 -1.5839651413358105 15.968651873695933 1.4353381183018947 2 1 0
1129 0 1 0 2.6480472436252 17.58014387360864 4.539251107806569 1 -2 0
214 0 1 0 1.0498022442289832 -0.171337579546476 15.038220762459583 -2 -2 0
870 0 2 0 12.18137952694671 0.007127375876184061 13.953562075066895 -1 -1 0
477 0 2 0 1.5945817133920959 5.839875638799642 8.38305476484905 1 1 0
1577 0 2 0 4.564456918526276 11.27946959128018 2.0892442686600226 -1 0 0
1014 0 2 0 -4.309753545370618 18.785961604787 0.5691203485201406 0 0 0
874 0 1 0 -2.984127652432715 11.802704628938821 7.820668753102398 0 0 0
1629 0 2 0 8.32595989277441 2.756926051298638 6.682936828248019 3 3 0
272 0 2 0 5.978052928999172 6.072082792244418 11.577929527457513 -2 1 0
888 0 2 0 -2.040573362002851 12.13063331909692 13.257573428706756 0 -1 0
1045 0 1 0 7.742805020300328 -3.579562796843003 10.821774337324472 1 4 0
720 0 2 0 4.989885828818535 4.791709936880292 14.488309217222282 -1 -4 0
1110 0 2 0 -2.5305515089464135 17.119654242303742 1.071729173986853 2 1 0
947 0 2 0 -3.599895159200968 5.276750908446975 13.746326891629721 2 3 0
2589 0 2 0 1.7807440130299543 17.20764271971436 8.168926465826825 1 2 1
443 0 2 0 2.9569915543434746 -2.1781473663737883 7.191255030866019 -2 -3 0
950 0 2 0 -5.060005611070959 17.73321552901291 9.800816582818793 1 0 0
574 0 1 0 9.229272701988045 -2.3202067450919777 6.500821628885322 4 2 0
2198 0 2 0 10.853725860833922 6.862327284606387 2.3119171582262052 2 -3 0
586 0 1 0 7.651003353447114 0.03434157319656972 11.636188099436454 1 2 0
2208 0 2 0 -2.4131775784947767 7.2625762763027035 13.758942404299207 3 -2 1
737 0 2 0 12.109084625686442 -2.2699476729329424 7.426261471862887 1 -4 0
2531 0 2 0 5.272513146479155 -1.9789912359155215 11.49086802886139 1 2 1
2553 0 2 0 9.98675957754447 8.387108726746483 15.01743298708501 1 2 1
572 0 2 0 8.230272022926496 -0.29161851879205525 14.415577760180232 0 0 0
1412 0 2 0 -0.48797845857227407 14.262852958869754 8.734958858328858 -1 -4 0
156 0 2 0 -0.7650040403281271 8.654271699972643 15.037343389091445 0 -2 0
417 0 2 0 -2.6028368701524727 4.999448865901142 8.795601281327183 -1 0 0
1398 0 2 0 0.49910515925915044 8.860501655473273 4.768874533179106 -3 -1 0
115 0 1 0 1.511291338393862 -0.35111861929414756 7.309688274279335 3 1 0
422 0 2 0 2.8168588105804284 13.808204376767959 3.459739702389279 -2 -5 0
178 0 1 0 -2.7541221399184868 9.09896471565545 1.885653367410887 2 0 0
329 0 2 0 0.8970421496109967 10.896977263208605 13.345190264279992 -3 -3 0
630 0 2 0 4.199463114977493 8.356640519973379 0.39066494428206444 1 -4 0
1237 0 1 0 3.841358737671085 17.784358395374657 1.3394366116403789 -4 -1 0
1249 0 1 0 -1.4865402786341786 4.859343302582473 0.7793628897528815 0 -1 0
1383 0 2 0 4.488313356151675 -1.5772801900359732 4.4128457645971855 1 1 0
1448 0 2 0 10.991880884283153 -3.6578762082423895 14.076712760383698 1 2 0
2509 0 1 0 -0.4905377144866532 2.215445600558853 -0.5829319066226509 1 2 0
398 0 2 0 7.073654176701723 4.10464619863703 14.6809098259918 2 3 0
418 0 1 0 0.8820685329927902 -1.6758907285716866 4.286524571397785 0 -2 0
980 0 2 0 7.209086013722421 11.540697494146011 6.371945727917339 1 0 0
588 0 2 0 8.22856659415728 0.6583739913432183 11.08062829966783 1 2 0
891 0 2 0 2.098526173906628 10.201687985057678 0.5738228363273767 1 -2 0
657 0 2 0 12.80085021521777 0.9908246740389781 1.7945643317179574 -1 -3 0
2459 0 2 0 5.003196709103772 7.019176060583299 14.534362417922114 2 3 1
49 0 1 0 8.355224349471053 2.753992617258546 13.632929048598204 0 2 0
446 0 2 0 -1.0367915171626978 17.66510642988674 7.367580136180514 1 1 0
740 0 2 0 5.338973652329063 3.5080951720818105 0.7710268623770142 0 -2 0
428 0 2 0 6.8725155937647004 15.833561152459014 10.991279296725226 -3 -4 0
643 0 1 0 -1.7226395290878596 13.13785401555665 9.760301688366171 4 1 0
878 0 2 0 -4.5218274576809145 16.07236768358013 3.8032795957379797 -1 -2 0
1077 0 2 0 7.724698873759215 6.852099104712535 7.886859487406706 4 2 0
998 0 2 0 4.791694218624562 7.666352760360476 7.761265293762142 1 -2 0
929 0 2 0 5.71989255477022 1.115934038360277 15.133746180536683 1 -2 0
386 0 2 0 -2.369229553869792 14.343136388550635 14.226210852095752 0 0 0
1047 0 2 0 -1.7549069276013867 17.638888081283184 9.943367113205797 1 3 0
684 0 2 0 6.427301904231265 13.113541327691566 2.909080993331092 -1 -2 0
2364 0 2 0 3.4621697176950375 8.500699619155935 10.236234348090292 2 0 1
1127 0 2 0 8.905921034714252 2.851883559167327 4.246436454584191 2 3 0
772 0 1 0 8.415452366713943 12.475686405071125 10.356754981081671 -1 -3 0
1650 0 2 0 0.4727783089602989 0.8494831282935795 1.6180486165687964 0 0 0
401 0 2 0 11.100059938963389 5.01868629328221 14.914084553701278 1 0 0
1686 0 2 0 -1.417957660538138 17.483775657415794 4.119740092777158 -2 0 0
706 0 1 0 1.6744361432027808 3.942530150226676 5.17537616551272 -2 -3 0
1067 0 2 0 -5.223247515885758 15.273380817160067 13.789210083350081 -2 -2 0
455 0 2 0 0.009683861369362945 15.183009718242165 14.634904390162344 -1 -3 0
155 0 2 0 -0.47381723048700614 8.666551587343895 13.460205065902448 0 -2 0
583 0 1 0 6.037306788992824 -1.0240304683893093 8.135762174744933 -2 -1 0
330 0 2 0 0.6801699637510288 10.355124537009564 11.962189568957067 -3 -3 0
612 0 2 0 2.0418738897531084 7.254608164730504 6.4023039729766476 -1 5 0
951 0 2 0 -4.26405994756788 16.92820812117577 8.75276575314028 1 -1 0
2557 0 1 0 2.030327604713405 15.063716485705687 5.897662836713449 0 -1 0
1015 0 1 0 -0.11307214347024336 2.7689748105936207 13.30435045865806 2 -1 0
1449 0 2 0 12.221668977403006 -3.6218141475929 13.219623199193817 1 2 0
790 0 1 0 3.0661467258808797 2.184607986603175 10.766457332188308 0 1 0
1124 0 2 0 2.078623983494026 14.68706826401171 9.063863282206956 2 -4 0
1191 0 2 0 4.273641338895527 7.847190425271263 12.081756385538174 2 2 0
1495 0 1 0 3.5135896497713603 12.680196225621698 4.8725619971614345 2 0 0
1023 0 2 0 7.01963645665883 10.878636469895753 12.946840016167465 4 1 0
193 0 1 0 7.070503781907377 -1.8572533822224528 14.378432311957514 -1 -2 0
784 0 1 0 14.300628838854518 -0.7453642334997737 11.00678047148449 -2 -1 0
492 0 2 0 -0.7658887987982214 6.86770215346484 10.90537657456795 3 2 0
2206 0 1 0 -3.3018990778610817 6.921179858814962 13.552259383905676 3 -2 1
791 0 2 0 2.9903414595407303 2.225600945497149 9.816383811845242 0 1 1
908 0 2 0 0.394571105148398 14.706072576630216 12.494012517633525 1 -3 0
1066 0 1 0 -5.209363870750435 14.448271923535167 14.322796876952358 -2 -2 0
2329 0 1 0 11.38971853364507 6.276677695409041 6.474994303904614 -1 1 0
445 0 1 0 -1.46553477680866 17.154056354823435 8.089271372255892 1 1 0
555 0 2 0 11.25540600545097 1.6399183582568386 5.356207762202339 1 -2 0
620 0 2 0 2.9626237037505474 12.431000254559464 9.128785773577157 1 2 0
1481 0 2 0 7.253243355234725 17.84660668192734 1.0156702930923163 -1 -2 0
2199 0 2 0 10.02276215500142 7.3881622918241945 3.4651242499905077 2 -3 1
415 0 1 0 -2.0968256931937677 5.689126122808705 8.32886088178824 -1 0 0
1241 0 2 0 0.030033599949647827 12.001991109980565 15.315338639651994 1 3 0
232 0 1 0 0.9019237558671446 5.966343855345283 14.131110188952563 -3 -3 0
1712 0 2 0 11.81427232431723 4.817692783883923 7.227928026608097 0 -1 0
681 0 2 0 6.596164235253781 9.363344642453386 5.0385004641914435 2 0 0
868 0 1 0 11.671834730940326 -0.45735503900766705 14.598584246965853 -1 -1 0
317 0 2 0 -0.3332296189894681 3.2888436456744485 7.877737992671701 -1 -2 0
1286 0 2 0 8.916126353008904 -0.38394463407372736 9.31467860744935 0 5 0
2486 0 2 0 12.344729901395567 1.041810142732798 -0.38089407195296704 0 1 0
136 0 1 0 4.790642200052489 -0.35101362335450004 10.666869078456251 1 2 0
387 0 2 0 -1.9347815745568475 13.006640527352097 15.016515146081188 0 0 0
385 0 1 0 -2.6224070082562716 13.431905774231442 14.526889851348503 0 0 0
425 0 2 0 -1.9729920259758862 11.819725092747817 0.31910699832323264 -1 -2 0
858 0 2 0 1.6169983370371763 18.931385434226694 -0.08524363680716252 -1 -1 0
1064 0 2 0 1.7897664068132144 9.042406298764266 8.545352351031045 0 1 0
713 0 2 0 2.159082800219546 11.633468459949187 14.676901988731572 0 -3 0
1187 0 2 0 3.7587379173146425 14.101135051296904 14.304106983827282 0 2 0
544 0 1 0 5.150601144395027 0.9453161963963241 13.428036680403952 2 3 0
438 0 2 0 10.475606183773483 3.0993239834148065 10.959841058489966 -1 -2 0
2221 0 1 0 9.476344156638868 6.0062377218221625 10.70328959529813 0 0 0
504 0 2 0 1.3689885293876614 0.6360917783628737 5.901974258686603 1 2 0
742 0 1 0 -0.48457686395644844 3.5768627538103943 2.8941366976811627 -2 -3 0
774 0 2 0 7.782110326206601 12.941402999753791 9.826732615847 -1 -3 0
603 0 2 0 3.528865416732603 -1.4842126879690323 13.873363641143243 -2 0 0
554 0 2 0 11.968596221107777 2.798395133151743 6.205385064209692 1 -1 0
860 0 2 0 8.740357183930481 6.05309232932896 4.960941184945346 -1 -1 0
627 0 2 0 5.0092118774537235 19.592174752289946 3.9476529000918132 2 0 0
1583 0 2 0 6.720016006843638 6.821112224900583 4.329006675522561 -2 -1 0
233 0 2 0 1.0652376891655315 5.548529092894836 15.0469789888273 -3 -3 0
74 0 2 0 3.3377453168291624 2.761469134986494 13.451090309115752 0 2 0
2222 0 2 0 10.182247186555408 6.5241877018651095 10.315085932675728 0 0 0
845 0 2 0 -4.104326441653703 7.612424600630231 15.207740568401384 2 2 0
101 0 2 0 -0.6804893174961305 14.040536358447406 1.6099629530359474 0 0 0
985 0 1 0 -2.8144141809976544 19.994139928190666 2.7802433028546627 1 2 0
979 0 1 0 7.087949747242045 10.677979096427578 6.828085056476499 1 0 0
605 0 2 0 10.610590495937984 1.3128006154532788 9.425510926273052 1 -1 0
539 0 2 0 6.335330516104174 3.8428950181425447 11.510749822531247 -1 2 0
986 0 2 0 6.120641999695133 -0.4887162602874765 3.050144680127215 1 2 0
714 0 2 0 1.5653830354330338 12.900423529557909 14.257257895652579 0 -3 0
94 0 1 0 3.6331018807656186 13.887757598174378 0.12930979818124066 -1 -2 0
1174 0 1 0 1.2822074466905675 16.07841149599665 -0.7340618217236506 -1 -2 0
95 0 2 0 4.349857339999325 13.351050427424127 -0.21991206514176376 -1 -2 0
255 0 2 0 7.691586078079643 9.960811823394511 1.1352567339375503 -1 -1 0
966 0 2 0 1.2745403260351416 8.315072381545223 -0.6738333520065457 1 0 0
972 0 2 0 1.4432916812055745 -2.045835375063104 12.441580990423438 1 -1 0
2362 0 1 0 2.65235866052832 9.098835493267298 10.210546112116383 2 0 1
1076 0 2 0 7.461061579150399 8.198143709417767 7.236106470623941 4 2 0
380 0 2 0 9.155048658745905 3.3913903653725224 1.5085671564217984 -3 -4 0
1113 0 2 0 1.4558043364674114 -0.09978434299688033 12.469577468476057 3 -5 0
997 0 1 0 4.75827846578243 8.38982472692282 7.158665087887414 1 -2 0
1000 0 1 0 5.001786647341452 14.096314728351974 7.0429542463554515 1 1 0
1497 0 2 0 4.092952912871609 12.94600149425556 5.645717777251442 2 0 0
679 0 1 0 6.164417591943768 8.520374360725361 4.819543574624638 2 0 0
154 0 1 0 -0.7425145579692317 8.082401224730578 14.23927415988674 0 -2 0
254 0 2 0 6.692393464340874 10.789990029424954 1.8136258384781097 -1 -1 0
584 0 2 0 6.818848478539534 -1.2857273851522133 8.62118612100281 -2 -1 0
877 0 1 0 -4.443963180384992 15.534767679538326 4.56426124710948 -1 -2 0
3 0 2 0 -0.4154732776678008 6.312888531121661 7.639000007161119 3 -1 0
92 0 2 0 12.515947688840983 -0.026590781868618407 4.877709417756456 0 4 0
249 0 2 0 -0.7399778754259081 15.439010435459487 4.9369886496449515 4 4 0
2341 0 1 0 -4.4809458511745675 10.715845819978828 15.014004281854044 -1 -1 0
1460 0 2 0 -5.996628103299823 15.943311567051298 1.519987171745242 0 -1 0
981 0 2 0 7.950777884481408 10.682076320912008 7.375676874004233 1 0 0
134 0 2 0 14.418256079068215 -2.971337159136748 13.032654134892663 -1 3 0
1012 0 1 0 -4.026562456646466 18.1702664279423 1.2390584732065832 0 0 0
70 0 1 0 7.235227706527679 13.99644526388937 8.557963025655544 1 -6 0
730 0 1 0 8.744406402488647 13.698800289559388 0.42711718980181623 2 3 0
757 0 1 0 -0.592470438885162 10.329752571710324 10.14967230864618 1 -3 0
1123 0 1 0 2.983676542210991 14.413136730942133 9.11707900326454 2 -4 0
1002 0 2 0 4.376972398746235 14.33241424725332 7.730444488164492 1 1 0
423 0 2 0 2.7897725702621505 14.087183002800897 1.9130480544060027 -1 -5 0
537 0 2 0 2.3202622542879072 4.927880371495277 2.8354616809337965 2 -1 0
481 0 1 0 -5.334804981885803 19.91538615475627 -0.31511294576146776 1 0 0
1063 0 1 0 1.016604907415653 9.074393125349777 7.997082670923929 0 1 0
316 0 1 0 0.4286894766533446 3.018111151203581 8.35465106782485 -1 -2 0
2233 0 1 0 0.15920562041336253 18.849462310618545 0.8229495460262013 0 -2 0
767 0 2 0 2.43836622049376 2.442052534283644 7.6829164386701745 3 2 0
381 0 2 0 9.632497566200795 4.345254129796797 0.4042124565485028 -3 -4 0
138 0 2 0 4.264786722755405 0.42203784897793595 10.913704096551045 1 2 0
91 0 1 0 13.391201388677224 -0.34598571191763083 4.609569849129273 0 4 0
1144 0 1 0 -4.017926345004451 15.678647669644562 7.137274501119936 0 -3 0
1375 0 1 0 -6.778062142832653 12.148007124444357 14.071775392124621 1 0 0
2227 0 1 0 6.273180305506203 5.002549063944846 1.4823007801134298 0 1 1
1188 0 2 0 2.8027438360414165 14.92723483880512 15.009803145151263 0 2 0
1165 0 1 0 2.9977588219906415 11.46583716134811 1.3440779346658687 -1 0 0
995 0 2 0 0.40542713268522734 17.085284031010925 10.42594961321356 3 0 0
1184 0 2 0 4.67095268687468 17.0153033451384 7.681009784079881 1 1 0
1411 0 1 0 0.22381635331356037 14.748778230845192 8.330499877903344 -1 -4 0
1305 0 2 0 1.6648668215200597 15.794923928552109 2.579519352033168 -1 -2 0
1676 0 2 0 1.5502986068543396 11.931782870666078 7.291936128606384 0 3 0
1496 0 2 0 3.79028558065944 11.804979673614291 4.644408036733766 2 0 0
199 0 1 0 -3.6905282914564363 13.121902383480652 3.122785907723798 1 1 0
4 0 1 0 3.615141719573941 4.766821008527759 11.559049014759685 -3 -1 0
2532 0 2 0 6.0232668262488405 -2.256412180665432 12.903513027421658 1 2 1
79 0 1 0 7.472951277660093 1.908896306619086 -0.4440540426281422 2 1 0
952 0 1 0 -0.29965351198288354 -2.6808775527399296 13.2994076890844 2 2 0
1292 0 2 0 -2.495591166849209 14.739728866656034 6.6542642186570315 0 -2 0
1036 0 1 0 -1.9874638477887776 20.586251585525975 -0.024162959026321262 -2 -1 0
2458 0 1 0 5.663818553727641 7.690323263824254 14.81061649933617 2 3 1
547 0 1 0 9.23689360680054 8.585260268178057 13.309528648965749 1 -1 0
749 0 2 0 -0.07350437983842778 10.492586004926249 0.8668071932486792 0 -4 0
288 0 2 0 12.691446625041126 0.9696619743439063 10.096551859539424 0 1 0
741 0 2 0 3.951102787055086 2.9629933839058227 0.530416713768999 0 -2 0
452 0 2 0 -1.918208822850334 4.354780122884675 10.570349034287345 0 0 0
1377 0 2 0 -6.1997718555881915 12.945768954807509 13.926863253658299 1 0 0
218 0 2 0 4.769023952105438 20.668746674326393 0.7074591814252706 2 -1 0
2223 0 2 0 8.82619953715082 6.612637019016715 11.0236143459477 0 0 0
896 0 2 0 -2.0614501397972815 15.62607835539371 -0.7518703032875448 -1 -1 0
447 0 2 0 -2.2919087539005214 16.91765512443667 7.738056079137632 1 1 0
148 0 1 0 5.563978107867024 10.062140033463496 13.35363800462378 -2 3 0
890 0 2 0 1.5768932830734117 9.052093452581872 1.4563284590411425 1 -2 0
731 0 2 0 8.574464950416424 12.821064542905699 -0.01896762692340981 2 3 0
721 0 1 0 -4.989086298117197 11.821909776703095 1.0326948974564323 -1 -4 0
1135 0 1 0 -2.3340933849115317 15.925958994430705 13.241301627239947 2 1 0
887 0 2 0 -1.4465948900574037 10.866891210322297 12.730141909804924 0 -1 0
204 0 2 0 0.3284019996035194 11.311134388767835 2.7075274427273306 -1 -4 0
200 0 2 0 -4.172216841555397 12.595322744008223 2.424754127180415 1 1 0
149 0 2 0 4.981656002669766 10.524108925380338 13.955717993301374 -2 3 0
1055 0 2 0 -0.6273497719261194 0.889412994102678 5.037956133702971 4 2 0
379 0 1 0 9.96023881032228 3.8427810484412643 1.154044390673624 -3 -4 0
1136 0 2 0 -1.3373122585533632 15.953505548938535 13.14745357131998 2 1 0
258 0 2 0 4.5135546316593524 8.232196163639168 2.724529705649537 -1 0 0
637 0 1 0 4.756990025229779 5.249316678483355 8.287679790004418 1 -2 0
856 0 1 0 2.41746376063041 19.195233952814757 -0.5555467038387869 -1 -1 0
44 0 2 0 8.961919341611976 11.386040818020822 9.270833582852076 1 -3 0
50 0 2 0 9.182869417575512 2.984891726442007 13.149391816328048 0 2 0
1167 0 2 0 2.998883278949016 12.260252124163497 0.8119889023064428 -1 0 0
852 0 2 0 -7.900657119802483 17.938990623280475 4.392575502758037 0 -2 0
1521 0 2 0 7.94589533919217 13.44728765793281 5.6246457200969955 0 0 0
855 0 2 0 7.919946365417766 5.4452287800453245 9.587281999198302 1 1 0
1050 0 2 0 0.6428819530553199 14.129121307365772 -0.12937664267466487 -1 1 0
822 0 2 0 5.0232489095189194 3.2899046531068463 5.626025880680712 -3 -3 0
859 0 1 0 9.279216246498246 6.852138580803735 4.8922768887558545 -1 -1 0
234 0 2 0 0.38891259371056325 6.801671932867179 14.265437240457118 -3 -3 0
538 0 1 0 6.259070513021334 2.894515716483043 11.711183896701296 -1 2 0
599 0 2 0 -1.7033908589287001 2.5677314789334424 5.96890033013666 1 0 0
1582 0 1 0 6.846728828806045 5.880238974191421 4.078664013833349 -2 -1 0
708 0 2 0 0.8342891122090507 4.394413857671529 5.46706862401257 -2 -3 0
2566 0 1 0 -0.37596100670266536 5.56369818686394 5.1924259790070035 2 -1 1
1075 0 1 0 7.979894379936537 7.797385719838623 7.924670660468312 4 2 0
585 0 2 0 5.393377094550755 -0.8431560461788283 8.790961048675797 -2 -1 0
645 0 2 0 -2.4166143392256862 13.57292008932384 10.282042352490935 4 1 0
2444 0 2 0 9.639404901204488 7.9813762640327255 8.109248343022667 -1 -1 0
1049 0 2 0 0.0717330796390834 12.715798125595416 0.008159059410384306 -1 1 0
689 0 2 0 14.183344609827289 -2.063338073240709 15.270546342459077 0 1 0
732 0 2 0 8.912551523231588 14.425114523065469 -0.19137422931374748 2 3 0
1146 0 2 0 -4.296855486899932 15.912388769100712 6.25889247162041 0 -3 0
639 0 2 0 5.552588798961927 4.933528490498447 8.688647289702136 1 -2 0
1128 0 2 0 8.075592960666468 4.09967058897233 4.422043392819684 2 3 0
1256 0 2 0 8.529065083229295 7.737998222650173 1.634258155980194 0 2 0
1156 0 1 0 -1.5144611366402247 3.9080781890613014 15.345152305775837 1 1 0
750 0 2 0 -1.4487384763980442 10.239224702165748 1.4850011150338376 0 -4 0
573 0 2 0 8.638382490681217 1.1109834094096085 13.93798331029242 0 0 0
444 0 2 0 -5.448723153434689 18.212789550172104 6.498583346839489 -2 -4 0
971 0 2 0 2.5472807193793465 -1.9517810326632152 11.395232201366237 1 -1 0
884 0 2 0 9.828533410055886 8.218566449407959 -0.5327600021742024 1 3 0
75 0 2 0 1.772583888010436 2.909971206467568 13.457707973306803 0 2 0
897 0 2 0 -2.512463319812178 14.083470594100909 -0.718181382567087 -1 -1 0
1317 0 2 0 -1.3427636063944952 0.770565675707223 15.133999672963917 2 1 0
253 0 1 0 7.496349502676513 10.903608123681856 1.2521091233198591 -1 -1 0
166 0 1 0 5.640735062935054 12.94838525974544 11.094218557923677 0 0 0
1347 0 2 0 10.85146077821592 8.74854265925647 1.5337179121570275 -1 -1 0
1178 0 2 0 -0.009051563734943757 5.080475470534558 12.579172407389551 -2 0 0
194 0 2 0 7.902528845089252 -2.3036631832436782 14.647756011648461 -1 -2 0
150 0 2 0 5.538939476052805 9.214781437003957 13.836713610000096 -2 3 0
2185 0 1 0 0.7052420896696207 5.352595410852887 -0.600126700105955 -1 0 0
817 0 1 0 -3.8324703752510163 10.676883263370744 4.042432402658268 -3 0 0
1447 0 1 0 11.286880861592454 -3.6357572135857112 13.157016798964436 1 2 0
231 0 2 0 2.9915890710384123 8.915595519608097 4.7445175462668505 1 1 0
1648 0 1 0 0.9794621239783501 1.4870592888767566 2.136132387564043 0 0 0
683 0 2 0 7.548076869716625 13.868664442006978 2.101087156912149 0 -3 0
303 0 2 0 -3.8952335917190375 9.73229148444294 10.47616465710024 0 -4 0
1137 0 2 0 6.47114932595244 -4.618418173611773 13.450197339879686 2 2 0
820 0 1 0 5.0271099086262705 2.3458249100734627 5.675243096051989 -3 -3 0
135 0 2 0 14.787666193380261 -4.404925502133081 12.704618057269533 -1 3 0
723 0 2 0 -4.276756262561556 11.794514744971869 0.408255877030552 -1 -4 0
1 0 1 0 0.46315929571198045 6.729111748231805 7.450620262897166 3 -1 0
1288 0 1 0 -1.3633910887095946 11.708646258360746 5.569195997226789 0 -1 0
621 0 2 0 3.455134808658672 11.250134074357353 8.371345530936228 1 2 0
2234 0 2 0 -0.38774279913586346 18.05941163896084 0.9460039355902146 0 -2 0
76 0 1 0 8.05238106036458 6.264092351258054 14.072558700291326 4 4 0
437 0 2 0 10.175370575216379 4.6513011462945 11.327473360128147 -1 -2 0
744 0 2 0 -0.010522552001429819 4.235849649122379 3.4703990276444037 -2 -3 0
854 0 2 0 7.938564129906537 4.351833802530043 8.394213301344546 1 1 0
869 0 2 0 10.719707107343442 -0.09626286109878635 14.577560534876863 -1 -1 0
909 0 2 0 1.0322967458186825 16.033805765866976 12.869791217540486 1 -3 0
1584 0 2 0 6.5065865286401845 5.680425660481963 3.2018792047546034 -2 -2 0
77 0 2 0 8.782826703084222 6.83976171451937 13.762095679107006 4 4 0
975 0 2 0 4.187596273123887 -3.852456094673836 12.902354096155218 2 1 0
2443 0 1 0 10.547298375053323 7.991060850351724 8.445942827592884 -1 -1 1
416 0 2 0 -2.569936844031081 6.521687245862841 8.465997649338304 -1 0 0
475 0 1 0 2.16207660238523 5.213336075802754 8.886536706789473 1 1 0
926 0 2 0 1.6656716440393593 2.884690275099708 1.4313900799976111 2 2 0
1068 0 2 0 -4.3889633569980395 13.992827794636092 14.211301747998482 -2 -2 0
738 0 2 0 12.856717341189185 -0.9440449430634488 7.4318670005031695 1 -4 0
1281 0 2 0 1.3704494215505763 7.339730741746521 3.1451453830537517 1 1 0
271 0 1 0 6.794453464378724 5.5199481037205205 11.591361897845175 -2 1 0
108 0 2 0 5.193116093336994 1.8797646464037396 2.273670233867684 1 -2 0
1325 0 2 0 10.858665475949772 -0.5463069741827982 2.1736539845176215 0 0 0
1017 0 2 0 -0.3072746610888533 3.4292402498949217 13.988904043040094 2 -1 0
1177 0 1 0 -0.16000853391310477 5.14990473507092 11.642679114451257 -2 0 0
1397 0 2 0 -0.459511531956443 10.118082777642579 4.978654278067386 -3 -1 0
795 0 2 0 2.982310013526984 11.33554058190352 12.673729198314456 2 1 0
1287 0 2 0 8.667320752294852 -1.7449508975674481 9.989616979143397 0 5 0
2259 0 2 0 13.264705996639355 2.9999666345011704 4.160318722803212 2 2 0
229 0 1 0 3.2180863720653794 9.701399719022072 4.18627851232356 1 1 0
1105 0 1 0 -7.494845510721311 16.257160021792092 11.250698706187439 1 -3 0
473 0 2 0 10.613704260535902 -1.9938856841910444 12.564495262735146 0 2 0
785 0 2 0 13.41273530140444 -1.1096744820750124 10.79637106131125 -2 -1 0
332 0 2 0 2.3115691314024964 7.044217642923006 13.48653146588563 -1 -3 0
1231 0 1 0 8.721229330236369 1.938257895971033 2.7705828349477515 -3 -2 0
1232 0 2 0 7.745581857190269 1.77045654105114 2.716890066948054 -3 -2 0
566 0 2 0 1.1658798555607137 -3.6325472460927255 10.445274181192088 1 3 0
1251 0 2 0 -0.8668232115696659 5.394090563554298 0.20195281472000937 0 -1 0
301 0 1 0 -4.180855406261669 10.267993168497737 11.19667369121134 0 -4 0
118 0 1 0 1.9143291587144344 -3.442418448820315 15.231262340695313 -1 -1 0
340 0 1 0 -3.53208629385427 8.536203485818906 -0.6248180889746962 -3 0 0
1048 0 1 0 0.4301943709656639 13.424925397387003 0.4873112028920412 -1 1 0
974 0 2 0 2.9553080229938042 -4.339436604067545 13.803348655945408 2 1 0
2460 0 2 0 6.470391739090154 7.212630738723477 14.499163893060148 2 3 1
1099 0 1 0 8.238084990145802 5.274295661094384 -0.5997583776631568 3 -1 0
628 0 1 0 4.157289094142832 8.42736277668964 -0.5762370526584583 1 -4 0
116 0 2 0 1.0351075486763532 0.005128183237188999 8.11384867907063 3 1 0
1273 0 1 0 -6.146618436073574 13.842241252210417 7.312052072976872 0 2 0
1158 0 2 0 -2.4231204662111727 3.97724857163176 14.922060311069965 1 1 0
582 0 2 0 11.309107108097974 2.7628503512723848 1.0020116617503056 1 0 0
1675 0 1 0 1.1612949441977274 12.093089725593583 6.407809106876717 0 3 0
622 0 1 0 9.415875960348409 -3.356558372656674 15.167788569548094 -1 -1 0
375 0 2 0 -4.857380768338499 13.467435697818914 11.120399733733315 1 -1 0
743 0 2 0 0.029160373164050804 2.7822724900361635 2.7124873632410464 -2 -3 0
2 0 2 0 0.30580182552961244 7.689575160426228 7.688037799898808 3 -1 0
2530 0 1 0 5.3615699358454405 -2.586464666796254 12.24732508036212 1 2 1
2558 0 2 0 1.7225894957333632 14.369637053898826 6.48117237179371 0 -1 0
1190 0 2 0 5.456348896396985 8.141753426194748 11.058616340744631 2 2 0
1454 0 2 0 6.321575034030105 15.747296930168467 1.4984788677842191 -1 -1 0
545 0 2 0 5.924569488991342 0.7534779366024482 12.875290044163838 2 3 0
397 0 1 0 6.3382403022213705 3.9386080194721114 15.261990377498627 2 3 0
168 0 2 0 6.057213217700028 13.81639310809376 11.136737137019585 0 0 0
565 0 1 0 1.2386892308504442 -2.8520881481544373 9.909987297679175 1 4 0
886 0 1 0 -2.2938964462529934 11.198415944467667 13.0578435478257 0 -1 0
927 0 2 0 1.7193508058325175 3.9757291816729388 0.3462971907430721 2 2 0
687 0 2 0 5.275675466981109 5.397639632883685 5.017691022445771 -2 1 0
133 0 1 0 14.12904202842789 -3.710236373957973 12.528878857470865 -1 3 0
1279 0 1 0 0.8317778364956314 8.13752255763915 2.8594983004671533 1 1 0
373 0 1 0 -5.4680563935888005 12.71023616129393 11.252846781407529 1 -1 0
548 0 2 0 8.56614147024427 9.243100112389804 13.082596710325516 1 -1 0
2336 0 2 0 10.274151808711672 -0.5938007626392712 5.860866718162463 0 1 0
674 0 2 0 12.040445595729707 -1.7379031951338093 15.340106048069558 0 0 0
1459 0 1 0 -5.857378761627727 16.428281308240724 2.308040070487825 0 -1 0
794 0 2 0 4.044701127799693 11.893219757167351 11.674099500668875 2 1 0
284 0 2 0 -2.684423777895582 8.588770440252766 9.46057956157996 -2 -2 0
1082 0 2 0 6.925675857993163 -0.1783478614258911 5.627777717280215 2 0 0
1257 0 2 0 7.02495539687053 7.807734371417797 1.42388031421656 0 2 0
1046 0 2 0 6.912859341052194 -3.501211125862512 11.295124900350375 1 4 0
1540 0 1 0 8.935473937439648 11.640110626863986 3.392770607298525 -1 0 0
421 0 1 0 2.3185520595073688 14.188303667047597 2.726670033097632 -1 -5 0
739 0 1 0 4.859926982618389 2.6740406033827138 0.6206087270321823 0 -2 0
219 0 2 0 5.4465498086063935 19.87535286982897 -0.5154309915262977 2 -1 0
907 0 1 0 0.30592802712991934 15.470049795797102 12.99770390172972 1 -3 0
140 0 2 0 6.2264888832822125 10.748325811382484 8.554237269150077 0 0 0
1112 0 2 0 0.6691850900967833 1.1991624292891352 12.807513011473317 3 -5 0
2363 0 2 0 2.8485282198544053 10.072643846185397 10.285709119714335 2 0 1
1069 0 1 0 -7.691177321395621 19.30018450832954 1.464999688076325 0 -1 0
436 0 1 0 10.555863182489984 3.776317648967784 11.659320607310498 -1 -2 0
1227 0 2 0 7.643764299394983 8.313314595131612 9.696531934910444 1 0 0
318 0 2 0 0.14088691240139778 2.098090197313299 8.55086236930668 -1 -2 0
1649 0 2 0 1.1474709817249165 1.1086429344731052 3.027940866142504 0 0 0
6 0 2 0 3.1991978170868274 5.511322598456478 11.114119986065454 -3 -1 0
1024 0 1 0 -0.040990642867058724 0.3946509387085353 9.376637519266028 2 4 0
1541 0 2 0 9.564698137554382 12.33693241040484 3.2235575415385647 -1 -1 0
1233 0 2 0 9.195896995560204 1.0881276277678227 2.6504684557423523 -3 -2 0
889 0 1 0 1.3852649397314951 9.564891096127168 0.6002698921526985 1 -2 0