LAMMPS data file via write_data, version 23 Jun 2022, timestep = 189616000

2592 atoms
2 atom types

0 31.007999 xlo xhi
0 21.374731 ylo yhi
-0.8598395696001617 31.820298560726524 zlo zhi
-9.165637 1.016143008174236 -10.868691252472953 xy xz yz

Masses

1 1.008
2 15.999

Atoms # full

1079 0 2 0 -8.137205397311524 15.640353972708581 13.476133644224804 0 -9 0
2250 0 2 0 -6.284192187293007 15.335935703353949 6.6909314955575105 1 1 1
447 0 2 0 -3.8641567954048797 10.135090263854604 12.946862616465648 -1 0 0
9 0 2 0 1.3964762945216145 4.315244936457654 10.92144580813422 -2 -2 0
1014 0 2 0 0.4044879721563557 -0.40750389290830924 13.872727949113985 -1 -1 0
1527 0 2 0 -1.6642029135659966 13.003570327989102 8.973729211952403 -1 -4 0
107 0 2 0 1.4573443373682933 15.976418727432172 12.730810262336226 2 -1 0
695 0 2 0 -1.8575664336004218 8.368168548566805 14.72750187294653 2 2 0
1351 0 1 0 3.4855640890121022 20.90127240673363 -0.642321408752129 -3 -1 0
20 0 2 0 0.8743987542427769 18.26474807239238 2.3768284755546385 -3 2 0
224 0 2 0 3.540357653335404 12.713473842341646 15.329104900752167 2 -4 0
487 0 1 0 -4.221576918967667 18.58809151673703 6.536566549942628 -1 3 0
409 0 1 0 7.384383679575233 2.1283554078115667 13.136659167410977 -1 -1 0
1491 0 2 0 13.43231985104696 0.8316221832254129 13.906600723901501 0 0 0
941 0 2 0 5.8636326965184145 16.509213201703385 2.8374248697942464 -1 3 0
643 0 1 0 8.781376141801246 1.2039309679268626 4.831546345283882 3 -2 0
1106 0 2 0 -2.5886548512868304 7.799794254979732 2.2448825624387605 0 0 0
273 0 2 0 2.7360898432842333 5.3403983823192345 12.430313085762085 -2 5 0
1326 0 2 0 4.219342944959873 9.373747965669828 9.164373706801346 0 0 0
175 0 1 0 5.1241862899116635 7.860894785569323 6.609797920150301 -3 -2 0
948 0 2 0 2.194920251679985 5.688847899665719 6.62902077882479 3 1 0
644 0 2 0 9.056965177643313 0.5220594600803086 5.463427939796974 3 -2 0
1317 0 2 0 7.930913533717018 11.222473940216043 8.252282319419292 4 4 0
2378 0 2 0 11.410314908894696 5.261614666907064 12.887204042934965 -2 -1 0
687 0 2 0 13.979585309826977 0.7691211329723332 1.3388503356695378 -4 2 0
2331 0 2 0 1.6683434983334093 1.1476964025040663 7.788684544169731 -1 3 0
2458 0 1 0 8.364682516107525 4.1095956191414 3.318712656836518 1 6 1
946 0 1 0 2.6329379969152926 6.158121434063837 5.874547828419114 3 1 0
469 0 1 0 -0.1389677450832934 4.818157836637071 15.122535653414273 2 5 0
876 0 2 0 1.1872146868662712 14.40922996555232 10.860922789293317 3 0 0
1118 0 2 0 11.494269225827713 1.762216626318465 2.3002775369281814 -2 -8 0
472 0 1 0 3.9946046649619658 15.795581378025487 3.6602465105359956 1 6 0
511 0 1 0 1.1303617088433116 17.902995342442658 5.488281517130145 0 0 1
858 0 2 0 -1.4607570675663832 9.8944234578753 7.824733056129061 -2 -4 0
399 0 2 0 0.7513069995119142 -2.2570891707221064 11.557868844450951 0 4 0
1412 0 2 0 7.762915523200981 11.72942804211576 10.474885465037383 -3 -6 0
629 0 2 0 4.048831328483854 -2.3012454612907973 14.045443868665435 0 -3 0
2355 0 2 0 -3.009905061511094 12.451271334916905 5.030331518678715 0 -1 1
211 0 1 0 9.633502389319958 7.86047426198836 14.003547532932249 -3 2 0
670 0 1 0 4.716577210239949 14.154371772694706 12.242291577127206 -1 -1 0
694 0 1 0 -1.0697328539228672 8.929687517898532 14.605218093171475 2 2 0
821 0 2 0 7.617386159581744 8.6582579973465 14.812483857166942 -4 -5 0
1272 0 2 0 -0.9944354660342243 15.855270469494155 11.624566471817342 1 -1 0
705 0 2 0 -5.268724366046625 11.15266502568505 4.450078867791148 -1 -2 0
1525 0 1 0 -0.813690578596809 13.056642395647032 9.454036707070363 -1 -4 0
588 0 2 0 1.5150471131758612 6.463216592861063 9.543132087780382 2 6 0
203 0 2 0 -1.785464868771735 6.458121128434222 7.975487985373146 -1 -1 0
921 0 2 0 9.643778257960772 -0.9457651125558879 14.889544980528012 0 1 0
647 0 2 0 -5.102125037055823 18.09929192076133 0.49378766310936917 -2 -2 0
1120 0 1 0 10.93748813283888 3.1161299379074454 5.426029813826985 2 1 0
1186 0 1 0 -2.476867318246465 8.111259300302585 5.043926804649695 0 1 0
204 0 2 0 -2.1175136859786363 5.686823332860138 6.639786429334057 -1 -1 0
1578 0 2 0 9.903208376436778 -1.626279260722681 6.044237234457507 -1 1 0
266 0 2 0 -7.24765318242744 13.702296623674746 11.51461288605487 0 -1 0
282 0 2 0 7.347384418275887 1.5413870048430773 2.620004638500544 3 -3 0
100 0 1 0 7.044282407046633 9.590226350858282 5.72394642305704 0 -3 0
440 0 2 0 -2.726967633875886 9.876458310664 -0.002026740196014787 1 2 0
980 0 2 0 10.233195566029613 -4.994648914270043 15.443038440810565 -3 0 0
947 0 2 0 3.458933056464686 6.561039758168485 6.23740042566479 3 1 0
792 0 2 0 -5.705969191735785 14.584103785475637 0.1583204599244592 0 0 0
1188 0 2 0 -1.5693570715456324 8.28592143363826 5.344362780427615 0 1 0
1107 0 2 0 -3.039721696043846 9.174595239929149 1.9409230117001255 0 0 0
330 0 2 0 2.9966735025298736 3.5805902961750578 0.3633249659237645 -5 -7 0
480 0 2 0 3.1831040471127525 9.333607748270062 12.434752750521533 -1 -1 0
2422 0 1 0 -0.5273837909872887 12.492647313575524 0.8696344893545578 1 0 1
1067 0 2 0 -5.432323575421133 19.416606426010883 2.523429500717389 -3 -7 0
1200 0 2 0 6.781587299995103 2.362380009896332 9.440792039158744 1 5 0
950 0 2 0 -2.817446928188581 8.103146708783719 8.284422729943733 1 -3 0
10 0 1 0 6.300384900934795 9.781730829832485 2.3227144624712 0 0 0
106 0 1 0 0.6243603294521801 16.291265192811895 13.028991170119156 2 -1 0
563 0 2 0 4.309260089520146 12.32986781289978 1.863816469176005 3 2 0
890 0 2 0 -2.025612474116961 19.884021863594302 0.9224398617080292 -1 -4 0
1413 0 2 0 8.78949572179919 10.554017969667695 10.127179127881739 -3 -6 0
2233 0 1 0 -1.9489182606916198 6.080386393931753 1.6515870040986869 0 -2 0
442 0 1 0 5.700884749012404 2.4838984768349155 3.3681935349605006 -5 -5 0
397 0 1 0 1.603746815123813 -2.656859371914301 11.309835982546755 0 4 0
2340 0 2 0 4.018480775152157 14.486411759550247 2.233088025839674 1 0 1
923 0 2 0 3.1148541546646 -0.05261225967662825 0.09404728492050063 -1 4 0
622 0 1 0 1.0148574890871465 -1.5967134835607846 4.895532069380675 2 -1 0
1093 0 1 0 11.484207283882046 -0.7843878479591118 3.922349193753786 -2 1 0
727 0 1 0 -0.5431895244187677 10.604537639574659 10.616150586246647 1 -1 0
435 0 2 0 12.043741394804574 5.720561219903487 5.460335492377832 0 1 0
630 0 2 0 3.7011103658446096 -1.5821598707022 15.39716567958579 0 -3 0
853 0 1 0 -0.6471609879792763 1.3899256524028738 2.5927753141959915 -1 3 0
2329 0 1 0 0.8856258821667546 0.8001860001173191 8.272035471390994 -1 3 0
2520 0 2 0 5.562522855409843 -0.9667433927532793 3.8344641387420184 3 -2 1
1117 0 1 0 10.592347060037236 2.107188158140496 2.3662371456789666 -2 -8 0
1676 0 2 0 6.1731931996145875 11.246457578138939 5.070323786330856 4 7 0
1236 0 2 0 1.257354460436992 4.262658328851158 8.498566195074343 -2 2 0
1116 0 2 0 2.9874940395150755 11.636833906247483 8.070694178387866 1 0 0
874 0 1 0 1.9760890052919438 14.833136915415302 10.538419398916266 3 0 0
839 0 2 0 -2.897994371646403 12.734320655256836 12.636171453148174 2 -1 0
329 0 2 0 4.28548866023412 4.473888401028521 0.8650047931771245 -5 -7 0
1165 0 1 0 10.28581366684786 7.088632707117782 10.585280636745527 -3 1 0
1242 0 2 0 -3.88012770318795 13.023675422662045 8.298368418602816 1 4 0
504 0 2 0 7.600745227155216 6.847587255243774 2.088195202040243 2 3 0
1141 0 1 0 -0.8951683825296761 2.320723737302795 13.01597659470355 0 3 0
849 0 2 0 7.827751953006975 -1.3246904743384205 11.93743588741911 1 1 0
331 0 1 0 4.138893832961038 15.990841717543198 15.120998953781001 2 -2 0
1628 0 2 0 -2.6049606719767615 16.299832439026215 1.9020021704906345 1 0 0
2547 0 2 0 -6.598470555112557 16.168974857302754 4.462508349104028 -1 -10 0
1648 0 1 0 2.8187151532804973 17.568411315715196 -0.5864241181421761 0 -2 0
624 0 2 0 0.5787998374425165 -0.7546764435655842 4.967165854870079 2 0 0
1159 0 1 0 -1.2644803537578087 12.839704218439293 5.195414796031847 3 3 0
2518 0 1 0 6.467106776231939 -0.9042823869166655 4.263725270624957 3 -2 1
1295 0 2 0 -4.393029808764791 14.191138015072433 3.851140907814126 0 -1 0
1261 0 1 0 2.0262257402174617 14.792537886596167 0.06941308641192745 3 1 0
875 0 2 0 1.49839915722462 15.41418385561115 9.884116052896376 3 0 0
1124 0 2 0 7.237304897939289 2.0987101578222043 5.910905810325995 3 0 0
478 0 1 0 3.920349275576721 9.846182777164051 12.769369334918835 -1 -1 0
958 0 1 0 5.802201131450632 -4.777464369733659 14.701377645188414 2 -2 0
1665 0 2 0 9.376795540609606 11.801744454142835 0.895486535264274 3 11 0
1294 0 1 0 -3.7691601865800886 14.9343366614482 3.873906623464255 0 -1 0
729 0 2 0 -1.2667951209097295 9.928741761644746 10.73007320540523 1 -1 0
673 0 1 0 1.6798166524511016 11.373019348471768 4.5940736026677 1 -1 0
880 0 1 0 10.274592009750245 2.021725035127826 14.429809539241916 -2 -5 1
1262 0 2 0 1.7871240547881642 14.05537926433404 -0.4449607565332575 3 1 0
685 0 1 0 13.462082529764482 1.2418481823659848 1.9441379165647916 -4 2 0
67 0 1 0 1.9202102828494048 18.120293890519388 8.895617865352651 1 7 0
564 0 2 0 4.85267700544106 11.004332486165668 2.3925457639493453 4 2 0
1198 0 1 0 5.997729029109247 2.6983242334050876 9.871870400572659 1 5 0
541 0 1 0 3.718818779063946 -1.0740271214800394 4.087073099422849 -2 -1 0
1470 0 2 0 -4.0186298516389085 8.704102174921564 5.642462335249522 1 -1 0
2265 0 2 0 6.767370394688127 -1.2260568438393675 8.072108187174567 -1 -3 1
1264 0 1 0 6.428325436903006 13.987419429343971 -0.05009420322990388 -4 -1 0
1483 0 1 0 0.8551334619397408 13.213449264042051 12.670530170279129 -1 -2 0
621 0 2 0 -4.896623703621389 17.6479330448972 3.448987430773089 1 2 0
312 0 2 0 6.303113008144168 4.737065593142474 6.885242931124284 1 -4 0
1711 0 1 0 1.3732898900267785 8.843643038294859 2.495565960470642 3 3 0
906 0 2 0 0.3316480767819735 15.034032607150799 7.581808926172117 4 -1 0
1677 0 2 0 5.4749042506798 12.32794694156369 4.196638717719359 4 7 0
1490 0 2 0 12.943245776607178 -0.24392571079141767 14.906798111596782 0 0 0
370 0 1 0 8.38405327024694 12.929468316912397 12.596627364954111 3 1 0
1670 0 2 0 8.355762911614775 13.659108659136548 2.480578250722131 -1 2 0
1009 0 1 0 4.8016264917825175 5.339369731978404 4.0747735065197315 1 -6 0
2197 0 1 0 6.17501602739553 9.075032542359576 11.512612402901446 4 0 1
591 0 2 0 0.6989069831922701 16.94943826726857 8.778572869297653 0 0 0
1066 0 1 0 -4.849404314424047 18.859006920275124 1.9688308953840452 -3 -7 0
763 0 1 0 -4.8017588011794 9.836623585404173 9.471864991702173 1 3 0
2450 0 2 0 0.9610051361406345 4.556421979016097 13.542446739425635 1 0 0
434 0 2 0 10.549357422687756 5.969677956604036 5.243825812695604 0 1 0
305 0 2 0 10.776486361961258 8.38080838920805 1.279634453850019 -4 -7 0
802 0 1 0 14.507717755793355 -1.805378682497652 7.3530105800940095 0 1 0
2376 0 2 0 0.7781793478620442 13.42650715685022 2.0975142926973604 0 1 1
804 0 2 0 14.299268469031402 -2.5039123917621215 7.952713718383613 0 1 0
895 0 1 0 -0.5861378675365194 18.76009361462593 0.7989116521010098 1 2 0
1721 0 2 0 4.252397598315328 7.081754204796723 14.746993266801146 3 6 0
255 0 2 0 3.8287129639318396 9.541634056605767 14.69699937570577 -3 2 0
327 0 2 0 9.63643065078911 -0.8328165915980653 3.5763013198079214 -1 3 0
581 0 2 0 4.279280160906366 7.0333290562285455 3.485286152895168 3 1 0
522 0 2 0 -0.07137264296428716 3.700222731843941 4.702497911916089 -1 1 0
135 0 2 0 6.468873170895062 13.716616679816962 9.833340470060431 0 3 0
336 0 2 0 6.680375990740211 4.772484087966436 1.178391799894284 2 -4 0
29 0 2 0 -2.098484529918933 1.2844497800885035 13.531806387675902 0 1 0
674 0 2 0 2.472955062722129 10.858274553970874 4.782502589579029 1 -1 0
661 0 1 0 11.01567255026593 5.616767846982647 8.62678030632087 1 4 0
689 0 2 0 3.9043916008576027 10.496375651836 6.433058117415045 1 2 0
1213 0 1 0 6.640729246314957 11.685006460667992 14.207988708819142 3 -2 0
652 0 1 0 1.4202156201746496 -1.9467595078604565 7.445483300523087 -1 0 0
2212 0 1 0 -5.311923435727844 13.510069435178647 9.093072362492235 0 -2 1
949 0 1 0 -3.021093290806803 7.335386450823462 8.943833360542541 1 -3 0
2374 0 1 0 1.2060455885525123 14.180435688289748 2.5343774534480445 0 1 1
1238 0 2 0 -2.783630933558995 6.653631634620653 13.512559133305158 -3 -2 0
1068 0 2 0 -4.041193337783623 19.414924132427682 1.855018619849826 -3 -7 0
427 0 1 0 3.1503018418728836 1.3842612007979591 2.8216740312423942 -2 -6 0
2248 0 1 0 -5.892946245101669 15.618980313539263 7.5394605920220705 1 1 1
1184 0 2 0 2.160638868757149 10.235401985238124 -0.7877566443827824 1 5 0
1341 0 2 0 7.229082141739949 5.965574459810782 11.888399175698895 -3 -5 0
2263 0 1 0 7.044303374391451 -0.5175566367733038 7.541651660597317 -1 -3 1
1383 0 2 0 5.610167698212427 19.014952981747417 4.073602833460968 0 1 0
334 0 1 0 6.110909482438844 4.034951619183488 0.951497340440868 2 -4 0
848 0 2 0 6.450183334231839 -0.6685765562825576 11.329411783193008 1 1 0
43 0 1 0 8.321425597337997 1.7311987750519862 9.062581671605466 1 -1 0
2354 0 2 0 -4.068259904360123 12.30533070468053 6.04514825041352 0 -1 1
1418 0 2 0 9.425672385052895 11.603111485829448 5.286289013108495 0 1 0
281 0 2 0 8.809764611372454 1.2954155960091376 2.3591551551514653 3 -3 0
1010 0 2 0 4.7868322524470965 4.528924717436559 3.5609133272853395 1 -6 0
309 0 2 0 2.4461216146809988 13.903624803787794 7.71594103423481 1 -2 0
649 0 1 0 -0.5717914594121128 -0.9499875512983409 12.55869718019837 1 -2 0
1181 0 2 0 10.914032598349314 -0.26955008709711187 0.07832949227892871 -2 0 0
770 0 2 0 13.87316121421756 -0.13307262737719183 10.288962442854208 5 -1 0
903 0 2 0 4.629616905210732 -0.12553338256351898 10.887237317209895 -2 4 0
1182 0 2 0 9.872759451729419 0.1575516122828705 1.2016237296646834 -2 0 0
1588 0 1 0 5.932739585104558 13.199072243612873 8.315179611319255 1 4 0
1382 0 2 0 4.546299133789531 17.789419402336456 4.461058431474813 -1 1 0
1004 0 2 0 7.478003995150475 7.38160943871101 9.02665689538951 2 0 0
659 0 2 0 6.900778994508195 14.084277399090517 5.139133162135827 -2 0 0
675 0 2 0 1.1368280924536907 11.489702202435403 5.398814252285397 1 -1 1
1012 0 1 0 0.8671917477795972 -0.5428907449193687 14.744515391715069 -1 -1 0
59 0 2 0 11.50390794540016 -2.247149463432948 14.402182067889342 2 1 0
1263 0 2 0 1.58843922724314 14.65973744977834 0.9162854338533415 3 1 0
1291 0 1 0 8.793194661084145 6.936255984593791 5.716487955406684 -1 -4 0
828 0 2 0 -4.916701338260869 14.697289570627849 10.48550622229857 -2 -3 0
837 0 2 0 -0.9812821076493508 4.515904229041219 0.922901896514418 0 4 0
1234 0 1 0 1.0789015071886683 4.440061457272546 7.537772279702553 -2 2 0
1142 0 2 0 -0.5437167305850157 2.7045065520219778 13.822409639370663 0 3 0
1722 0 2 0 4.5607342200124705 6.881647574629515 13.27821400403567 3 6 0
328 0 1 0 3.343461188156443 4.457597851771253 0.5948505854150503 -5 -7 0
186 0 2 0 7.143990881034446 12.791602130209847 1.2561501876839731 -3 -6 0
884 0 2 0 -2.63945002446111 16.113080947233197 6.554280275205389 -1 3 0
1070 0 2 0 8.270584090025887 7.593340402321548 4.071508283202452 0 4 0
859 0 1 0 -1.938916868993411 14.26634420418835 -0.6897832515650377 -2 -2 0
195 0 2 0 2.3402183739420623 -4.241296527734339 12.233322502675682 -4 -3 0
1669 0 1 0 8.5394078792901 14.551350709640584 2.692468127209811 -1 2 0
1492 0 1 0 9.514320904157573 7.322189389620982 -0.6665556344313139 -3 1 0
730 0 1 0 2.224675459571108 13.860477918454272 14.814109231561105 1 0 0
1163 0 2 0 6.84598366101854 17.665152323725238 1.2630971089552512 -3 -7 0
2339 0 2 0 3.3661983293631 14.359461676910794 0.7815638539667391 1 0 1
524 0 2 0 1.3796975176234667 11.683360465760906 0.9389261032928824 -2 -6 0
697 0 1 0 4.835090560264247 -3.5269267479818383 10.737517178926508 0 4 0
891 0 2 0 6.869709597413681 -0.07994916857365975 1.4369211084214504 -1 -3 0
905 0 2 0 -0.1522492924142948 13.892843216791999 6.673329016063897 4 -1 0
1042 0 1 0 -1.2244008764710237 11.36484481906286 13.22249773692795 -1 -1 0
1706 0 2 0 1.7717298987975605 1.1349854242861896 14.685349578245154 1 1 0
1215 0 2 0 5.804507474933174 12.022590422512796 14.558667492032136 3 -2 0
68 0 2 0 11.371131127764999 -2.3104972373150043 8.815981559740425 1 8 0
580 0 1 0 4.051183314912384 7.840108279237005 2.9863287880643554 3 1 0
940 0 1 0 6.788743875627491 16.793853770064413 2.6135267981585617 -1 3 0
1675 0 1 0 6.32834989735217 12.05864204879069 4.499288967572015 4 7 0
2449 0 1 0 1.585331246541776 4.245570598395434 12.890666162840404 1 0 0
248 0 2 0 6.076113926814563 -2.111633136720255 12.988260441410311 3 5 0
1352 0 2 0 3.699300012128449 20.103054032165392 -0.1284084496637914 -3 -1 0
198 0 2 0 -0.03481004337537977 15.466992522165262 5.093556236112431 -1 2 0
543 0 2 0 2.955876457262502 -1.4659353894918141 4.511318301211919 -2 -1 0
1590 0 2 0 6.559334447894503 12.830836149115019 7.704085493842927 1 4 0
1239 0 2 0 -3.2177727710893165 6.4820777306601896 15.046372148578374 -3 -2 0
378 0 2 0 11.96289190064925 1.858127789738667 5.884952877878624 3 8 0
881 0 2 0 11.182136680042582 1.7034478807643154 14.465143276897306 -2 -5 1
2218 0 1 0 5.242412180649492 7.6006998645808155 0.0972893348686209 -2 0 1
2172 0 2 0 3.620566349580089 19.547312307325026 2.1289957793195815 2 -1 1
2191 0 1 0 -1.2212776488213555 14.87695416481311 14.525254625191632 2 -4 1
836 0 2 0 0.4060810646654452 3.8109786742697636 0.6327824535757216 0 5 1
2460 0 2 0 7.6527762714805965 4.1574893590605555 3.967310797130736 1 6 1
376 0 1 0 12.556072556813778 1.0675592463151267 6.009179305896535 3 8 0
286 0 1 0 8.743063966408087 4.288968031657935 10.575909821227212 1 2 0
2193 0 2 0 -0.9513237237996447 14.500126286591549 15.43727858477352 2 -4 1
395 0 2 0 -0.5319313143750236 1.1800860923381962 5.039892873271158 2 0 0
783 0 2 0 9.256781716907508 -3.5271115310756427 12.106776976175597 3 -3 0
615 0 2 0 -2.151989452339018 18.601359809094962 4.0309612576642575 -2 -4 0
439 0 1 0 -3.501586253747542 10.388530281027169 0.19862558922235762 1 2 0
857 0 2 0 -2.432694303365599 11.132049170141993 7.8764803309726386 -2 -4 0
489 0 2 0 -3.2753105120467705 18.46789207291675 6.658191644874888 -1 3 0
1056 0 2 0 2.169067651911168 -5.06252695330665 15.211038356416154 4 1 0
2161 0 1 0 -2.4019112077767355 8.214041116581292 11.427362578576993 0 0 0
702 0 2 0 11.162030156975606 0.49952798373832463 9.120290808071823 -1 -7 0
1568 0 2 0 4.737374825068195 16.846028480910853 6.72415624192539 -3 -4 0
71 0 2 0 0.2816053632031463 10.87445496050553 3.7290908416537922 4 -4 0
443 0 2 0 5.8098185341686355 2.574770247597499 4.316090504416787 -5 -5 0
919 0 1 0 9.016953522547471 -0.22618635482209726 14.595847962303637 0 1 0
671 0 2 0 4.16045701129542 13.35167064049245 12.178972278762016 -1 -1 0
2353 0 1 0 -4.00583663107444 12.29554180292103 5.100745209318315 0 -1 1
361 0 1 0 12.810148368833952 -3.14598647711313 13.738985168194855 0 2 0
102 0 2 0 6.322806289523456 8.98854584115334 5.942357624509478 0 -3 0
377 0 2 0 12.78780384533853 1.1296658448857246 6.969527728866865 3 8 0
1592 0 2 0 3.704190010524365 3.383497108469395 7.475609375457928 0 -1 0
1248 0 2 0 -3.766796989331275 20.688546555987052 -0.3518991565639499 -1 3 0
698 0 2 0 4.270771302948887 -2.8894211028343517 10.235955381265606 0 4 0
669 0 2 0 3.3910878642979747 1.373328664414502 6.33584298174705 -1 2 0
814 0 1 0 3.149550915408741 -0.4822770609983169 11.766058479993465 1 -1 0
1419 0 2 0 8.077990441544944 12.006699507544187 4.535087212572234 0 1 0
1187 0 2 0 -2.4922771761871623 8.485025818648186 4.179679721230853 0 1 0
993 0 2 0 0.8157008407112532 10.874421171878456 7.988300081964834 -6 -7 0
744 0 2 0 0.29887946908503693 1.260512024951403 11.705024656875764 0 -6 0
1069 0 1 0 8.055103915747015 8.13417523610962 3.3064832210597244 0 3 0
133 0 1 0 6.844894176380602 14.080917695779473 10.66878862601966 0 3 0
2162 0 2 0 -1.8007662025045472 7.487913405035957 11.633373616250505 0 0 0
668 0 2 0 2.2774114751227326 2.293352919091298 5.756580060650631 -1 2 0
8 0 2 0 1.2533168416613163 2.8262084169318307 10.56252692741678 -2 -2 0
44 0 2 0 8.136524074877961 0.87916613993763 8.636586710289507 1 -1 0
2545 0 1 0 -7.290299983752818 15.606403660040108 4.898541782728117 -1 -10 0
861 0 2 0 -2.148991154579821 14.71414722373949 0.20926172079486416 -2 -2 0
42 0 2 0 10.899174226772564 7.7534423663973735 7.889049614825693 -3 -5 0
19 0 1 0 1.4146973697406005 17.587001190748353 2.7641540775199034 -3 2 0
1339 0 1 0 7.778545751986369 6.76976289517429 11.92121157902455 -3 -5 0
272 0 2 0 3.6075409159946936 5.867996183274627 11.182094476490494 -2 5 0
678 0 2 0 1.447126675538469 7.885938756625565 13.173614978157783 1 -2 0
627 0 2 0 13.974953571493108 1.19635134459103 5.1040341427558165 2 -3 0
801 0 2 0 -7.658784182928812 17.739779432907106 9.673801482961066 -4 -3 0
468 0 2 0 6.560411906332443 3.8570659761879478 12.584431311007556 2 0 0
2365 0 1 0 7.066988611579756 5.4695462042780925 8.95104511489317 0 1 0
1629 0 2 0 -2.7001703191349864 14.889880415069129 2.494306142927739 1 0 0
929 0 2 0 8.356786847699434 4.6933139765046175 7.783352174248524 1 -3 0
1712 0 2 0 1.478546496069396 9.660840757328502 1.9562308481319035 3 3 0
1241 0 2 0 -2.9228896863864264 13.505622496398903 7.24043779503914 1 4 0
542 0 2 0 3.4722525251897745 -0.1190530645451775 3.935272640774106 -2 -1 0
311 0 2 0 5.90395030683158 5.254295522157776 5.588356016015366 1 -4 0
474 0 2 0 3.516909639099406 15.05125420798133 4.184114835274161 1 6 0
1591 0 1 0 4.4597514072166895 3.9207116676239977 7.898573608048466 0 -1 0
1085 0 2 0 2.75092918252631 4.324578991514692 2.3280632569789 3 2 0
769 0 1 0 13.573845343067607 -0.9608655122005829 10.758629980073623 5 -1 0
2249 0 2 0 -5.036052364800308 15.923611526481931 7.21734918109272 1 1 1
1286 0 2 0 5.370375913762561 0.36875442096180144 14.540986798441384 3 7 0
773 0 2 0 0.13613401704585626 6.57489254460054 12.569264281122681 3 -3 0
961 0 1 0 0.366202040008464 9.006190631966412 7.74155438929178 2 1 0
918 0 2 0 -2.6369249753733395 12.296676069862436 14.733080743011369 -1 3 0
2170 0 1 0 4.025869366995954 19.115240828408457 1.3494110837504305 2 -1 1
11 0 2 0 6.192398618859937 9.895578709403903 1.360401434417283 0 0 0
372 0 2 0 7.762317379119286 12.399898813085276 13.150754563530763 3 1 0
1098 0 2 0 -2.4855373129243032 5.33943927767975 4.429500960000144 0 1 0
772 0 1 0 -0.4758507783079622 6.4111535840087 11.860880396332705 3 -3 0
587 0 2 0 0.2616739726985336 6.827923255525271 10.414593441786367 2 6 0
2171 0 2 0 3.417769533535753 18.41485140175104 0.9819531662151411 2 -1 1
2264 0 2 0 7.8839177696917275 -0.7815274342912208 7.161066350143647 -1 -3 0
676 0 1 0 1.0739100509424442 7.328964807739883 13.868643563328504 1 -2 0
1707 0 2 0 3.194090930949987 1.5317172538114612 14.327987768845144 1 1 0
897 0 2 0 0.10391402406997954 19.427994430661872 0.7155154594145607 1 2 0
75 0 2 0 11.993507066672318 5.36900551792792 1.2563821290672266 2 1 0
2398 0 1 0 -1.3316962282219527 17.50945786854349 6.7119826364830235 -1 -2 1
428 0 2 0 2.982855122305959 1.0317064808192664 1.9423276580923647 -2 -6 0
306 0 2 0 10.361953406647247 9.754527291879278 1.673871785319938 -4 -7 0
902 0 2 0 5.379083344441952 0.9278141077787154 9.975596002577673 -2 4 0
562 0 1 0 4.093449905817643 11.538586583070897 2.3991813167314273 3 2 0
731 0 2 0 1.8095285165302326 13.728560009373346 13.95921372508538 1 0 0
333 0 2 0 5.040507829798608 15.61340575571164 14.900030196389634 2 -3 0
1381 0 1 0 4.7913764307186195 18.71295669818174 4.55128870527692 0 1 0
1605 0 2 0 3.4365140019480607 11.242178838969796 11.690987656580845 2 -2 0
503 0 2 0 6.644410438386145 6.9289976984692885 0.8885656158404813 3 3 0
2338 0 1 0 4.193812692756525 14.233163912934142 1.3281481885346413 1 0 1
799 0 1 0 -7.833638233373186 17.03694087797181 8.990762839561812 -4 -3 0
645 0 2 0 9.55744164588081 1.8123496369741596 4.765338564178748 3 -2 0
930 0 2 0 8.919903158380617 3.299784364933149 7.817875632887427 1 -3 0
41 0 2 0 9.568848330891413 8.593470357556853 8.123577316371742 -3 -4 0
696 0 2 0 -0.29624203124084686 8.320755536615053 14.407287101294084 2 2 0
488 0 2 0 4.5570384892922435 -2.6358004155330588 7.416676120534564 -1 4 0
571 0 1 0 12.543742570175704 3.7385059214059155 9.86031108994894 -1 1 0
1324 0 1 0 4.682488714077731 8.576397091555577 9.365780543619849 0 0 0
294 0 2 0 6.892866862955259 5.663879396888476 14.120420098443372 -5 -5 0
307 0 1 0 3.3570708392166053 14.083157943935445 7.515862647033842 1 -2 0
108 0 2 0 0.23788457432754234 15.666810184440067 13.673470497378046 2 -1 0
444 0 2 0 4.802206861363366 2.0982491777930097 3.159101191059717 -5 -5 0
885 0 2 0 -3.422743631463866 15.154266452589404 5.489009338251308 -1 3 0
614 0 2 0 -1.3892076271935765 18.310800232578863 2.7544860120451915 -2 -4 0
429 0 2 0 2.7100975179298623 2.2559968332546045 3.061338591470686 -2 -6 0
1604 0 2 0 3.2701689449418714 11.66416116125804 10.186519314635689 2 -2 0
2424 0 2 0 -1.2515561827707817 12.96765085422706 0.42219939555087493 1 0 1
2459 0 2 0 8.644085362839114 3.2056772669408824 3.316749862987642 1 6 1
277 0 1 0 4.868454616552262 17.902292338494128 9.514127997916036 6 -1 0
667 0 1 0 2.7486578391654155 2.081817140522867 6.579456951580068 -1 2 0
2234 0 2 0 -1.5282894374802412 6.411951081935236 0.8423692280822093 0 -2 0
924 0 2 0 -7.11185327709494 20.649103657677415 0.9985416661655262 -2 3 0
196 0 1 0 -0.49704856148431886 15.46120203390035 4.236551904109385 -1 2 0
928 0 1 0 9.132604048366769 4.160481547400654 7.437368157300025 1 -3 0
287 0 2 0 8.88394487961909 3.3921972681261523 10.259816613050772 1 2 0
700 0 1 0 11.481243357413886 -0.18742704306043834 8.502431754242581 -1 -7 0
1650 0 2 0 2.2847252835591756 16.76955833121165 -0.4743930968094167 0 -2 0
1125 0 2 0 5.766501858801585 2.2868418548290768 6.40612811285463 2 0 0
934 0 1 0 7.356291875144477 -2.5549350876215575 9.243438561116275 0 1 0
2294 0 2 0 4.625756247644066 -0.5142491210236337 6.083288141913721 5 5 0
878 0 2 0 0.9600683635138813 8.264321405975195 4.225937669908425 -2 -3 0
2330 0 2 0 0.9431711929630242 -0.1867776906092664 8.09011331428813 -1 3 1
308 0 2 0 3.3980296918657213 15.05892117825417 7.30376708580401 1 -2 0
803 0 2 0 14.411530044158438 -2.2663436939524075 6.512529601002021 0 1 0
660 0 2 0 8.076011458088361 13.979598182836755 6.073259683127363 -2 0 0
1060 0 1 0 11.196458277103229 -0.5988706647962418 12.044387988024015 2 0 0
502 0 1 0 7.3714248742791515 6.432304528388399 1.2649692260648195 2 3 0
840 0 2 0 -3.329347241665017 14.229599746981144 12.51517537812208 2 -1 0
464 0 2 0 1.0198911059982094 9.780581419901363 11.447410271639988 -5 -6 0
247 0 1 0 5.427487068359238 -2.7835052259250705 13.246775182548163 3 5 0
445 0 1 0 -3.9463007492416238 9.330008525492314 13.429520072401576 -1 0 0
1180 0 1 0 9.963729108999697 -0.11200263753078321 0.2880155642493527 -2 0 0
1011 0 2 0 3.942320964653147 5.289681845155988 4.525134939063703 1 -6 0
646 0 1 0 -5.184173478104963 17.449481638160965 -0.2617738737777535 -2 -2 0
1705 0 1 0 2.280399531320186 1.876321445258621 14.248187173672996 1 1 0
1627 0 1 0 -2.5833139261114852 15.36634380088718 1.645668994389741 1 0 0
1589 0 2 0 5.396361613774792 13.863654932101042 7.782962537772596 1 4 0
2219 0 2 0 4.793258735096964 6.9993607245842515 -0.5843834891111519 -2 0 1
1161 0 2 0 -1.1200752063059154 12.162926591373413 4.517593692231057 3 3 0
1340 0 2 0 8.342801311461201 6.732311540133775 12.731707209403426 -3 -5 0
962 0 2 0 0.6361679262325102 8.356650002708001 8.419509092679354 2 1 0
483 0 2 0 11.417071825245444 2.30362124647415 10.366447202700746 1 2 0
1084 0 1 0 2.3399834133737234 3.8793091189703492 3.0961453067830393 3 2 0
176 0 2 0 5.122386782671088 8.48143996048114 7.412765317223455 -3 -2 0
467 0 2 0 5.278146739965883 4.623601863887307 12.053977223115613 2 0 0
363 0 2 0 13.659029089012227 -2.81592727272096 13.391146170457239 0 2 0
1411 0 1 0 7.849299957765555 10.819987387458106 10.205585480479073 -3 -6 0
2220 0 2 0 4.66893089920756 7.768107943271835 0.8320317833880571 -2 0 1
722 0 2 0 2.720651320230422 5.7786819371843325 -0.7120862248284564 -1 -6 0
61 0 1 0 -6.282866336619076 13.589416854383153 3.3311339544811105 -1 -7 0
1577 0 2 0 10.40907040612344 -0.5824651833273906 7.071549367967271 -1 1 0
648 0 2 0 -5.197394131337756 16.627894576438045 0.24996345238137718 -2 -2 0
1121 0 2 0 10.254337168144119 3.483052091616186 6.020457054887463 2 1 0
1671 0 2 0 8.692690639981873 14.558295991599179 3.6408509918275964 -1 2 0
572 0 2 0 11.978817027639673 4.328095835752595 9.313946151393814 -1 1 0
280 0 1 0 8.014113020040883 1.462474746630925 1.8755899338172424 3 -3 0
827 0 2 0 -4.581351615465631 16.20575513949753 10.861166572481288 -2 -3 0
1162 0 1 0 6.883694058242857 18.31428987001221 0.5357029720893762 -3 -7 0
896 0 2 0 -0.5143774764990955 18.330564415675095 -0.07186439805021627 1 2 0
185 0 2 0 7.454811728098801 11.528253397851772 2.035040453947 -3 -6 0
230 0 2 0 2.5740612936102267 12.825007140206756 4.317659100988266 2 1 0
1720 0 1 0 4.932645281085395 7.301681525070695 14.081836890971132 3 6 0
856 0 1 0 -2.3524121980825488 10.180860202609578 8.033557911907296 -2 -4 0
826 0 1 0 -4.472036682921431 15.279313305365346 11.11437440427518 -2 -4 0
40 0 1 0 10.380397413344276 8.480960016662216 7.597874482051564 -3 -5 0
371 0 2 0 7.895845239011929 13.40040658077162 11.90675811505532 3 0 0
1199 0 2 0 6.203404637621924 3.2181367826824183 10.646821830108907 1 5 0
937 0 1 0 8.628517309697397 2.6195850216815604 -0.8297227371024892 2 1 0
229 0 1 0 3.052246216983989 13.577874072584569 4.659707285583802 2 1 0
742 0 1 0 1.016207154024403 1.2473494926560145 11.067394789308866 0 -6 0
1484 0 2 0 1.4086652216180484 12.669896980765756 12.095544220425333 -1 -2 0
513 0 2 0 1.874964737377688 17.71102944076753 6.019156923822916 0 0 1
134 0 2 0 6.054947117890669 14.157036398747644 11.282412270138797 0 3 0
149 0 2 0 3.0491200780056915 -1.5518617890540098 8.270532619274894 -2 3 0
1232 0 2 0 1.725024622812918 1.6715483925970747 -0.44489151220775613 -4 0 0
790 0 1 0 -5.5684298716598395 15.062282051491588 0.959943325447848 0 0 0
1115 0 2 0 4.497133522150563 11.802201584834542 8.242966871035362 1 0 0
1167 0 2 0 9.348333478012155 6.9324851484236305 10.693201402000188 -3 1 0
1114 0 1 0 3.829811964793083 11.157020320792064 8.345036737339004 1 0 0