LAMMPS (23 Jun 2022)
include procedure.lmp
echo both
include		in.partitions
variable        pid world 0
include		in.temp
variable	temperature equal 275
variable        tempDamp equal 0.100 # this is 0.1 ps
include		in.pressure
variable        pressure equal 6079.5
variable        pressureDamp equal 1.0 #this is 1ps

variable	barostat string	   tri
variable	direction string   z
variable	direction_x_bool equal 0
variable	direction_y_bool equal 0
variable	direction_z_bool equal 1

include		in.seed
variable        seed world 745823

units           metal
atom_style	full
box tilt large
read_restart 	restart.lmp.${pid}
read_restart 	restart.lmp.0
Reading restart file ...
  restart file = 23 Jun 2022, LAMMPS = 23 Jun 2022
  restoring atom style full from restart
  triclinic box = (0 0 -0.7810022) to (31.007999 21.374731 31.741461) with tilt (-9.165637 1.0112403 -10.816252)
WARNING: Triclinic box skew is large (../domain.cpp:224)
  2 by 1 by 2 MPI processor grid
Summary of lammps deepmd module ...
  >>> Info of deepmd-kit:
  installed to:       /u/sigbjobo/software/DEEPMD_FROM_SOURCE/deepmd-kit/install
  source:             v2.1.3
  source branch:       master
  source commit:      5a32c49
  source commit at:   2022-07-01 09:52:58 +0800
  surpport model ver.:1.1 
  build float prec:   double
  build with tf inc:  /u/sigbjobo/software/DEEPMD_FROM_SOURCE/tensorflow/install/include;/u/sigbjobo/software/DEEPMD_FROM_SOURCE/tensorflow/install/include
  build with tf lib:  /u/sigbjobo/software/DEEPMD_FROM_SOURCE/tensorflow/install/lib/libtensorflow_cc.so;/u/sigbjobo/software/DEEPMD_FROM_SOURCE/tensorflow/install/lib/libtensorflow_framework.so
  set tf intra_op_parallelism_threads: 0
  set tf inter_op_parallelism_threads: 0
  >>> Info of lammps module:
  use deepmd-kit at:  /u/sigbjobo/software/DEEPMD_FROM_SOURCE/deepmd-kit/install
  source:             v2.1.3
  source branch:      master
  source commit:      5a32c49
  source commit at:   2022-07-01 09:52:58 +0800
  build float prec:   double
  build with tf inc:  /u/sigbjobo/software/DEEPMD_FROM_SOURCE/tensorflow/install/include;/u/sigbjobo/software/DEEPMD_FROM_SOURCE/tensorflow/install/include
  build with tf lib:  /u/sigbjobo/software/DEEPMD_FROM_SOURCE/tensorflow/install/lib/libtensorflow_cc.so;/u/sigbjobo/software/DEEPMD_FROM_SOURCE/tensorflow/install/lib/libtensorflow_framework.so
  restoring pair style deepmd from restart
  2592 atoms
Finding 1-2 1-3 1-4 neighbors ...
  special bond factors lj:    0        0        0       
  special bond factors coul:  0        0        0       
     0 = max # of 1-2 neighbors
     0 = max # of 1-3 neighbors
     0 = max # of 1-4 neighbors
     1 = max # of special neighbors
  special bonds CPU = 0.001 seconds
  read_restart CPU = 0.009 seconds
include 	in.setup
variable	out_freq equal 2000
variable	out_freq2 equal 2000

timestep        0.0005

neigh_modify    delay 7 every 1

include         in.deepmd
# This is deepMD model

# create groups ###
#group ox type 2
#group hy type 1

mass 2 15.999
mass 1 1.008

pair_style      deepmd ../graph.pb
pair_coeff      * *

bond_style      none
angle_style     none
dihedral_style  none
improper_style  none
neigh_modify exclude none


neighbor        2.0 bin
neigh_modify    every 50 delay 0 check no

thermo          ${out_freq}
thermo          2000
thermo_style 	custom step temp pe etotal epair emol press lx ly lz vol pxx pyy pzz pxy pxz pyz

restart 	${out_freq} restart.lmp.${pid} restart2.lmp.${pid}
restart 	2000 restart.lmp.${pid} restart2.lmp.${pid}
restart 	2000 restart.lmp.0 restart2.lmp.${pid}
restart 	2000 restart.lmp.0 restart2.lmp.0


timer           timeout 23:50:00 every 1000
New timer settings: style=normal  mode=nosync  timeout=23:50:00


# Set number of time steps
variable 	nsteps_wall		equal	 6000000
variable 	nsteps_enhanced_coex    equal	150000000

variable     nsteps_enhanced_coex_upto equal (${nsteps_wall}+${nsteps_enhanced_coex})
variable     nsteps_enhanced_coex_upto equal (6000000+${nsteps_enhanced_coex})
variable     nsteps_enhanced_coex_upto equal (6000000+150000000)


# Set temperature for first step
if "$(step) < 1  " then    "velocity 	all create ${temperature} ${seed} dist gaussian"


# Always run thermo and barostat


######################################
# Run simulation with wall potential #
######################################
if " $(step) < ${nsteps_wall} " then    "fix             3 all plumed plumedfile plumed.equil.dat outfile plumed.equil.out"   "fix             1 all nph ${direction} ${pressure} ${pressure} ${pressureDamp}"   "fix             2 all temp/csvr ${temperature} ${temperature} ${tempDamp} ${seed}"   "run             ${nsteps_wall} upto"
if " $(step) == ${nsteps_wall} " then    "unfix 3"   "unfix 1"   "unfix 2"


############################
# Run enhanced coesistence #
############################
if "$(step) == ${nsteps_wall}" then    "fix             3 all plumed plumedfile plumed.start.dat outfile plumed.out" else    "fix             3 all plumed plumedfile plumed.dat outfile plumed.out"
fix             3 all plumed plumedfile plumed.dat outfile plumed.out

if "$(step) < ${nsteps_enhanced_coex_upto} && $(step) >= ${nsteps_wall} " then    "include         in.dump"    "fix             1 all nph ${direction} ${pressure} ${pressure} ${pressureDamp}"   "fix             2 all temp/csvr ${temperature} ${temperature} ${tempDamp} ${seed}"   "run             ${nsteps_enhanced_coex_upto} upto"    "unfix 3"   "unfix 1"   "unfix 2"
include         in.dump
dump            myDump all atom ${out_freq2} dump.water.${pid}
dump            myDump all atom 2000 dump.water.${pid}
dump            myDump all atom 2000 dump.water.0
dump            myDump2 all dcd ${out_freq2} dump.${pid}.dcd
dump            myDump2 all dcd 2000 dump.${pid}.dcd
dump            myDump2 all dcd 2000 dump.0.dcd
dump_modify     myDump append yes
dump_modify     myDump2 append yes

fix             1 all nph ${direction} ${pressure} ${pressure} ${pressureDamp}
fix             1 all nph z ${pressure} ${pressure} ${pressureDamp}
fix             1 all nph z 6079.5 ${pressure} ${pressureDamp}
fix             1 all nph z 6079.5 6079.5 ${pressureDamp}
fix             1 all nph z 6079.5 6079.5 1
fix             2 all temp/csvr ${temperature} ${temperature} ${tempDamp} ${seed}
fix             2 all temp/csvr 275 ${temperature} ${tempDamp} ${seed}
fix             2 all temp/csvr 275 275 ${tempDamp} ${seed}
fix             2 all temp/csvr 275 275 0.1 ${seed}
fix             2 all temp/csvr 275 275 0.1 745823
run             ${nsteps_enhanced_coex_upto} upto
run             156000000 upto

CITE-CITE-CITE-CITE-CITE-CITE-CITE-CITE-CITE-CITE-CITE-CITE-CITE

Your simulation uses code contributions which should be cited:

- USER-DEEPMD package:

@article{Wang_ComputPhysCommun_2018_v228_p178,
  author = {Wang, Han and Zhang, Linfeng and Han, Jiequn and E, Weinan},
  doi = {10.1016/j.cpc.2018.03.016},
  url = {https://doi.org/10.1016/j.cpc.2018.03.016},
  year = 2018,
  month = {jul},
  publisher = {Elsevier {BV}},
  volume = 228,
  journal = {Comput. Phys. Commun.},
  title = {{DeePMD-kit: A deep learning package for many-body potential energy representation and molecular dynamics}},
  pages = {178--184}
}

CITE-CITE-CITE-CITE-CITE-CITE-CITE-CITE-CITE-CITE-CITE-CITE-CITE

Generated 0 of 1 mixed pair_coeff terms from geometric mixing rule
Neighbor list info ...
  update every 50 steps, delay 0 steps, check no
  max neighbors/atom: 2000, page size: 100000
  master list distance cutoff = 8
  ghost atom cutoff = 8
  binsize = 4, bins = 11 9 9
  1 neighbor lists, perpetual/occasional/extra = 1 0 0
  (1) pair deepmd, perpetual
      attributes: full, newton on
      pair build: full/bin
      stencil: full/bin/3d
      bin: standard
Per MPI rank memory allocation (min/avg/max) = 7.307 | 7.308 | 7.31 Mbytes
   Step          Temp          PotEng         TotEng         E_pair         E_mol          Press            Lx             Ly             Lz           Volume          Pxx            Pyy            Pzz            Pxy            Pxz            Pyz      
 143196000   273.10541     -398.58144     -307.11488     -398.58144      0              6699.9002      31.007999      21.374731      32.522463      21555.487      8161.7316      7084.0382      4853.931      -768.05534      860.25272     -1166.544     
 143198000   280.0816      -401.19369     -307.39072     -401.23556      0              6776.7501      31.007999      21.374731      32.501842      21541.819      6101.631       8105.0461      6123.5732      2126.8273      0.89467252    -1158.2826    
 143200000   272.17758     -402.58708     -311.43127     -402.60151      0              5400.291       31.007999      21.374731      32.760301      21713.123      5236.1591      4549.163       6415.5508     -998.02903      753.63283     -900.17897    
 143202000   277.20029     -403.57804     -310.74005     -403.57102      0              5955.0981      31.007999      21.374731      32.78725       21730.984      5856.7891      7395.4345      4613.0706      581.44065     -781.76709     -2024.0204    
 143204000   274.49955     -402.8741      -310.94062     -402.85426      0              7024.6585      31.007999      21.374731      32.77646       21723.833      5517.3354      7496.7399      8059.9003     -413.21661     -912.29791     -16.156966    
 143206000   279.07851     -399.96926     -306.50223     -399.9704       0              4571.9134      31.007999      21.374731      32.716193      21683.888      6479.3034      4276.3978      2960.0391     -855.25888      82.057772      743.40404    
 143208000   281.38405     -401.5433      -307.30411     -401.52031      0              7812.2135      31.007999      21.374731      32.703142      21675.239      7488.0275      6507.947       9440.666       1191.8003     -301.01693     -1879.8789    
 143210000   270.03915     -403.49616     -313.05653     -403.41644      0              7105.9837      31.007999      21.374731      32.645624      21637.116      7294.4767      7880.2974      6143.1771     -26.134528      1534.8067     -1557.6553    
 143212000   273.04928     -401.01008     -309.56231     -400.98328      0              8310.9414      31.007999      21.374731      32.633958      21629.384      6770.969       9827.1718      8334.6835      1792.4305      762.74019     -1675.7455    
 143214000   274.11093     -405.32895     -313.52562     -405.29719      0              7359.8034      31.007999      21.374731      32.609271      21613.021      6879.4951      6200.2858      8999.6294      200.4881       451.29239      71.0361      
 143216000   269.93852     -403.01128     -312.60536     -402.97304      0              4377.2489      31.007999      21.374731      32.530244      21560.643      4608.1785      5378.1354      3145.4328     -455.19327     -1338.7305     -1826.2944    
 143218000   273.44671     -403.20348     -311.62261     -403.17234      0              7387.3083      31.007999      21.374731      32.43537       21497.762      6569.6146      6884.8679      8707.4426     -153.119        679.5578       442.07892    
 143220000   281.52105     -402.58553     -308.30046     -402.56978      0              7017.8837      31.007999      21.374731      32.617603      21618.544      7476.5337      5579.2416      7997.8759      611.14349      2106.4146      2379.8107    
 143222000   284.58595     -401.38011     -306.06857     -401.36267      0              5760.6071      31.007999      21.374731      32.613027      21615.511      5633.048       4858.8174      6789.9558      667.40503      2165.3346     -327.51595    
 143224000   280.02253     -405.97025     -312.18705     -405.87789      0              4711.8778      31.007999      21.374731      32.720251      21686.578      4051.3804      4831.9085      5252.3445     -655.11878     -620.59096      425.39561    
 143226000   280.72263     -398.83983     -304.82217     -398.85768      0              6536.9488      31.007999      21.374731      32.670392      21653.532      6767.3852      6896.8013      5946.6598      1367.708      -840.6992      -382.05906    
 143228000   278.10556     -405.27965     -312.13847     -405.2532       0              6878.3872      31.007999      21.374731      32.557937      21578.998      6758.4206      7375.3239      6501.4172     -153.80801     -662.13464     -1854.2285    
 143230000   268.90106     -404.08072     -314.02225     -404.05251      0              7112.5598      31.007999      21.374731      32.416005      21484.927      6340.878       6452.2598      8544.5417     -86.25183       1819.6639     -948.04666    
 143232000   281.13535     -406.36302     -312.20712     -406.27195      0              7937.213       31.007999      21.374731      32.476203      21524.826      7914.3439      8070.4572      7826.838      -90.238912     -1059.1692     -1477.6694    
 143234000   281.75955     -403.03657     -308.67162     -402.96847      0              6351.342       31.007999      21.374731      32.636172      21630.852      6564.4423      6492.9406      5996.643      -2094.2293      1055.5623     -260.85345    
 143236000   274.68582     -404.22015     -312.22429     -404.12255      0              8763.3169      31.007999      21.374731      32.579289      21593.15       6401.3133      9099.0414      10789.596      1135.5537      429.87713      2116.1084    
 143238000   277.58027     -402.98272     -310.01747     -402.99156      0              5995.9703      31.007999      21.374731      32.751085      21707.014      5319.1942      7235.5029      5433.2138     -525.38519      374.90672      706.29855    
 143240000   273.9785      -405.17985     -313.42088     -405.2038       0              5840.5806      31.007999      21.374731      32.718744      21685.579      5868.069       6015.0598      5638.6129     -1350.6767      2062.8703     -803.25736    
 143242000   264.81935     -399.91911     -311.22766     -399.88554      0              7205.6892      31.007999      21.374731      32.728468      21692.024      4205.356       9877.5125      7534.1992      767.92543      1297.6037      51.058369    
 143244000   271.12222     -401.25942     -310.45706     -401.20411      0              7153.4412      31.007999      21.374731      32.720158      21686.516      6026.0033      9399.475       6034.8453      647.50657      971.49247     -695.27039    
 143246000   280.09426     -399.46093     -305.65371     -399.49356      0              3609.5725      31.007999      21.374731      32.742194      21701.122      4891.988       2500.6068      3436.1226     -2183.8877     -210.54395     -32.373519    
 143248000   277.25396     -402.74958     -309.89362     -402.72384      0              6946.436       31.007999      21.374731      32.7926        21734.53       6606.2948      5107.5428      9125.4704     -372.41047     -335.58371     -869.21002    
 143250000   280.27173     -400.82937     -306.96271     -400.86728      0              9001.0265      31.007999      21.374731      32.840427      21766.229      7679.2203      10427.788      8896.0712     -1796.9287     -648.43136     -869.92135    
 143252000   280.61759     -400.69161     -306.70912     -400.68866      0              6273.6454      31.007999      21.374731      32.495225      21537.433      6413.5831      6364.0029      6043.3503     -163.76722      1849.105      -1077.4928    
 143254000   279.12354     -404.60419     -311.12208     -404.59155      0              6347.64        31.007999      21.374731      32.728549      21692.078      4776.3937      6170.1587      8096.3677      121.15676      887.58583      36.410912    
 143256000   278.95614     -404.15895     -310.7329      -404.16692      0              4136.7895      31.007999      21.374731      32.81036       21746.301      4156.0998      5761.6055      2492.6634      613.69876     -333.35497     -806.67937    
 143258000   276.09442     -401.29232     -308.8247      -401.3973       0              5800.0944      31.007999      21.374731      32.741572      21700.709      7573.729       5800.0582      4026.4959     -2476.0589     -1790.1107     -1306.6184    
 143260000   281.36438     -401.50953     -307.27693     -401.51731      0              5070.9614      31.007999      21.374731      32.668577      21652.329      4639.5839      6488.092       4085.2082     -3392.6628      324.72694      2333.8947    
 143262000   281.54981     -400.92211     -306.62741     -400.95069      0              5028.6549      31.007999      21.374731      32.611269      21614.346      3615.3825      6114.9757      5355.6066     -225.83467     -641.18757     -18.028385    
 143264000   275.86767     -404.60411     -312.21243     -404.55067      0              6737.4723      31.007999      21.374731      32.641005      21634.055      8011.3427      6230.8042      5970.2699     -983.54081      853.1024      -451.66626    
 143266000   268.52443     -401.43736     -311.50503     -401.40824      0              6743.0982      31.007999      21.374731      32.715002      21683.099      7650.067       5959.8393      6619.3884      1519.5618      530.64515      1083.4494    
 143268000   280.66101     -399.84776     -305.85073     -399.8375       0              7680.727       31.007999      21.374731      32.626433      21624.397      6055.7511      9767.3937      7219.0361      393.07472      1669.0045     -56.216246    
 143270000   276.52026     -402.64168     -310.03144     -402.65357      0              6094.7881      31.007999      21.374731      32.687448      21664.836      6120.0298      4815.0942      7349.2402      1469.6008      710.06578      1606.6606    
 143272000   272.30767     -401.77108     -310.57169     -401.77585      0              7161.2281      31.007999      21.374731      32.77679       21724.051      7011.4232      5427.9295      9044.3317     -643.12595      286.01484      1520.5791    
 143274000   283.79346     -402.42597     -307.37985     -402.41092      0              8972.1288      31.007999      21.374731      32.624258      21622.955      11361.076      5515.2147      10040.096     -1110.4624     -767.58987     -1124.1148    
 143276000   280.22019     -403.85121     -310.00182     -403.83747      0              5949.5711      31.007999      21.374731      32.760753      21713.422      6425.4769      5108.0932      6315.1433      967.01764      493.24274     -910.0399     
 143278000   270.25513     -403.58771     -313.07574     -403.549        0              4806.2424      31.007999      21.374731      32.835091      21762.692      4541.9259      4630.3923      5246.4091      1695.8857     -506.73598     -1734.3536    
 143280000   278.22627     -402.32413     -309.14253     -402.26571      0              7549.8996      31.007999      21.374731      32.602274      21608.384      9202.5244      5531.544       7915.6303      335.76087      500.55666     -19.284592    
 143282000   275.99617     -404.59908     -312.16436     -404.56754      0              5917.6938      31.007999      21.374731      32.710317      21679.994      6134.7997      7110.0172      4508.2644      457.06738      298.56108     -1519.8965    
 143284000   275.08686     -402.85385     -310.72368     -402.81893      0              7566.8165      31.007999      21.374731      32.865086      21782.573      6902.2414      7050.725       8747.4829      1732.2652     -247.10964     -1599.4519    
 143286000   267.90471     -405.65816     -315.93338     -405.64965      0              5856.4821      31.007999      21.374731      32.565695      21584.14       4749.5875      6000.4794      6819.3794     -198.70456      1450.3574      418.15969    
 143288000   280.4549      -403.50291     -309.57491     -403.48941      0              6525.1536      31.007999      21.374731      32.522589      21555.57       8060.3051      7038.6478      4476.5078     -813.71968      460.81976      116.97007    
 143290000   279.72543     -406.14792     -312.46422     -406.10067      0              6548.5423      31.007999      21.374731      32.783042      21728.195      5976.0725      6394.3119      7275.2424      178.95373      827.55495     -1798.932     
 143292000   269.03459     -402.52125     -312.41806     -402.54226      0              5617.3017      31.007999      21.374731      32.88538       21796.023      4376.0731      7504.7624      4971.0695     -113.26967     -648.56754     -1618.8599    
 143294000   275.83183     -405.25129     -312.87162     -405.27338      0              6942.7077      31.007999      21.374731      32.626381      21624.362      5600.4667      8155.8475      7071.8088      651.85018     -298.34531      919.84358    
 143296000   289.54616     -405.5629      -308.59012     -405.58126      0              7124.1324      31.007999      21.374731      32.599413      21606.488      7169.4035      7981.6362      6221.3574      973.61951      1638.4635      324.12867    
 143298000   271.32528     -401.00329     -310.13292     -400.98337      0              6909.0582      31.007999      21.374731      32.527847      21559.055      7152.7405      6159.2236      7415.2106      77.128645      81.744603     -56.690528    
 143300000   271.60577     -402.09817     -311.13386     -402.06788      0              7099.8296      31.007999      21.374731      32.632143      21628.181      6318.4955      6774.7126      8206.2807      1079.2454      609.24357     -1787.9484    
 143302000   278.35342     -402.30934     -309.08515     -402.2987       0              6941.5597      31.007999      21.374731      32.560208      21580.503      7961.7932      7657.27        5205.6158      916.89309     -237.15592      404.81411    
 143304000   278.10102     -401.47082     -308.33116     -401.49173      0              6071.5227      31.007999      21.374731      32.594752      21603.399      7521.65        6297.5217      4395.3965     -317.70232     -595.86401     -627.00969    
 143306000   276.00623     -402.92351     -310.48543     -402.91947      0              4806.1736      31.007999      21.374731      32.856301      21776.75       3959.617       5988.2297      4470.674      -156.48155      1666.9382      2051.4514    
 143308000   274.32836     -404.46194     -312.5858      -404.48212      0              5058.7859      31.007999      21.374731      32.714544      21682.795      6001.1036      4544.7458      4630.5083     -750.98272     -116.84148      590.5582     
 143310000   281.60385     -405.92495     -311.61215     -405.9702       0              6235.7045      31.007999      21.374731      32.83123       21760.133      4420.181       5499.1375      8787.795      -224.98215     -43.544801     -344.19439    
 143312000   271.4883      -404.33219     -313.40723     -404.36481      0              5131.4195      31.007999      21.374731      32.807238      21744.232      2904.0619      7568.0953      4922.1015     -1017.8833     -341.84194     -90.063278    
 143314000   272.16732     -404.38698     -313.2346      -404.37797      0              3896.4394      31.007999      21.374731      32.820584      21753.077      3133.9417      5990.5817      2564.7947     -216.7238       882.38642      122.76951    
 143316000   272.21699     -402.45721     -311.28819     -402.50328      0              5752.1706      31.007999      21.374731      32.658535      21645.673      4420.6668      6863.0517      5972.7931      1104.0854     -821.33198      298.29185    
 143318000   279.97593     -405.7108      -311.94321     -405.69649      0              5710.3097      31.007999      21.374731      32.766211      21717.039      4863.3187      4917.2336      7350.3768     -503.69235     -379.90234      162.44473    
 143320000   272.72556     -402.76864     -311.4293      -402.75168      0              6500.0301      31.007999      21.374731      32.726562      21690.76       6234.3298      6421.5395      6844.221       146.1931      -511.06262      176.102      
 143322000   285.12297     -406.43807     -310.94667     -406.41342      0              4658.2796      31.007999      21.374731      32.848352      21771.482      5040.0841      4006.2128      4928.5418     -2258.8242      188.37548      448.28204    
 143324000   276.17708     -405.51751     -313.02221     -405.5386       0              6216.5369      31.007999      21.374731      32.733504      21695.362      7707.7022      6131.7272      4810.1813      185.67346     -171.88376     -389.62705    
 143326000   271.91514     -403.74467     -312.67675     -403.77813      0              4961.8649      31.007999      21.374731      32.68629       21664.069      7041.2959      3620.6851      4223.6138      207.82786      534.86493      1347.0955    
 143328000   274.57072     -405.31906     -313.36175     -405.29533      0              7452.344       31.007999      21.374731      32.570269      21587.172      6527.6646      6711.2259      9118.1416     -671.68076      231.40554      1591.365     
 143330000   279.2768      -405.51948     -311.98604     -405.47138      0              8617.9274      31.007999      21.374731      32.568413      21585.941      7541.1093      9509.2379      8803.4351      466.53327     -326.72893      2210.8067    
 143332000   274.8125      -404.83989     -312.8016      -404.79406      0              6057.9308      31.007999      21.374731      32.70011       21673.229      6149.6945      6032.3252      5991.7728     -1360.0496     -590.6627       570.32386    
 143334000   272.84996     -402.13381     -310.7528      -402.13417      0              5295.4783      31.007999      21.374731      32.928849      21824.834      4417.7905      5500.8492      5967.7951      1489.8269      31.534264      18.471659    
 143336000   278.96535     -401.44588     -308.01675     -401.55174      0              4360.9378      31.007999      21.374731      32.805524      21743.096      4672.5546      3573.9059      4836.3528     -933.18947     -476.48488     -468.7974     
 143338000   283.68141     -406.75334     -311.74474     -406.72345      0              6755.8092      31.007999      21.374731      32.668006      21651.95       8464.6505      6433.0114      5369.7658     -568.65791     -384.27667     -629.18419    
 143340000   279.59814     -404.96604     -311.32497     -404.89114      0              6153.3136      31.007999      21.374731      32.67668       21657.7        3674.6984      7385.4057      7399.8369     -255.38741      650.29476     -1657.8401    
 143342000   271.89573     -403.72615     -312.66472     -403.70021      0              3779.9399      31.007999      21.374731      32.670137      21653.363      1994.0019      4017.0734      5328.7442     -1250.2724     -1162.0072     -227.21434    
 143344000   278.25646     -407.17642     -313.9847      -407.13637      0              5394.039       31.007999      21.374731      32.730738      21693.529      4057.7285      5972.0673      6152.3211     -990.63566      189.97176      67.442968    
 143346000   269.17346     -404.5888      -314.4391      -404.47442      0              6387.5686      31.007999      21.374731      32.630419      21627.038      8771.612       3296.2528      7094.8411     -743.08695     -1417.3432      2004.4376    
 143348000   267.55916     -403.70558     -314.09653     -403.64652      0              6503.1355      31.007999      21.374731      32.668189      21652.072      6185.8826      8971.6905      4351.8333     -825.18236      578.15797      23.463786    
 143350000   277.66712     -404.12197     -311.12763     -404.02188      0              9005.1122      31.007999      21.374731      32.504744      21543.743      10417.358      7812.8358      8785.1425     -1268.8878     -1189.9733     -857.25552    
 143352000   269.67345     -406.60039     -316.28324     -406.49436      0              5359.4591      31.007999      21.374731      32.703166      21675.254      7166.5226      4129.784       4782.0706     -630.29437     -1988.4342     -626.51748    
 143354000   271.96214     -406.82985     -315.74619     -406.73338      0              5059.5142      31.007999      21.374731      32.895733      21802.885      4918.5185      4666.4707      5593.5535      1471.2523     -417.91106     -145.17456    
 143356000   275.49862     -403.96923     -311.70115     -403.93184      0              5999.5496      31.007999      21.374731      32.677297      21658.109      7364.3084      4601.8396      6032.5008      1717.3334      837.9611      -22.16668     
 143358000   267.51705     -403.29272     -313.69777     -403.19718      0              4693.6855      31.007999      21.374731      32.729889      21692.966      4860.3024      4575.2389      4645.5151      652.40237     -231.04263     -1101.9761    
 143360000   272.71643     -403.81141     -312.47512     -403.69358      0              5046.8368      31.007999      21.374731      32.707404      21678.063      4807.8095      7383.4997      2949.2011     -485.43483     -1573.3882      397.55984    
 143362000   278.55718     -404.60653     -311.3141      -404.52936      0              5568.8717      31.007999      21.374731      32.856274      21776.732      5830.6721      4765.9868      6109.9561      165.97979     -91.804154      448.30271    
 143364000   275.49006     -405.32724     -313.06203     -405.2699       0              6411.6753      31.007999      21.374731      32.726812      21690.927      6924.9857      8159.2965      4150.7438     -1579.0938     -324.59891     -1264.8143    
 143366000   271.78918     -402.22769     -311.20195     -402.16122      0              6375.6483      31.007999      21.374731      32.625144      21623.542      6360.3992      7189.1104      5577.4354      584.65839     -48.571447     -2198.0157    
 143368000   276.50601     -407.1455      -314.54004     -407.04353      0              6977.234       31.007999      21.374731      32.725441      21690.018      6728.6001      8494.7969      5708.3052      1634.4275     -1366.6635     -15.608708    
 143370000   268.72352     -407.1242      -317.12519     -407.02902      0              5933.4947      31.007999      21.374731      32.722394      21687.998      5123.8856      7838.164       4838.4344     -414.09783     -53.880792      331.67544    
 143372000   260.74214     -405.7307      -318.40476     -405.66468      0              6045.1328      31.007999      21.374731      32.701106      21673.889      5991.4724      5080.6779      7063.2482     -209.10598     -436.76595     -69.983811    
 143374000   273.33965     -403.33567     -311.79066     -403.24255      0              5358.7834      31.007999      21.374731      32.803466      21741.732      6329.9149      5887.9039      3858.5314      25.13147       77.466171      714.99184    
 143376000   276.06337     -406.63376     -314.17654     -406.57607      0              6264.5648      31.007999      21.374731      32.79197       21734.112      6447.7453      6249.243       6096.7062      876.21676     -51.908666      351.51508    
 143378000   271.24007     -405.08527     -314.24344     -404.97484      0              4862.3047      31.007999      21.374731      32.786994      21730.814      4853.4909      2203.0898      7530.3334      1364.1687      874.35335      675.04616    
 143380000   273.86593     -403.18714     -311.46587     -403.1383       0              7748.5907      31.007999      21.374731      32.615691      21617.277      6313.9538      8870.5829      8061.2352      1914.6771     -112.31815      959.0591     
 143382000   277.03849     -404.03909     -311.25529     -403.96983      0              4582.0465      31.007999      21.374731      32.783243      21728.328      4547.7914      4505.4021      4692.9458     -1502.7807     -93.588941      304.50882    
 143384000   280.30148     -405.20587     -311.32925     -405.09888      0              5473.9448      31.007999      21.374731      32.600182      21606.998      5814.2573      4640.8562      5966.7208      1074.6195      1887.9929      381.13283    
 143386000   282.42116     -403.98718     -309.40065     -403.87877      0              6323.1639      31.007999      21.374731      32.562099      21581.757      5957.2891      8710.3231      4301.8794     -1801.8352     -602.52675     -3214.0837    
 143388000   274.79246     -402.88757     -310.856       -402.78869      0              5479.9169      31.007999      21.374731      32.617753      21618.644      6150.6354      6344.409       3944.7062     -1212.1631      22.398973     -986.5734     
 143390000   277.63044     -405.92986     -312.94781     -405.82295      0              5276.8102      31.007999      21.374731      32.505322      21544.125      4373.1136      6875.5222      4581.7947     -1912.5917      3123.6125     -356.64265    
 143392000   283.92895     -405.32318     -310.23167     -405.2062       0              8302.4104      31.007999      21.374731      32.469402      21520.318      8672.8683      9141.9748      7092.3882      1808.7616      828.15186      1363.738     
 143394000   282.14711     -406.72544     -312.2307      -406.58313      0              6959.9281      31.007999      21.374731      32.450055      21507.496      6393.3115      6883.5018      7602.9711     -345.34518      2137.6283     -1643.9065    
 143396000   271.36777     -404.00685     -313.12225     -403.93681      0              5359.9494      31.007999      21.374731      32.719251      21685.915      5656.0569      6055.9652      4367.826       408.58961     -1030.7786      514.56327    
 143398000   280.92855     -406.84874     -312.7621      -406.79263      0              4668.7241      31.007999      21.374731      32.665975      21650.605      3127.5391      5906.1064      4972.5267      1249.4405      1271.5959     -391.0447     
 143400000   270.26216     -405.20389     -314.68957     -405.14394      0              4961.5192      31.007999      21.374731      32.703304      21675.345      6932.2246      5921.9941      2030.3387      992.6945      -1056.7213      545.96714    
 143402000   267.40551     -406.13648     -316.57889     -406.06612      0              6097.3174      31.007999      21.374731      32.703172      21675.258      5608.7997      6117.4816      6565.671       1403.8926      908.39415     -1316.2545    
 143404000   270.62893     -404.50338     -313.86622     -404.39751      0              8068.5297      31.007999      21.374731      32.479467      21526.989      8473.4599      8516.054       7216.0753     -2408.8497     -416.63322     -1488.0329    
 143406000   279.71688     -405.79851     -312.11768     -405.6868       0              3852.5004      31.007999      21.374731      32.640074      21633.438      2700.8397      3433.8535      5422.808      -78.004663      103.9872       297.06203    
 143408000   272.07601     -405.962       -314.8402      -405.91694      0              5510.4855      31.007999      21.374731      32.596384      21604.48       6029.6557      4650.969       5850.8318      1871.6302     -978.90913      1563.7144    
 143410000   280.74572     -404.13601     -310.1106      -404.09446      0              6507.1705      31.007999      21.374731      32.536525      21564.806      5738.1179      8792.1251      4991.2686     -1185.389      -1084.072      -41.537343    
 143412000   276.93708     -406.90802     -314.15819     -406.83606      0              6320.6458      31.007999      21.374731      32.395022      21471.02       4551.9811      6374.4313      8035.525       1444.6163      110.1988       2175.2004    
 143414000   276.76435     -404.61954     -311.92755     -404.50193      0              5583.0222      31.007999      21.374731      32.337289      21432.755      5387.1316      6066.6424      5295.2924      1460.1235     -1473.0453      911.04133    
 143416000   270.30164     -405.43515     -314.90761     -405.3713       0              9329.8849      31.007999      21.374731      32.523504      21556.176      10085.044      8562.3605      9342.2499     -1758.3458      309.44975      711.07289    
 143418000   260.55369     -403.88919     -316.62636     -403.77969      0              8617.5115      31.007999      21.374731      32.38007       21461.11       8555.5298      8536.8714      8760.1333      21.294455      246.13984     -1.0045918    
 143420000   281.81737     -405.3508      -310.96648     -405.22248      0              9339.2673      31.007999      21.374731      32.321312      21422.166      8898.552       8150.4669      10968.783     -1105.5986      337.99782      1208.751     
 143422000   272.94183     -406.51382     -315.10204     -406.38723      0              6830.4409      31.007999      21.374731      32.524176      21556.622      6548.8133      7032.5144      6909.9949     -307.65271     -334.3811       548.49204    
 143424000   281.54726     -404.4843      -310.19045     -404.36139      0              7255.8989      31.007999      21.374731      32.620559      21620.503      7699.5758      7003.2469      7064.8739      544.91883      1579.4894     -247.14472    
 143426000   278.41588     -407.08559     -313.84048     -406.98288      0              4992.9974      31.007999      21.374731      32.508105      21545.97       4684.0424      6578.2381      3716.7118      508.02205     -990.86785     -2782.1081    
 143428000   279.14861     -407.13546     -313.64495     -406.99042      0              7695.2202      31.007999      21.374731      32.298816      21407.256      6699.7671      7142.6428      9243.2507      2694.5488     -911.79054      352.19087    
 143430000   271.52645     -403.72079     -312.78304     -403.5864       0              5660.3964      31.007999      21.374731      32.607923      21612.128      5255.8864      5961.3323      5763.9705      556.72979      962.4072       1777.9932    
 143432000   272.9854      -407.21138     -315.78501     -407.11151      0              7911.0184      31.007999      21.374731      32.43952       21500.513      8891.2763      6214.5277      8627.2512      693.91975      205.07074      1074.3155    
 143434000   278.45655     -404.75433     -311.49561     -404.68442      0              8179.7407      31.007999      21.374731      32.393816      21470.221      7616.4222      8112.0885      8810.7112      1216.2046     -3192.5599     -993.13028    
 143436000   273.64851     -404.9715      -313.32305     -404.87295      0              6844.327       31.007999      21.374731      32.747096      21704.37       4978.0509      7338.437       8216.4932      136.99487      519.49218      447.40982    
 143438000   278.73895     -402.84414     -309.49083     -402.7463       0              7659.7909      31.007999      21.374731      32.644229      21636.192      4472.0433      9001.2859      9506.0436      746.11165      1610.3889      1052.8071    
 143440000   279.72694     -406.61246     -312.92826     -406.5408       0              5924.1021      31.007999      21.374731      32.598426      21605.834      5908.9412      6672.7346      5190.6304     -85.066545      737.81822     -597.91189    
 143442000   285.16368     -407.78749     -312.28246     -407.67345      0              7140.9573      31.007999      21.374731      32.530128      21560.567      7866.5705      7493.6066      6062.695       145.04664     -301.51208      530.15031    
 143444000   267.5333      -402.87036     -313.26997     -402.77201      0              8598.41        31.007999      21.374731      32.380339      21461.288      9915.661       7338.1051      8541.4641     -1044.8323     -1410.4723     -480.46836    
 143446000   271.22934     -400.58378     -309.74554     -400.54592      0              6953.3872      31.007999      21.374731      32.66171       21647.778      7768.457       7074.9612      6016.7432     -280.33939     -597.08734     -218.17732    
 143448000   271.91599     -406.01053     -314.94232     -405.95789      0              6340.5649      31.007999      21.374731      32.502521      21542.269      8078.3994      4911.4311      6031.8643      70.503544      403.93912      1481.1052    
 143450000   278.03133     -404.72664     -311.61032     -404.62565      0              7233.6187      31.007999      21.374731      32.554978      21577.037      6774.6659      6805.8509      8120.3394      2151.3112     -914.11658      299.87822    
 143452000   273.68554     -402.04511     -310.38425     -402.00427      0              7048.8031      31.007999      21.374731      32.786524      21730.503      5016.699       6403.2358      9726.4744      976.98047      130.68975      1286.7953    
 143454000   274.13637     -407.75529     -315.94344     -407.63959      0              5418.3013      31.007999      21.374731      32.77585       21723.428      5176.3381      5949.2082      5129.3576      697.47456      1125.6592     -1232.91      
 143456000   269.33827     -405.65254     -315.44764     -405.61262      0              5673.3875      31.007999      21.374731      32.725462      21690.031      7538.3063      4238.0649      5243.7915      112.20966     -1122.4657     -752.81129    
 143458000   271.60124     -401.38976     -310.42697     -401.33603      0              5424.5165      31.007999      21.374731      32.739863      21699.576      5454.1913      4971.5573      5847.801      -94.654657      177.83148      928.3049     
 143460000   278.00516     -404.71971     -311.61215     -404.64747      0              4997.0787      31.007999      21.374731      32.876187      21789.93       6819.9246      5223.629       2947.6826      1276.4774     -1642.9633     -642.24731    
 143462000   274.49241     -406.27444     -314.34336     -406.23283      0              5065.9013      31.007999      21.374731      32.769991      21719.545      4757.4612      6016.7413      4423.5014      767.91129     -442.44282      490.52474    
 143464000   268.69288     -403.46764     -313.47889     -403.39257      0              6196.423       31.007999      21.374731      32.709372      21679.367      6857.7927      5716.9715      6014.5046     -1406.547       1380.3961     -418.25866    
 143466000   276.55475     -404.96441     -312.34261     -404.87825      0              5527.1363      31.007999      21.374731      32.715158      21683.202      5469.0021      8664.9848      2447.4222     -15.086648     -744.17318     -2026.9419    
 143468000   282.46636     -404.76608     -310.16442     -404.64184      0              4395.6016      31.007999      21.374731      32.990683      21865.817      4949.9622      4790.3243      3446.5181      1438.9019      803.37689     -830.69933    
 143470000   281.47903     -403.80077     -309.52977     -403.67078      0              6419.4882      31.007999      21.374731      32.900665      21806.154      5418.4707      7072.3775      6767.6163      25.57887      -506.09302     -289.08537    
 143472000   277.27716     -404.78809     -311.92435     -404.67911      0              5928.8974      31.007999      21.374731      32.877266      21790.645      4658.1623      5635.591       7492.9388      383.39799     -549.10188      682.14989    
 143474000   272.52195     -403.41213     -312.14097     -403.38371      0              5522.015       31.007999      21.374731      32.79315       21734.895      4135.3447      7030.258       5400.4423     -1014.4902     -634.06422      1568.0231    
 143476000   284.80453     -403.33052     -307.94577     -403.23084      0              6588.0123      31.007999      21.374731      32.602417      21608.479      6725.719       4615.452       8422.8658      603.59081      815.49102      1574.09      
 143478000   281.48172     -405.97304     -311.70115     -405.86284      0              6406.7471      31.007999      21.374731      32.697029      21671.187      7430.9718      5776.8413      6012.4282     -258.44682     -776.14664     -502.26492    
 143480000   278.67689     -402.70938     -309.37686     -402.57547      0              6615.0449      31.007999      21.374731      32.506079      21544.627      6611.8226      6656.1805      6577.1315      853.5715       1600.0844      1282.6528    
 143482000   268.0837      -405.51801     -315.73329     -405.43576      0              6053.023       31.007999      21.374731      32.381873      21462.305      4949.8168      7396.5607      5812.6914     -208.24417      1451.0242     -201.61716    
 143484000   274.34171     -407.94116     -316.06054     -407.82499      0              8219.2313      31.007999      21.374731      32.342596      21436.273      7428.634       10462.435      6766.6251     -301.87211     -29.982801     -1874.4938    
 143486000   276.28868     -402.5811      -310.04842     -402.44141      0              4315.6577      31.007999      21.374731      32.471768      21521.886      3447.8217      5432.0427      4067.1086      627.86386     -56.775544     -1089.455     
 143488000   281.81901     -406.25466     -311.8698      -406.18367      0              6396.2105      31.007999      21.374731      32.668183      21652.068      5250.4675      6543.0866      7395.0774     -1616.0549      975.97751     -414.3736     
 143490000   276.01629     -404.59172     -312.15027     -404.49235      0              4724.5244      31.007999      21.374731      32.615381      21617.071      4203.708       4101.5595      5868.3057     -69.396079      392.97013      118.59808    
 143492000   275.45814     -402.71496     -310.46044     -402.60325      0              4468.2482      31.007999      21.374731      32.57108       21587.709      2209.0399      3667.8105      7527.8942      1755.8058      100.27332      787.64949    
 143494000   276.58251     -407.06777     -314.43668     -406.93014      0              7655.9532      31.007999      21.374731      32.53539       21564.055      9719.6925      5670.1203      7578.0469     -391.07407     -84.911156     -571.40542    
 143496000   281.12026     -404.74079     -310.58995     -404.62385      0              4800.6278      31.007999      21.374731      32.488792      21533.17       5427.0631      6183.4449      2791.3754      409.44154     -311.63178     -793.36023    
 143498000   274.34166     -404.15002     -312.26942     -404.04421      0              7085.6738      31.007999      21.374731      32.494192      21536.749      6409.5958      6856.5473      7990.8782     -1850.0557      403.00837      498.89661    
 143500000   267.98446     -402.48084     -312.72936     -402.4143       0              2564.8396      31.007999      21.374731      32.614488      21616.48       546.94306      4768.4004      2379.1753      816.36348      898.67825     -1694.0152    
 143502000   272.33614     -402.52067     -311.31174     -402.4965       0              10550.56       31.007999      21.374731      32.509086      21546.62       12493.586      8621.3718      10536.722     -2315.2335      260.60229      1277.8513    
 143504000   276.99319     -403.87696     -311.10833     -403.7854       0              5264.1461      31.007999      21.374731      32.578985      21592.948      4260.5719      5459.3085      6072.558       248.40617      1145.7882      1262.0752    
 143506000   274.87463     -402.27049     -310.21139     -402.16684      0              6513.4363      31.007999      21.374731      32.76877       21718.736      6832.4164      7380.1337      5327.7587     -2082.1388      115.75218     -603.04977    
 143508000   272.8292      -401.87355     -310.49949     -401.73036      0              5412.0132      31.007999      21.374731      32.575866      21590.881      5304.573       3576.6141      7354.8525      460.94105     -640.91775      1296.8013    
 143510000   286.91753     -404.83195     -308.73953     -404.72482      0              4358.6568      31.007999      21.374731      32.659028      21646          3570.2594      5888.6493      3617.0616     -1396.469       1553.0727     -2067.1779    
 143512000   279.80548     -403.10739     -309.39689     -402.94544      0              6178.4096      31.007999      21.374731      32.516175      21551.319      6370.6469      7157.8042      5006.7777     -571.02237     -401.8419      -756.43998    
 143514000   278.7698      -406.52363     -313.15999     -406.41399      0              3463.0919      31.007999      21.374731      32.659184      21646.103      2441.1767      2843.5286      5104.5705      1072.2377      412.69589     -293.56881    
 143516000   272.98712     -402.29168     -310.86473     -402.16125      0              6766.2187      31.007999      21.374731      32.647374      21638.276      6200.4699      6879.5383      7218.6479      488.53176      682.34857     -82.380963    
 143518000   275.33358     -404.1288      -311.91599     -404.01877      0              5655.6773      31.007999      21.374731      32.650106      21640.086      5349.5859      6463.5506      5153.8952      569.7839      -1057.1042     -2189.1002    
 143520000   271.84495     -404.23738     -313.19296     -404.11505      0              7103.6672      31.007999      21.374731      32.651571      21641.058      6417.1996      7835.0984      7058.7036     -9.4108261      2756.5835     -405.54649    
 143522000   265.99242     -401.73353     -312.6492      -401.72619      0              4759.1816      31.007999      21.374731      32.789863      21732.716      5532.5504      5587.619       3157.3755     -81.182952     -1771.6642     -2795.6501    
 143524000   281.77876     -406.52896     -312.15758     -406.41453      0              5461.6678      31.007999      21.374731      32.711848      21681.009      4907.5309      5780.7895      5696.6831     -1801.0216      643.5143       424.29583    
 143526000   275.87239     -401.66602     -309.27276     -401.57661      0              4716.6283      31.007999      21.374731      32.830706      21759.786      2844.6027      6404.6425      4900.6397      1124.886       668.94112      1284.4228    
 143528000   274.22571     -401.74047     -309.8987      -401.67716      0              5987.7208      31.007999      21.374731      32.751326      21707.174      7588.2302      6187.5685      4187.3638      1231.1069     -392.1048       366.08081    
 143530000   281.14514     -404.2336      -310.07443     -404.10841      0              7292.083       31.007999      21.374731      32.740067      21699.712      9324.3766      6537.2642      6014.6081      1225.3727     -888.88106     -681.24822    
 143532000   274.23599     -400.63616     -308.79095     -400.61891      0              5845.6733      31.007999      21.374731      32.773038      21721.564      5563.2108      7760.4296      4213.3795     -783.81457     -1103.9613     -366.16958    
 143534000   270.74365     -404.43072     -313.75514     -404.41122      0              6707.0501      31.007999      21.374731      32.804907      21742.687      8582.9198      5738.0127      5800.2178      52.350459     -313.15727     -990.05511    
 143536000   283.15325     -404.00592     -309.1742      -403.95331      0              5672.4169      31.007999      21.374731      32.673332      21655.481      4524.0854      5634.0687      6859.0965     -446.46938     -1394.4411      498.27522    
 143538000   274.13509     -403.56061     -311.74919     -403.54477      0              6080.9345      31.007999      21.374731      32.603469      21609.176      6635.4861      5701.9088      5905.4086     -188.17361      1490.3763     -408.74407    
 143540000   267.28607     -404.25054     -314.73295     -404.23297      0              3288.9978      31.007999      21.374731      32.824953      21755.973      3783.6698      2631.3106      3452.0131      563.69969     -356.16443      673.26396    
 143542000   266.18889     -403.76795     -314.61782     -403.73009      0              7932.7392      31.007999      21.374731      32.850492      21772.9        8771.5327      7117.1675      7909.5173     -760.97897      160.95972      1220.7306    
 143544000   267.93417     -404.48802     -314.75337     -404.46918      0              4505.0488      31.007999      21.374731      32.763462      21715.218      3176.8636      5526.5313      4811.7517     -860.99738     -641.36961     -93.635114    
 143546000   271.76839     -403.12504     -312.10626     -403.08561      0              4965.1115      31.007999      21.374731      32.842695      21767.732      4842.2824      5736.8447      4316.2073      221.88668     -392.76973      871.43738    
 143548000   279.98374     -404.12257     -310.35237     -404.08956      0              4874.37        31.007999      21.374731      32.833423      21761.587      5320.1674      4321.4668      4981.4756     -426.87335      837.4764      -1224.2745    
 143550000   276.63322     -402.35384     -309.70577     -402.28829      0              3652.3033      31.007999      21.374731      32.774398      21722.466      3927.9209      4240.0493      2788.9396     -1028.7528      637.42436      593.3443     
 143552000   276.31758     -404.29177     -311.74941     -404.19177      0              5809.6059      31.007999      21.374731      32.620467      21620.442      5767.2834      7388.9147      4272.6197      2947.139      -1883.003       396.10278    
 143554000   275.5522      -406.39243     -314.1064      -406.26677      0              5809.8803      31.007999      21.374731      32.858762      21778.381      5012.7355      6415.0522      6001.8532      655.56049      1378.8543      1235.9345    
 143556000   276.98864     -404.22454     -311.45744     -404.18832      0              6353.074       31.007999      21.374731      32.862485      21780.849      5035.6797      6982.7539      7040.7884     -2195.8983      408.17516      340.63182    
 143558000   267.00296     -403.41454     -313.99176     -403.28982      0              4256.385       31.007999      21.374731      32.74604       21703.671      4126.9042      3730.432       4911.8189     -1067.5121     -373.74996      642.54048    
 143560000   278.00995     -403.01719     -309.90803     -402.96226      0              5852.583       31.007999      21.374731      32.763478      21715.228      2791.27        7305.2622      7461.2168      440.80741      405.27834     -13.927604    
 143562000   276.08207     -402.33979     -309.8763      -402.22247      0              6749.2524      31.007999      21.374731      32.809567      21745.775      7912.9804      5789.759       6545.0177      1214.0562     -1376.8613      113.32355    
 143564000   279.141       -404.20064     -310.71268     -404.10319      0              6150.3404      31.007999      21.374731      32.564825      21583.563      4929.3837      7654.7121      5866.9253     -211.59215     -814.58158      602.05424    
 143566000   269.47293     -400.66534     -310.41534     -400.56028      0              4620.1836      31.007999      21.374731      32.646505      21637.7        3411.6235      4862.5164      5586.4109     -1272.2049     -135.25684     -1073.8157    
 143568000   274.24782     -403.45699     -311.60782     -403.40165      0              5859.3003      31.007999      21.374731      32.635645      21630.502      5692.2046      6712.6957      5173.0006     -260.06842      976.00169      51.553325    
 143570000   274.0295      -403.808       -312.03194     -403.69853      0              6518.0412      31.007999      21.374731      32.82917       21758.768      3808.9003      8007.1828      7738.0404     -906.58611      1304.4498     -2087.1336    
 143572000   278.70969     -403.98053     -310.63702     -403.95419      0              5428.554       31.007999      21.374731      32.970103      21852.177      5577.3112      6716.3086      3992.0423     -290.5515       448.46124     -107.54606    
 143574000   272.32633     -403.98429     -312.77865     -403.89         0              6342.4936      31.007999      21.374731      32.847151      21770.686      7498.5478      4853.1606      6675.7725      381.20327      645.28409      490.09203    
 143576000   269.86483     -407.57587     -317.19462     -407.46519      0              5806.8283      31.007999      21.374731      32.919752      21818.805      6153.2526      4464.3209      6802.9113     -384.77041     -1210.4424      224.55405    
 143578000   274.81771     -404.43389     -312.39386     -404.34254      0              4155.6069      31.007999      21.374731      33.190709      21998.391      4706.1528      3582.6842      4177.9837      910.10868     -1107.8392      534.27395    
 143580000   259.07955     -400.82405     -314.05493     -400.76584      0              4349.6946      31.007999      21.374731      32.844987      21769.251      4408.4568      4367.3056      4273.3213     -2081.629       247.1971      -1238.6054    
 143582000   273.80409     -403.82857     -312.12801     -403.72722      0              5984.6041      31.007999      21.374731      32.702614      21674.888      5952.6084      3745.1906      8256.0132      106.79337     -1031.6183     -151.05918    
 143584000   269.2089      -406.79585     -316.63428     -406.69914      0              7822.0314      31.007999      21.374731      32.755622      21710.021      9180.4038      6681.671       7604.0195     -835.52028      1434.1204     -328.56894    
 143586000   268.52104     -408.81859     -318.88739     -408.75109      0              4010.9212      31.007999      21.374731      32.783484      21728.488      3447.4912      4312.8463      4272.426       844.12494      468.77071      2165.9371    
 143588000   273.78036     -406.55692     -314.86431     -406.42499      0              7106.8998      31.007999      21.374731      32.475828      21524.577      5936.4614      6786.9002      8597.3378      1467.028       63.588103      341.35217    
 143590000   277.06295     -408.3513      -315.55931     -408.24022      0              5083.209       31.007999      21.374731      32.667931      21651.901      6289.9921      6285.7633      2673.8717     -2368.6735      1443.1022     -1600.2797    
 143592000   271.37874     -406.57085     -315.68257     -406.47756      0              5237.3676      31.007999      21.374731      32.649116      21639.431      4715.4759      6314.2437      4682.3832      788.82524     -137.08289     -1678.4725    
 143594000   271.48699     -403.89557     -312.97104     -403.76961      0              4075.1186      31.007999      21.374731      32.798866      21738.683      3333.5457      4919.6067      3972.2035     -1071.6795     -1264.2984      1039.9233    
 143596000   268.05915     -406.66224     -316.88574     -406.59881      0              5681.0985      31.007999      21.374731      32.793694      21735.255      4661.6842      4866.6704      7514.9408     -872.3478      -129.71527     -485.31256    
 143598000   270.79393     -403.76144     -313.06903     -403.65997      0              4350.5708      31.007999      21.374731      32.796824      21737.329      4953.3523      4613.8144      3484.5456      386.35237     -1251.4847     -444.26568    
 143600000   266.11926     -406.76971     -317.6429      -406.70116      0              3194.8352      31.007999      21.374731      32.776756      21724.029      2791.2451      3377.9369      3415.3236     -1138.4009      459.57781     -965.38126    
 143602000   277.97134     -403.84804     -310.75181     -403.8191       0              6964.2271      31.007999      21.374731      32.817225      21750.851      6884.2999      7328.6839      6679.6975     -1310.3217     -1559.4024     -1040.363     
 143604000   276.38506     -403.12199     -310.55703     -403.03534      0              5205.5655      31.007999      21.374731      32.654804      21643.2        5409.8485      5686.3416      4520.5064     -719.6886       526.44501      918.40547    
 143606000   276.96958     -403.80491     -311.04419     -403.7211       0              6338.6063      31.007999      21.374731      32.735341      21696.579      6184.2304      6367.372       6464.2164     -939.0339       1561.9846      549.37164    
 143608000   277.83407     -403.63673     -310.58648     -403.51749      0              6907.5775      31.007999      21.374731      32.658854      21645.885      6258.1986      6459.667       8004.8667      1170.0985      1090.0993      45.631387    
 143610000   272.68501     -404.44103     -313.11526     -404.37325      0              6429.9756      31.007999      21.374731      32.784617      21729.239      6381.5027      5302.2575      7606.1667     -238.07568     -1044.0938     -110.62492    
 143612000   272.69522     -403.08236     -311.75318     -403.02155      0              4534.7864      31.007999      21.374731      32.774         21722.202      2781.7074      4237.565       6585.0868     -95.441042      969.20841      1296.6723    
 143614000   277.33402     -405.7939      -312.91112     -405.70182      0              3950.2214      31.007999      21.374731      32.674063      21655.965      5025.1641      3395.0873      3430.4127     -1540.799       99.383889      1478.0978    
 143616000   275.87009     -404.50298     -312.11049     -404.38325      0              6415.7557      31.007999      21.374731      32.662976      21648.617      5122.1032      6133.7278      7991.4362      809.54907      1586.8003      1972.869     
 143618000   279.36101     -403.44657     -309.88493     -403.35746      0              5628.9424      31.007999      21.374731      32.604112      21609.603      5453.5865      4252.8843      7180.3563      15.173061      287.56696      952.94024    
 143620000   272.49976     -405.54139     -314.27767     -405.45338      0              7688.3602      31.007999      21.374731      32.458166      21512.871      7765.9929      8284.3023      7014.7855     -375.09471     -1512.3426      348.16106    
 143622000   276.33958     -403.11889     -310.56916     -403.03102      0              8334.7996      31.007999      21.374731      32.666436      21650.91       9307.3738      7716.9876      7980.0376      1412.701      -1481.6899      762.42515    
 143624000   277.14471     -405.18534     -312.36597     -405.1121       0              6174.8475      31.007999      21.374731      32.62852       21625.78       6431.4417      6071.179       6021.9217      98.944453      899.73223      168.23402    
 143626000   270.58622     -403.59065     -312.9678      -403.53403      0              6154.9306      31.007999      21.374731      32.541384      21568.027      5789.7042      5827.2501      6847.8376     -291.38998      2560.9645     -1602.4579    
 143628000   277.69302     -403.34772     -310.3447      -403.25912      0              6797.2221      31.007999      21.374731      32.517612      21552.271      5633.6449      8882.0017      5876.0196      48.71576       395.25726     -1155.785     
 143630000   275.56936     -404.4441      -312.15232     -404.38761      0              7655.8734      31.007999      21.374731      32.687586      21664.928      7792.3075      8138.7944      7036.5184     -940.46734     -428.25722      1815.7661    
 143632000   272.32352     -405.70275     -314.49806     -405.60243      0              7253.0878      31.007999      21.374731      32.425245      21491.052      6706.4001      8199.7525      6853.1108     -602.76693     -1452.0149      678.16701    
 143634000   273.96439     -405.62605     -313.8718      -405.53212      0              5530.2055      31.007999      21.374731      32.508332      21546.12       5959.5518      3745.5231      6885.5415      84.390649      1115.5624      1528.1901    
 143636000   272.74535     -405.82377     -314.4778      -405.65751      0              7266.6706      31.007999      21.374731      32.631244      21627.585      8535.7625      6441.9712      6822.2782      734.8222      -392.1984       534.03439    
 143638000   272.70218     -404.90993     -313.57842     -404.74997      0              5338.1076      31.007999      21.374731      32.753064      21708.326      5843.8495      4139.1006      6031.3727     -831.04963      805.00253      414.21406    
 143640000   269.68681     -404.54481     -314.22318     -404.41444      0              5846.7549      31.007999      21.374731      32.74042       21699.945      4441.1249      6448.5321      6650.6077      535.949        859.69463      239.99681    
 143642000   274.52418     -404.72072     -312.77899     -404.6433       0              4208.7093      31.007999      21.374731      33.017943      21883.885      4585.0919      4307.8796      3733.1564     -520.40874     -501.09058      1551.356     
 143644000   276.00346     -405.54548     -313.10832     -405.44885      0              3604.1954      31.007999      21.374731      32.887338      21797.321      2422.7623      5325.3201      3064.5038      1057.215      -482.81911      402.78311    
 143646000   272.38906     -402.25097     -311.02433     -402.15623      0              5118.8584      31.007999      21.374731      33.035001      21895.191      4408.3495      5686.1493      5262.0764      1043.0838     -584.69612     -262.37595    
 143648000   274.87518     -403.84824     -311.78895     -403.70644      0              6578.8637      31.007999      21.374731      32.823435      21754.967      7268.1226      7835.7418      4632.7268     -864.70834     -1660.7491     -2467.2186    
 143650000   283.00386     -402.5089      -307.72722     -402.40862      0              6717.0719      31.007999      21.374731      32.716274      21683.942      7102.4143      7406.103       5642.6983     -339.2348       1489.3624     -978.9728     
 143652000   278.97013     -403.88632     -310.45559     -403.78957      0              4859.0979      31.007999      21.374731      32.699849      21673.055      4046.6063      4736.8132      5793.8742     -551.09972      298.96494     -1233.1551    
 143654000   267.5668      -404.0665      -314.45489     -403.95458      0              4748.4803      31.007999      21.374731      32.764662      21716.013      5243.3977      4284.2863      4717.7568     -1106.112       562.72334      577.41787    
 143656000   280.38543     -403.73018     -309.82544     -403.61203      0              7773.3557      31.007999      21.374731      32.629453      21626.398      9098.5941      6254.303       7967.1701      105.0287      -1020.1167      117.04372    
 143658000   278.20223     -403.06079     -309.88723     -402.93735      0              6199.7088      31.007999      21.374731      32.601875      21608.119      7174.4264      6474.732       4949.968       809.24399     -1289.3186     -1071.2556    
 143660000   277.23875     -403.62324     -310.77237     -403.50606      0              4916.9757      31.007999      21.374731      32.841683      21767.061      5350.419       3586.1197      5814.3884     -695.36862      143.70162      1124.5412    
 143662000   278.30499     -404.82629     -311.61832     -404.69811      0              8390.6537      31.007999      21.374731      32.694083      21669.234      9017.6011      7506.8322      8647.5278      933.19703     -17.831508     -1345.7561    
 143664000   271.64869     -402.08387     -311.10518     -401.94518      0              6345.7706      31.007999      21.374731      32.622679      21621.908      5313.4673      6361.698       7362.1466     -1040.9321      1302.3293     -374.53217    
 143666000   278.68114     -405.10971     -311.77577     -404.94817      0              5634.2771      31.007999      21.374731      32.678941      21659.198      5807.7487      3526.3002      7568.7825     -636.22642     -1302.6597     -846.51691    
 143668000   279.05573     -402.9444      -309.485       -402.82713      0              6294.4907      31.007999      21.374731      32.645996      21637.363      5791.6601      7501.6039      5590.2081     -48.908662     -1673.3492      330.67873    
 143670000   267.23382     -402.57824     -313.07815     -402.45851      0              6223.5196      31.007999      21.374731      32.707246      21677.958      5465.8352      6979.7798      6224.9437      208.85817     -513.94108     -1904.475     
 143672000   275.99577     -402.78377     -310.34919     -402.67822      0              6884.5404      31.007999      21.374731      32.637452      21631.7        6508.4734      7319.327       6825.8209     -215.56481     -1447.8555     -1973.6384    
 143674000   270.55741     -400.75248     -310.13927     -400.67488      0              5014.3181      31.007999      21.374731      32.860763      21779.707      4209.8623      6390.4549      4442.6371     -5.9758279     -730.81508      164.5766     
 143676000   277.59601     -404.84726     -311.87674     -404.73857      0              6507.2773      31.007999      21.374731      32.77287       21721.453      5942.947       5622.3469      7956.5379     -308.15261     -707.68575     -391.85272    
 143678000   272.7685      -405.04433     -313.69061     -404.90133      0              6471.242       31.007999      21.374731      32.846758      21770.425      6113.2095      7771.4804      5529.036      -1122.6216     -71.662159      8.7231705    
 143680000   275.98873     -403.09203     -310.6598      -403.01256      0              5402.9583      31.007999      21.374731      32.628319      21625.647      7065.6034      4884.7483      4258.523      -262.73719     -1696.6348     -1297.9199    
 143682000   269.94913     -406.62509     -316.2156      -406.5302       0              3274.0364      31.007999      21.374731      32.857214      21777.355      1368.6618      5506.4708      2946.9766      963.86266     -619.52452     -171.2478     
 143684000   274.87681     -403.94199     -311.88217     -403.87407      0              6362.9944      31.007999      21.374731      32.873875      21788.398      6258.9123      4302.6807      8527.3902      1700.0756     -163.56175      2274.9454    
 143686000   274.21905     -402.75736     -310.91782     -402.61966      0              5113.2341      31.007999      21.374731      32.767403      21717.83       4206.0599      6628.7503      4504.8923     -394.12037      272.85159      378.06283    
 143688000   283.69263     -408.33366     -313.3213      -408.19505      0              6692.5012      31.007999      21.374731      32.745749      21703.477      5952.2031      7368.4888      6756.8116     -973.60208     -1602.9238     -280.05804    
 143690000   275.05638     -403.92293     -311.80296     -403.84143      0              5562.2841      31.007999      21.374731      32.676437      21657.538      6673.5771      6551.3472      3461.9279     -634.11943      571.43149     -734.57343    
 143692000   272.75497     -404.15795     -312.80876     -404.02011      0              3535.644       31.007999      21.374731      32.822251      21754.182      4579.3385      2332.7296      3694.8638     -583.53107      861.536        1014.596     
 143694000   271.06943     -406.22894     -315.44425     -406.0755       0              5508.3023      31.007999      21.374731      32.732144      21694.46       4841.9715      6071.1222      5611.8133     -700.9485       1216.3713     -1090.7511    
 143696000   277.48568     -403.84103     -310.90746     -403.74157      0              5077.4536      31.007999      21.374731      32.738614      21698.748      6105.2552      6033.0573      3094.0481     -1517.2578     -631.61011     -466.44475    
 143698000   275.66135     -404.45061     -312.12803     -404.30269      0              5226.701       31.007999      21.374731      32.60637       21611.099      6653.6685      4901.4443      4124.9902      1441.0547      1019.1592     -1103.6015    
 143700000   272.73619     -407.05563     -315.71272     -406.92878      0              5875.6183      31.007999      21.374731      32.613866      21616.067      7458.8004      6148.1564      4019.8982      225.22352      423.8496      -728.27679    
 143702000   274.21909     -404.69111     -312.85156     -404.52412      0              7187.5543      31.007999      21.374731      32.643551      21635.742      7178.3292      8666.0156      5718.3181      393.88564      981.54241     -572.16528    
 143704000   279.03762     -401.75672     -308.30339     -401.61021      0              6709.1315      31.007999      21.374731      32.743888      21702.244      6354.701       6636.0445      7136.6491     -937.12712     -145.09539      483.41345    
 143706000   272.75833     -403.39414     -312.04382     -403.26655      0              4464.785       31.007999      21.374731      32.665802      21650.49       3867.2678      4227.0203      5300.0667      645.63369      1664.2153      1297.2862    
 143708000   280.7833      -404.69009     -310.6521      -404.53469      0              7804.32        31.007999      21.374731      32.768074      21718.274      6544.6561      7911.0482      8957.2559      790.91278     -317.28022     -1423.1631    
 143710000   281.36292     -402.04396     -307.81185     -401.91351      0              6162.8319      31.007999      21.374731      32.847436      21770.875      6436.5607      7591.1409      4460.7941     -825.92165      133.03597     -1213.1564    
 143712000   273.98591     -405.06162     -313.30017     -404.91738      0              4707.8283      31.007999      21.374731      32.702826      21675.029      5828.7245      4406.3277      3888.4327     -440.21346      1732.7279     -761.17302    
 143714000   273.16496     -407.43278     -315.94627     -407.28905      0              4943.3978      31.007999      21.374731      32.689542      21666.224      5312.0145      6137.8909      3380.2879      269.13053      186.28859     -1627.4104    
 143716000   278.59919     -404.76055     -311.45405     -404.64275      0              6134.5871      31.007999      21.374731      32.682857      21661.794      7769.0944      3590.6018      7044.0651     -290.28473      831.5324      -1222.9677    
 143718000   271.48086     -405.53766     -314.61518     -405.43342      0              5344.6375      31.007999      21.374731      32.8653        21782.714      5831.2375      5703.1922      4499.4829     -798.78698     -1175.3671     -1351.9845    
 143720000   276.88899     -404.58421     -311.85048     -404.44774      0              5878.2113      31.007999      21.374731      32.944315      21835.085      4639.8567      6593.1203      6401.657      -767.64704      982.96173      700.72244    
 143722000   275.61134     -408.47865     -316.17282     -408.34362      0              5517.2144      31.007999      21.374731      32.817821      21751.246      6413.5614      5024.7216      5113.3604     -930.81623     -24.678046      1218.7505    
 143724000   274.70192     -404.54513     -312.54388     -404.47356      0              5475.6342      31.007999      21.374731      32.939093      21831.624      5103.4643      5497.5022      5825.9362      863.94831      984.59654      327.63903    
 143726000   272.9167      -403.23343     -311.83007     -403.14853      0              6895.7477      31.007999      21.374731      32.89305       21801.107      9146.6715      6489.4151      5051.1566     -2249.2664      590.53193     -674.21515    
 143728000   285.89726     -404.29883     -308.54811     -404.17029      0              6058.5384      31.007999      21.374731      32.915062      21815.696      6635.9157      4267.97        7271.7295     -433.57743     -756.15362      1364.8218    
 143730000   279.61761     -405.12531     -311.47773     -405.0295       0              4883.047       31.007999      21.374731      32.810922      21746.673      5109.3176      6535.111       3004.7124     -1274.3455      1493.314      -963.06387    
 143732000   273.32327     -407.24917     -315.70964     -407.10271      0              7633.3166      31.007999      21.374731      32.689572      21666.244      7197.0851      7554.005       8148.8597      1738.9382      1595.8503      1415.8305    
 143734000   277.83648     -404.64134     -311.59028     -404.48949      0              5079.9219      31.007999      21.374731      32.535676      21564.244      6575.7001      4552.5023      4111.5634      46.07645       98.050064      721.28605    
 143736000   269.29029     -404.98402     -314.79519     -404.83898      0              6442.7394      31.007999      21.374731      32.898929      21805.004      9339.41        4489.712       5499.0964     -479.99985     -1435.9989      468.28388    
 143738000   267.21359     -404.94658     -315.45326     -404.78051      0              4873.2337      31.007999      21.374731      32.692291      21668.046      5225.8654      5507.8126      3886.0233      1831.6342      475.14063      307.02333    
 143740000   272.79213     -404.48431     -313.12267     -404.36813      0              6973.8873      31.007999      21.374731      32.692659      21668.29       5777.1651      8097.2225      7047.2744     -1545.4147     -1271.3662     -1545.255     
 143742000   279.50869     -406.05838     -312.44727     -405.93419      0              4024.6657      31.007999      21.374731      32.752033      21707.643      2122.5135      4232.6464      5718.8373     -799.46206      1910.7287     -29.324752    
 143744000   272.41871     -405.41488     -314.17831     -405.32145      0              5479.1346      31.007999      21.374731      32.784751      21729.328      5839.0212      5721.5347      4876.8479     -73.251113      353.59174      904.82113    
 143746000   274.11478     -406.5095      -314.70488     -406.40035      0              5537.1035      31.007999      21.374731      32.631782      21627.942      4369.7722      4940.387       7301.1512      1439.7033     -191.88102     -847.73326    
 143748000   276.38145     -409.18537     -316.62162     -409.07743      0              6922.3508      31.007999      21.374731      32.752752      21708.119      9138.8537      5882.2317      5745.9671     -1215.0781      561.54761      471.88566    
 143750000   282.16438     -406.30469     -311.80416     -406.16957      0              7520.9513      31.007999      21.374731      32.831914      21760.587      8916.1099      6087.7304      7559.0134      1119.3291     -540.8474      -333.05623    
 143752000   270.13321     -405.85906     -315.38793     -405.70292      0              4897.5364      31.007999      21.374731      32.681553      21660.93       3599.9098      5263.4565      5829.2431      954.42339     -518.30061     -500.52058    
 143754000   276.16063     -408.1087      -315.61891     -407.96907      0              5697.8564      31.007999      21.374731      32.649126      21639.437      7742.6304      4708.4261      4642.5125      1063.8118     -847.37988     -1099.6925    
 143756000   280.57297     -405.43644     -311.46889     -405.33424      0              6473.0321      31.007999      21.374731      32.72613       21690.474      7100.8956      6080.5615      6237.6392      1146.3509     -274.43771     -648.53104    
 143758000   274.13672     -404.23907     -312.42711     -404.10456      0              5599.8368      31.007999      21.374731      32.605689      21610.647      4666.6829      5441.2516      6691.5758      1095.0661      1047.6175     -1147.4947    
 143760000   272.70239     -405.23529     -313.90371     -405.14223      0              6343.3118      31.007999      21.374731      32.732657      21694.801      6524.7437      6540.3847      5964.8071      815.24035      30.15222       7.0654782    
 143762000   281.88797     -404.30667     -309.89871     -404.17579      0              5572.9328      31.007999      21.374731      32.605971      21610.834      5945.3802      4991.83        5781.5882     -517.77107      1925.9255     -643.82061    
 143764000   276.71678     -404.40185     -311.7258      -404.2997       0              6508.1775      31.007999      21.374731      32.73935       21699.237      8311.6432      4918.2981      6294.5914     -382.81598     -428.48981     -574.85967    
[...]
 150618000   282.75328     -404.10639     -309.40863     -404.05017      0              8252.1853      31.007999      21.374731      32.461352      21514.983      8453.0879      8813.3134      7490.1547      115.16653     -697.67221     -647.73462    
 150620000   269.40589     -404.069       -313.84146     -403.94238      0              3964.6313      31.007999      21.374731      32.580893      21594.213      4262.0043      2778.4115      4853.4782      447.8504      -224.80923      703.23932    
 150622000   272.6548      -404.12571     -312.81006     -404.00271      0              6832.8828      31.007999      21.374731      32.42734       21492.44       6272.9258      6575.8046      7649.918       1344.1384     -1385.8176      1040.3367    
 150624000   274.08022     -404.59651     -312.80347     -404.48641      0              6935.8283      31.007999      21.374731      32.413886      21483.523      7202.1472      6355.3965      7249.9412     -503.37004     -285.49807      55.973431    
 150626000   277.55603     -399.49066     -306.53353     -399.39384      0              6938.8461      31.007999      21.374731      32.362183      21449.255      6013.9839      6933.2249      7869.3296     -440.53645      570.82501      837.91458    
 150628000   269.8677      -402.28876     -311.90655     -402.26757      0              6105.7609      31.007999      21.374731      32.574725      21590.125      5701.8105      7348.3853      5267.0869     -332.51521     -3228.5368     -183.55681    
 150630000   274.60614     -401.4755      -309.50633     -401.40901      0              5653.3623      31.007999      21.374731      32.761004      21713.589      4981.1791      5832.2368      6146.6711      1905.5571      239.98878      797.26481    
 150632000   278.69558     -404.81738     -311.4786      -404.76162      0              7159.5591      31.007999      21.374731      32.500306      21540.801      5392.3486      8801.9144      7284.4141      1257.9367      2137.0994      1254.5088    
 150634000   273.43337     -401.01371     -309.43731     -400.98168      0              5454.4554      31.007999      21.374731      32.515642      21550.966      6507.4782      5233.9457      4621.9424      2982.7279      283.12915     -797.34516    
 150636000   273.62679     -402.79415     -311.15297     -402.74488      0              3481.0827      31.007999      21.374731      32.672999      21655.26       2584.1922      3832.2997      4026.7563     -645.33037      648.8661      -762.92079    
 150638000   279.18555     -401.64292     -308.14004     -401.5975       0              5800.0085      31.007999      21.374731      32.606412      21611.127      6090.3996      5763.2651      5546.3609      305.00824      1200.8718     -479.98678    
 150640000   274.41567     -401.6355      -309.73012     -401.54503      0              5090.5356      31.007999      21.374731      32.4935        21536.29       6947.6907      5026.6712      3297.245       219.52897     -145.13469      751.60856    
 150642000   277.65285     -401.57364     -308.58408     -401.53128      0              5737.3437      31.007999      21.374731      32.471748      21521.873      6808.0937      4635.5314      5768.4061      858.17715     -200.69917      1333.388     
 150644000   275.11309     -402.23316     -310.0942      -402.15949      0              6173.7134      31.007999      21.374731      32.531787      21561.666      5632.1206      6969.466       5919.5537     -255.73806     -106.24985      105.93372    
 150646000   276.11587     -402.76991     -310.2951      -402.72024      0              6027.3764      31.007999      21.374731      32.494257      21536.792      5866.6978      5190.0444      7025.3869     -47.421738     -1969.6918      372.64225    
 150648000   264.29371     -401.44083     -312.92542     -401.37435      0              8435.6112      31.007999      21.374731      32.453406      21509.716      9080.3228      9597.9116      6628.5992      1492.8165     -1297.9388     -396.52014    
 150650000   267.2961      -403.46648     -313.94554     -403.45567      0              7379.2698      31.007999      21.374731      32.496634      21538.367      6485.3311      7004.7472      8647.7312      677.01501      360.4847       704.08562    
 150652000   275.51339     -405.84028     -313.56725     -405.75589      0              6716.0445      31.007999      21.374731      32.564931      21583.634      7312.7859      6144.5248      6690.8228     -1098.3498     -1071.7548     -989.72786    
 150654000   276.78911     -401.17675     -308.47647     -401.09895      0              4999.1588      31.007999      21.374731      32.409119      21480.363      4924.3338      6545.0397      3528.1029     -2155.8748     -1331.5177      624.31265    
 150656000   276.08442     -404.96725     -312.50298     -404.88114      0              6165.3908      31.007999      21.374731      32.4686        21519.787      6969.2986      5368.1727      6158.701      -1023.2899      567.26138      271.44396    
 150658000   277.29658     -400.85528     -307.98504     -400.76062      0              7489.4273      31.007999      21.374731      32.408574      21480.002      7712.2711      6869.0231      7886.9878     -830.34969      349.247        97.546172    
 150660000   270.38001     -403.85065     -313.29686     -403.7616       0              6207.0543      31.007999      21.374731      32.676242      21657.409      7410.4558      6388.2628      4822.4443     -1382.3875     -2791.0423      1849.429     
 150662000   281.89916     -402.21341     -307.80171     -402.15015      0              4899.8254      31.007999      21.374731      32.551426      21574.683      4455.0785      5250.7502      4993.6475     -1368.0902     -1058.0351     -1589.5294    
 150664000   277.18714     -403.42625     -310.59267     -403.39829      0              6365.6331      31.007999      21.374731      32.661255      21647.476      6132.0684      5232.299       7732.532       80.552109     -1158.3707      1585.5521    
 150666000   282.62219     -402.85378     -308.19992     -402.84932      0              6042.4593      31.007999      21.374731      32.490134      21534.059      5839.1725      5623.2729      6664.9327      506.26234      1888.3146     -662.70694    
 150668000   280.16995     -404.23919     -310.40662     -404.18155      0              6024.4781      31.007999      21.374731      32.395934      21471.625      6530.1037      4790.5983      6752.7323      1218.7019      403.4718       549.48126    
 150670000   272.17249     -400.64882     -309.49471     -400.61874      0              6224.5194      31.007999      21.374731      32.516577      21551.585      6638.7941      4274.7635      7760.0005      681.97395     -235.13478     -595.02663    
 150672000   268.45124     -402.80563     -312.89781     -402.73894      0              5438.398       31.007999      21.374731      32.494346      21536.851      5995.4473      6518.7306      3801.0161     -491.20929     -1437.2978     -855.66189    
 150674000   277.29548     -402.59394     -309.72407     -402.55797      0              6602.4175      31.007999      21.374731      32.407389      21479.216      9461.7533      3015.4222      7330.077      -183.06509     -1694.8897      1328.3618    
 150676000   276.13913     -404.56814     -312.08554     -404.52668      0              7530.5753      31.007999      21.374731      32.497764      21539.116      8938.3413      7063.1783      6590.2064     -1403.9245      584.11055      247.18364    
 150678000   267.40814     -404.56321     -315.00474     -404.44979      0              6128.2495      31.007999      21.374731      32.478003      21526.019      5046.2958      7691.5599      5646.8928      98.123522     -1325.704      -2487.1965    
 150680000   271.0682      -403.50447     -312.7202      -403.38501      0              5114.7159      31.007999      21.374731      32.470234      21520.87       4394.5826      5068.1339      5881.4311     -1785.4557      1476.6428     -751.96767    
 150682000   274.289       -404.43973     -312.57677     -404.34484      0              2531.4673      31.007999      21.374731      32.525162      21557.275      2287.2807      1843.3536      3463.7677     -235.80583     -157.68445      429.12538    
 150684000   277.87913     -404.65322     -311.58788     -404.55458      0              6694.8356      31.007999      21.374731      32.337542      21432.923      5616.8726      7520.0897      6947.5444     -10.837984     -252.80525     -2070.4696    
 150686000   273.78975     -403.10805     -311.41229     -403.01607      0              4569.6864      31.007999      21.374731      32.441017      21501.505      5026.7494      4274.6816      4407.6283     -1676.6977     -343.50674     -508.02169    
 150688000   273.49723     -401.34858     -309.75079     -401.33754      0              8405.1999      31.007999      21.374731      32.272304      21389.684      6772.2369      9630.336       8813.0267      1236.3213     -342.44143      67.069379    
 150690000   278.73277     -405.49623     -312.14499     -405.40898      0              5157.8912      31.007999      21.374731      32.341249      21435.38       6065.5333      4345.2792      5062.8613     -155.64026      629.58983      1070.5889    
 150692000   281.00245     -403.06474     -308.95336     -403.07165      0              2541.1984      31.007999      21.374731      32.583836      21596.164      3479.2923      2192.8156      1951.4874     -851.26596      1066.9799     -909.52129    
 150694000   269.83247     -405.01802     -314.64761     -404.98819      0              6070.4822      31.007999      21.374731      32.47358       21523.087      8407.9785      5662.1145      4141.3536     -338.20181     -480.24799     -2760.596     
 150696000   274.69348     -401.15731     -309.15889     -401.14234      0              6756.9059      31.007999      21.374731      32.445793      21504.671      6691.5742      6146.2922      7432.8514     -711.16943     -198.43541      1180.562     
 150698000   275.2814      -404.08975     -311.89442     -404.03296      0              5978.586       31.007999      21.374731      32.597915      21605.495      5996.7031      5371.2502      6567.8049      2180.689      -1366.1286      852.77726    
 150700000   274.01622     -404.76596     -312.99435     -404.73351      0              6656.926       31.007999      21.374731      32.565714      21584.153      7747.8778      6786.9838      5435.9164     -1275.0319     -1431.0843      834.90382    
 150702000   281.0997      -400.11179     -305.96784     -400.06814      0              6224.8232      31.007999      21.374731      32.470434      21521.002      5939.2738      5731.1152      7004.0806      107.65086     -1189.7846     -536.09871    
 150704000   271.89749     -401.99513     -310.93312     -401.90219      0              6332.9388      31.007999      21.374731      32.591231      21601.065      5824.2405      7480.7648      5693.8111      1879.0882     -776.26885     -295.57639    
 150706000   273.99454     -402.80669     -311.04235     -402.72742      0              5454.0565      31.007999      21.374731      32.545948      21571.052      3443.9332      6303.5088      6614.7275      307.17121     -364.15716      242.10045    
 150708000   272.6124      -401.52431     -310.22286     -401.44216      0              4595.6392      31.007999      21.374731      32.440812      21501.369      2433.5822      5578.9628      5774.3725      578.35847     -260.47832      624.26471    
 150710000   269.33502     -404.33936     -314.13555     -404.21111      0              5647.8429      31.007999      21.374731      32.384728      21464.198      5599.8523      5615.7491      5727.9272      73.790998     -1232.3147      579.74781    
 150712000   280.59689     -404.51037     -310.53481     -404.42019      0              5763.733       31.007999      21.374731      32.498573      21539.652      5896.9902      6641.6371      4752.5718      200.43629     -964.53563     -426.53121    
 150714000   275.16954     -403.0366      -310.87874     -402.92127      0              6180.2278      31.007999      21.374731      32.465933      21518.019      5889.0088      5912.2082      6739.4665      846.74347     -906.64321     -522.91098    
 150716000   272.40776     -402.58771     -311.3548      -402.47551      0              6903.9236      31.007999      21.374731      32.512907      21549.153      5521.1857      7840.232       7350.3532     -773.81216     -573.63448     -1112.6312    
 150718000   279.46522     -402.677       -309.08046     -402.58884      0              3897.473       31.007999      21.374731      32.702949      21675.11       1435.2086      3967.635       6289.5756      321.50164      1715.4017     -447.02502    
 150720000   275.39824     -403.20924     -310.97478     -403.10064      0              6141.4157      31.007999      21.374731      32.537366      21565.364      6757.5616      6058.3386      5608.3469      711.20573      702.44711     -1190.1024    
 150722000   280.44816     -401.31539     -307.38965     -401.21391      0              7832.7145      31.007999      21.374731      32.548041      21572.439      8104.9399      7849.0333      7544.1703      1687.4083      434.27061      337.94074    
 150724000   280.44354     -397.73378     -303.80958     -397.71245      0              3202.5182      31.007999      21.374731      32.687447      21664.836      3014.9605      2762.7993      3829.7947      1108.3348      1195.6681     -1472.8465    
 150726000   270.75517     -401.67861     -310.99917     -401.59587      0              6396.3514      31.007999      21.374731      32.43035       21494.435      6146.187       7961.4392      5081.4279      399.80073      695.49326      1938.6989    
 150728000   272.9925      -403.05167     -311.62292     -402.99882      0              6529.1825      31.007999      21.374731      32.455443      21511.067      6005.4789      5616.6461      7965.4224      52.531965      1667.92        1419.3068    
 150730000   275.33626     -403.06832     -310.85462     -403.05193      0              7894.1413      31.007999      21.374731      32.509381      21546.816      6640.4398      7927.95        9114.0341      289.08669      987.69515      1051.103     
 150732000   274.87548     -398.40146     -306.34208     -398.43117      0              6863.3779      31.007999      21.374731      32.829591      21759.047      7556.2477      6335.9893      6697.8966      417.56483     -686.81108     -231.36107    
 150734000   272.69425     -402.48012     -311.15126     -402.44766      0              6311.788       31.007999      21.374731      32.899067      21805.095      7469.7389      5145.2712      6320.3537     -415.26886     -1091.882       75.414239    
 150736000   279.80745     -400.83885     -307.12769     -400.80435      0              4765.7298      31.007999      21.374731      32.507555      21545.605      4529.181       4645.0429      5122.9655     -1719.7832      511.8988       965.28703    
 150738000   271.68968     -400.1337      -309.14128     -400.09728      0              8641.1146      31.007999      21.374731      32.490541      21534.329      9162.4374      7163.4194      9597.4869      2067.2681     -328.75924      1469.9634    
 150740000   270.6945      -400.80967     -310.15056     -400.77626      0              9170.2448      31.007999      21.374731      32.367401      21452.714      9255.3877      7678.561       10576.786     -498.93686     -223.07031      496.71957    
 150742000   267.26581     -402.5612      -313.0504      -402.51483      0              4785.3184      31.007999      21.374731      32.494798      21537.15       4012.0848      6269.8946      4073.9756      223.09218      12.220778      247.40627    
 150744000   270.86558     -401.52535     -310.80894     -401.4588       0              6512.3661      31.007999      21.374731      32.567253      21585.173      9189.2094      5780.3974      4567.4914     -389.04747     -1479.8833      417.00724    
 150746000   277.87702     -401.32393     -308.25929     -401.33269      0              7160.4686      31.007999      21.374731      32.708838      21679.013      5559.1954      9154.4869      6767.7237      165.59471     -1487.9672     -1168.7645    
 150748000   280.95273     -402.06774     -307.973       -402.06663      0              6587.5931      31.007999      21.374731      32.646758      21637.867      6020.5133      6890.1699      6852.0961     -1341.3152     -293.50581     -651.51117    
 150750000   283.08949     -405.32073     -310.51037     -405.24844      0              7301.0852      31.007999      21.374731      32.357268      21445.997      4732.432       8141.1323      9029.6912      800.91659      557.89859     -987.95785    
 150752000   277.82091     -403.08579     -310.03995     -403.0453       0              5423.452       31.007999      21.374731      32.523807      21556.377      4919.9689      6253.6921      5096.695       981.31106     -1428.9981      565.30754    
 150754000   279.04173     -399.91529     -306.46058     -399.90456      0              4931.1904      31.007999      21.374731      32.48383       21529.881      4513.6335      4260.5693      6019.3685     -340.91258     -107.46623      575.49799    
 150756000   270.47275     -403.47353     -312.88868     -403.3876       0              8403.9921      31.007999      21.374731      32.332701      21429.715      6382.007       9307.0984      9522.871       1003.3633     -1323.7574     -367.37371    
 150758000   279.84687     -402.71067     -308.9863      -402.64596      0              6861.428       31.007999      21.374731      32.479838      21527.235      5442.6307      7849.8607      7291.7926      914.19276      65.467881      523.95032    
 150760000   277.3881      -404.12592     -311.22503     -404.11164      0              6773.1084      31.007999      21.374731      32.503881      21543.171      6471.7973      6593.918       7253.6098     -1762.4097      1437.1932     -671.76146    
WARNING: Wall time limit reached (../timer.cpp:193)
Loop time of 85803.4 on 4 procs for 7565000 steps with 2592 atoms

Performance: 3.809 ns/day, 6.301 hours/ns, 88.167 timesteps/s
1471.1% CPU use with 4 MPI tasks x no OpenMP threads

MPI task timing breakdown:
Section |  min time  |  avg time  |  max time  |%varavg| %total
---------------------------------------------------------------
Pair    | 21215      | 21278      | 21387      |  46.3 | 24.80
Bond    | 0.73556    | 0.76493    | 0.81034    |   3.5 |  0.00
Neigh   | 648.38     | 652.8      | 657.6      |  12.8 |  0.76
Comm    | 2360.8     | 2465.3     | 2522.8     | 129.0 |  2.87
Output  | 4718.9     | 4718.9     | 4718.9     |   0.0 |  5.50
Modify  | 56664      | 56666      | 56668      |   0.6 | 66.04
Other   |            | 20.92      |            |       |  0.02

Nlocal:            648 ave         661 max         640 min
Histogram: 2 0 0 0 0 1 0 0 0 1
Nghost:         4245.5 ave        4259 max        4231 min
Histogram: 1 0 0 1 0 0 1 0 0 1
Neighs:              0 ave           0 max           0 min
Histogram: 4 0 0 0 0 0 0 0 0 0
FullNghs:       166655 ave      169799 max      162929 min
Histogram: 1 0 0 1 0 0 0 0 1 1

Total # of neighbors = 666620
Ave neighs/atom = 257.18364
Ave special neighs/atom = 0
Neighbor list builds = 151300
Dangerous builds not checked
unfix 3
unfix 1
unfix 2


# Finalize simulation
write_restart	restart.lmp.${pid}
write_restart	restart.lmp.0
System init for write_restart ...
Generated 0 of 1 mixed pair_coeff terms from geometric mixing rule
write_data	data.final.${pid} nocoeff
write_data	data.final.0 nocoeff
System init for write_data ...
Generated 0 of 1 mixed pair_coeff terms from geometric mixing rule
Total wall time: 23:50:16
