LAMMPS (23 Jun 2022)
include procedure.lmp
echo both
include		in.partitions
variable        pid world 0
include		in.temp
variable	temperature equal 275
variable        tempDamp equal 0.100 # this is 0.1 ps
include		in.pressure
variable        pressure equal 6079.5
variable        pressureDamp equal 1.0 #this is 1ps

variable	barostat string	   tri
variable	direction string   z
variable	direction_x_bool equal 0
variable	direction_y_bool equal 0
variable	direction_z_bool equal 1

include		in.seed
variable        seed world 745823

units           metal
atom_style	full
box tilt large
read_restart 	restart.lmp.${pid}
read_restart 	restart.lmp.0
Reading restart file ...
  restart file = 23 Jun 2022, LAMMPS = 23 Jun 2022
  restoring atom style full from restart
  triclinic box = (0 0 -0.82278373) to (31.007999 21.374731 31.783243) with tilt (-9.165637 1.0138386 -10.844043)
WARNING: Triclinic box skew is large (../domain.cpp:224)
  2 by 1 by 2 MPI processor grid
Summary of lammps deepmd module ...
  >>> Info of deepmd-kit:
  installed to:       /u/sigbjobo/software/DEEPMD_FROM_SOURCE/deepmd-kit/install
  source:             v2.1.3
  source branch:       master
  source commit:      5a32c49
  source commit at:   2022-07-01 09:52:58 +0800
  surpport model ver.:1.1 
  build float prec:   double
  build with tf inc:  /u/sigbjobo/software/DEEPMD_FROM_SOURCE/tensorflow/install/include;/u/sigbjobo/software/DEEPMD_FROM_SOURCE/tensorflow/install/include
  build with tf lib:  /u/sigbjobo/software/DEEPMD_FROM_SOURCE/tensorflow/install/lib/libtensorflow_cc.so;/u/sigbjobo/software/DEEPMD_FROM_SOURCE/tensorflow/install/lib/libtensorflow_framework.so
  set tf intra_op_parallelism_threads: 0
  set tf inter_op_parallelism_threads: 0
  >>> Info of lammps module:
  use deepmd-kit at:  /u/sigbjobo/software/DEEPMD_FROM_SOURCE/deepmd-kit/install
  source:             v2.1.3
  source branch:      master
  source commit:      5a32c49
  source commit at:   2022-07-01 09:52:58 +0800
  build float prec:   double
  build with tf inc:  /u/sigbjobo/software/DEEPMD_FROM_SOURCE/tensorflow/install/include;/u/sigbjobo/software/DEEPMD_FROM_SOURCE/tensorflow/install/include
  build with tf lib:  /u/sigbjobo/software/DEEPMD_FROM_SOURCE/tensorflow/install/lib/libtensorflow_cc.so;/u/sigbjobo/software/DEEPMD_FROM_SOURCE/tensorflow/install/lib/libtensorflow_framework.so
  restoring pair style deepmd from restart
  2592 atoms
Finding 1-2 1-3 1-4 neighbors ...
  special bond factors lj:    0        0        0       
  special bond factors coul:  0        0        0       
     0 = max # of 1-2 neighbors
     0 = max # of 1-3 neighbors
     0 = max # of 1-4 neighbors
     1 = max # of special neighbors
  special bonds CPU = 0.000 seconds
  read_restart CPU = 0.078 seconds
include 	in.setup
variable	out_freq equal 2000
variable	out_freq2 equal 2000

timestep        0.0005

neigh_modify    delay 7 every 1

include         in.deepmd
# This is deepMD model

# create groups ###
#group ox type 2
#group hy type 1

mass 2 15.999
mass 1 1.008

pair_style      deepmd ../graph.pb
pair_coeff      * *

bond_style      none
angle_style     none
dihedral_style  none
improper_style  none
neigh_modify exclude none


neighbor        2.0 bin
neigh_modify    every 50 delay 0 check no

thermo          ${out_freq}
thermo          2000
thermo_style 	custom step temp pe etotal epair emol press lx ly lz vol pxx pyy pzz pxy pxz pyz

restart 	${out_freq} restart.lmp.${pid} restart2.lmp.${pid}
restart 	2000 restart.lmp.${pid} restart2.lmp.${pid}
restart 	2000 restart.lmp.0 restart2.lmp.${pid}
restart 	2000 restart.lmp.0 restart2.lmp.0


timer           timeout 23:50:00 every 1000
New timer settings: style=normal  mode=nosync  timeout=23:50:00


# Set number of time steps
variable 	nsteps_wall		equal	 6000000
variable 	nsteps_enhanced_coex    equal	20000000

variable     nsteps_enhanced_coex_upto equal (${nsteps_wall}+${nsteps_enhanced_coex})
variable     nsteps_enhanced_coex_upto equal (6000000+${nsteps_enhanced_coex})
variable     nsteps_enhanced_coex_upto equal (6000000+20000000)


# Set temperature for first step
if "$(step) < 1  " then    "velocity 	all create ${temperature} ${seed} dist gaussian"


# Always run thermo and barostat


######################################
# Run simulation with wall potential #
######################################
if " $(step) < ${nsteps_wall} " then    "fix             3 all plumed plumedfile plumed.equil.dat outfile plumed.equil.out"   "fix             1 all nph ${direction} ${pressure} ${pressure} ${pressureDamp}"   "fix             2 all temp/csvr ${temperature} ${temperature} ${tempDamp} ${seed}"   "run             ${nsteps_wall} upto"
if " $(step) == ${nsteps_wall} " then    "unfix 3"   "unfix 1"   "unfix 2"


############################
# Run enhanced coesistence #
############################
if "$(step) == ${nsteps_wall}" then    "fix             3 all plumed plumedfile plumed.start.dat outfile plumed.out" else    "fix             3 all plumed plumedfile plumed.dat outfile plumed.out"
fix             3 all plumed plumedfile plumed.dat outfile plumed.out

if "$(step) < ${nsteps_enhanced_coex_upto} && $(step) >= ${nsteps_wall} " then    "include         in.dump"    "fix             1 all nph ${direction} ${pressure} ${pressure} ${pressureDamp}"   "fix             2 all temp/csvr ${temperature} ${temperature} ${tempDamp} ${seed}"   "run             ${nsteps_enhanced_coex_upto} upto"    "unfix 3"   "unfix 1"   "unfix 2"
include         in.dump
dump            myDump all atom ${out_freq2} dump.water.${pid}
dump            myDump all atom 2000 dump.water.${pid}
dump            myDump all atom 2000 dump.water.0
dump            myDump2 all dcd ${out_freq2} dump.${pid}.dcd
dump            myDump2 all dcd 2000 dump.${pid}.dcd
dump            myDump2 all dcd 2000 dump.0.dcd
dump_modify     myDump append yes
dump_modify     myDump2 append yes

fix             1 all nph ${direction} ${pressure} ${pressure} ${pressureDamp}
fix             1 all nph z ${pressure} ${pressure} ${pressureDamp}
fix             1 all nph z 6079.5 ${pressure} ${pressureDamp}
fix             1 all nph z 6079.5 6079.5 ${pressureDamp}
fix             1 all nph z 6079.5 6079.5 1
fix             2 all temp/csvr ${temperature} ${temperature} ${tempDamp} ${seed}
fix             2 all temp/csvr 275 ${temperature} ${tempDamp} ${seed}
fix             2 all temp/csvr 275 275 ${tempDamp} ${seed}
fix             2 all temp/csvr 275 275 0.1 ${seed}
fix             2 all temp/csvr 275 275 0.1 745823
run             ${nsteps_enhanced_coex_upto} upto
run             26000000 upto

CITE-CITE-CITE-CITE-CITE-CITE-CITE-CITE-CITE-CITE-CITE-CITE-CITE

Your simulation uses code contributions which should be cited:

- USER-DEEPMD package:

@article{Wang_ComputPhysCommun_2018_v228_p178,
  author = {Wang, Han and Zhang, Linfeng and Han, Jiequn and E, Weinan},
  doi = {10.1016/j.cpc.2018.03.016},
  url = {https://doi.org/10.1016/j.cpc.2018.03.016},
  year = 2018,
  month = {jul},
  publisher = {Elsevier {BV}},
  volume = 228,
  journal = {Comput. Phys. Commun.},
  title = {{DeePMD-kit: A deep learning package for many-body potential energy representation and molecular dynamics}},
  pages = {178--184}
}

CITE-CITE-CITE-CITE-CITE-CITE-CITE-CITE-CITE-CITE-CITE-CITE-CITE

Generated 0 of 1 mixed pair_coeff terms from geometric mixing rule
Neighbor list info ...
  update every 50 steps, delay 0 steps, check no
  max neighbors/atom: 2000, page size: 100000
  master list distance cutoff = 8
  ghost atom cutoff = 8
  binsize = 4, bins = 11 9 9
  1 neighbor lists, perpetual/occasional/extra = 1 0 0
  (1) pair deepmd, perpetual
      attributes: full, newton on
      pair build: full/bin
      stencil: full/bin/3d
      bin: standard
Per MPI rank memory allocation (min/avg/max) = 7.308 | 7.31 | 7.31 Mbytes
   Step          Temp          PotEng         TotEng         E_pair         E_mol          Press            Lx             Ly             Lz           Volume          Pxx            Pyy            Pzz            Pxy            Pxz            Pyz      
  23260000   277.18134     -403.91431     -311.08266     -403.91431      0              5714.8837      31.007999      21.374731      32.606026      21610.871      5093.5263      6158.6999      5892.4249     -6.3382944     -170.1925       654.25739    
  23262000   275.15665     -399.35965     -307.2061      -399.35965      0              9356.7096      31.007999      21.374731      32.367886      21453.035      10788.097      7483.8565      9798.1755      1635.0308      370.60567     -963.01402    
  23264000   273.96668     -403.15365     -311.39864     -403.15365      0              6676.5768      31.007999      21.374731      32.475613      21524.435      6069.3204      6789.9005      7170.5094      235.23507      59.936323      1931.5243    
  23266000   281.59595     -404.33905     -310.0289      -404.33905      0              7506.5709      31.007999      21.374731      32.433288      21496.383      7646.0606      5667.4774      9206.1748      1131.5445      255.84473      1996.2524    
  23268000   273.67998     -401.35743     -309.69844     -401.35743      0              6252.9136      31.007999      21.374731      32.504582      21543.635      5481.8046      6572.0613      6704.875       607.44632      314.90955      447.487      
  23270000   277.46133     -399.45797     -306.53255     -399.45797      0              6111.4262      31.007999      21.374731      32.589123      21599.668      6478.6963      5417.8525      6437.7298      528.05628      303.31299      955.86184    
  23272000   280.37046     -401.93106     -308.03134     -401.93106      0              5985.1827      31.007999      21.374731      32.551882      21574.985      8099.6115      5195.9027      4660.034      -2636.6947      92.138733     -1397.2317    
  23274000   269.94281     -403.20021     -312.79285     -403.20021      0              6878.5576      31.007999      21.374731      32.650393      21640.277      4567.696       6860.9811      9206.9955      1315.0196     -359.12914      594.89004    
  23276000   276.52025     -402.48707     -309.87683     -402.48707      0              7328.5905      31.007999      21.374731      32.77063       21719.969      7170.2531      7196.5285      7618.99        165.51018      463.41243      1368.6517    
  23278000   277.04189     -404.53468     -311.74974     -404.53468      0              6609.4748      31.007999      21.374731      32.779525      21725.864      8322.5989      4966.2305      6539.595      -176.1647      -1956.1686     -1460.5828    
  23280000   271.3314      -402.35605     -311.48362     -402.35605      0              7243.5011      31.007999      21.374731      32.607423      21611.797      5364.0047      6714.318       9652.1805      127.78845      188.59588      728.94009    
  23282000   274.46522     -402.01832     -310.09634     -402.01832      0              5846.0994      31.007999      21.374731      32.642807      21635.249      6666.3745      4902.1033      5969.8204      505.78864      1300.3435      283.5922     
  23284000   272.3259      -397.64906     -306.44356     -397.64906      0              5651.563       31.007999      21.374731      32.762769      21714.758      3953.4482      7580.1079      5421.133       1068.5265     -2972.163      -685.22207    
  23286000   277.23326     -397.47462     -304.62559     -397.47462      0              5849.6043      31.007999      21.374731      32.867161      21783.948      6136.0682      5011.4863      6401.2585      517.93062      749.60075      817.72378    
  23288000   273.16588     -402.39121     -310.9044      -402.39121      0              4327.735       31.007999      21.374731      32.631174      21627.539      3932.8438      5702.071       3348.2902      1044.0482     -647.42339     -267.95916    
  23290000   283.52405     -397.81754     -302.86164     -397.81754      0              7222.7086      31.007999      21.374731      32.867835      21784.395      6831.0798      8706.7479      6130.298      -597.19546      219.0636       1492.6464    
  23292000   277.49396     -401.66803     -308.73168     -401.66803      0              8122.2838      31.007999      21.374731      32.796585      21737.171      8887.3057      7275.9522      8203.5936     -426.81024     -170.47966     -821.05661    
  23294000   269.64565     -401.57396     -311.26612     -401.57396      0              5993.2216      31.007999      21.374731      32.942425      21833.832      6486.9526      5941.733       5550.9792     -515.18992     -976.04149     -1031.2699    
  23296000   277.182       -402.14121     -309.30934     -402.14121      0              6109.9689      31.007999      21.374731      32.886104      21796.503      6335.5605      7105.5062      4888.84        1448.2878     -1138.2511      1927.6206    
  23298000   282.00686     -400.45409     -306.00632     -400.45409      0              5113.5701      31.007999      21.374731      32.64115       21634.15       4287.0673      5488.7707      5564.8722      1737.0056     -513.06179     -304.83819    
  23300000   277.20179     -402.27779     -309.43929     -402.27779      0              6455.395       31.007999      21.374731      32.785889      21730.082      6913.0603      6738.8268      5714.298      -825.72672     -400.81517     -66.434405    
  23302000   279.7806      -402.4353      -308.73313     -402.4353       0              6165.95        31.007999      21.374731      32.77436       21722.44       6071.0656      6573.0395      5853.7447     -333.59065     -1388.5419      1958.7678    
  23304000   268.98597     -401.75766     -311.67075     -401.75766      0              5612.0883      31.007999      21.374731      32.636263      21630.912      7673.1772      3961.1725      5201.9153      399.92781     -271.1594      -734.80565    
  23306000   274.31474     -400.4134      -308.54182     -400.4134       0              8326.942       31.007999      21.374731      32.602754      21608.703      9210.7659      6441.936       9328.1241     -479.1331      -86.056918     -406.04803    
  23308000   277.06809     -403.12851     -310.33479     -403.12851      0              7949.6388      31.007999      21.374731      32.725829      21690.275      9724.2002      7789.2062      6335.5101     -597.05164     -159.12923      901.64263    
  23310000   279.98505     -399.17757     -305.40692     -399.17757      0              5912.7389      31.007999      21.374731      32.922014      21820.304      5905.9268      6734.0247      5098.265      -1569.2404      455.83142     -43.713618    
  23312000   273.15591     -400.81026     -309.32678     -400.81026      0              6334.9653      31.007999      21.374731      32.693027      21668.534      6078.2046      6937.5059      5989.1852      14.860569      247.78792     -2337.1552    
  23314000   277.3553      -398.92987     -306.03996     -398.92987      0              5462.9295      31.007999      21.374731      32.790049      21732.839      6748.3972      3845.9018      5794.4894     -316.60043      374.6324       200.87078    
  23316000   273.79598     -397.0972      -305.39936     -397.0972       0              5207.5031      31.007999      21.374731      32.880466      21792.766      4861.2059      7496.9891      3264.3143      1152.7081      4.1204211     -1017.3659    
  23318000   277.64459     -402.85802     -309.87123     -402.85802      0              4419.0636      31.007999      21.374731      32.71044       21680.076      3690.7316      3292.335       6274.1241      462.21232      774.68008      1218.6912    
  23320000   277.06135     -401.387       -308.59554     -401.387        0              5357.4047      31.007999      21.374731      32.732113      21694.44       5471.9895      2424.1521      8176.0724     -1095.5474     -213.49371      875.74883    
  23322000   276.14258     -398.4587      -305.97495     -398.4587       0              6846.4664      31.007999      21.374731      32.628136      21625.525      8899.2354      5010.0789      6630.0849     -762.90394     -704.73513     -1731.0243    
  23324000   280.87004     -399.50606     -305.43903     -399.50606      0              5301.9775      31.007999      21.374731      32.774625      21722.616      5339.8831      5970.5422      4595.5074     -794.5845      -520.20347     -3587.8678    
  23326000   277.82407     -396.93174     -303.88483     -396.93174      0              5674.5112      31.007999      21.374731      32.767169      21717.675      5559.821       5898.8932      5564.8193     -138.76239      1210.7721      314.17241    
  23328000   269.69767     -399.61866     -309.29339     -399.61866      0              5629.0486      31.007999      21.374731      32.710709      21680.254      4422.7546      7633.3782      4831.0129      1775.7917      759.63956      887.2517     
  23330000   268.55009     -398.38289     -308.44196     -398.38289      0              3907.0064      31.007999      21.374731      32.905582      21809.413      3786.4685      3995.9943      3938.5565     -74.007862      308.73188      297.1084     
  23332000   279.45291     -395.797       -302.20458     -395.797        0              5880.6693      31.007999      21.374731      32.768119      21718.304      6269.5849      5884.7461      5487.6769      922.95408      22.930119      205.07335    
  23334000   279.53891     -400.26342     -306.64219     -400.26342      0              5438.7381      31.007999      21.374731      32.791636      21733.891      5535.3371      6467.6227      4313.2545      565.28908     -624.68734      412.20809    
  23336000   268.33903     -397.84485     -307.97461     -397.84485      0              6724.958       31.007999      21.374731      32.865161      21782.622      9077.3311      5228.6796      5868.8634      1566.3891     -83.658889     -526.71047    
  23338000   282.47753     -397.85202     -303.24661     -397.85202      0              4553.5806      31.007999      21.374731      33.066786      21916.257      2722.6517      4092.2555      6845.8345     -41.460491     -722.49887      545.25281    
  23340000   279.52514     -400.13513     -306.51852     -400.13513      0              5714.8437      31.007999      21.374731      32.821452      21753.653      4985.7651      6067.1027      6091.6634      461.5749       1297.5298      214.3506     
  23342000   266.74576     -398.52548     -309.18885     -398.52548      0              6919.9404      31.007999      21.374731      32.727595      21691.445      6164.3327      6185.7976      8409.6909      743.83813      387.00734     -285.02292    
  23344000   272.88755     -395.10091     -303.70731     -395.10091      0              6558.0801      31.007999      21.374731      32.595862      21604.134      8409.1381      4995.7592      6269.343       67.494785     -519.34597     -455.94314    
  23346000   274.10157     -398.17612     -306.37593     -398.17612      0              6624.6607      31.007999      21.374731      32.561011      21581.036      5670.2339      7669.6269      6534.1213     -1832.2055     -537.99746      490.85854    
  23348000   276.81187     -398.7623      -306.0544      -398.7623       0              6547.8228      31.007999      21.374731      32.795295      21736.316      7265.5704      5628.7978      6749.1001     -1103.2887     -38.725646      790.85563    
  23350000   271.61298     -402.28423     -311.31751     -402.28423      0              4927.3041      31.007999      21.374731      32.821582      21753.739      5338.8534      4410.5132      5032.5458     -781.70946     -126.96976      158.53984    
  23352000   279.84011     -400.16797     -306.44587     -400.16797      0              6711.9931      31.007999      21.374731      32.764036      21715.598      6689.1348      7215.5502      6231.2944      266.21812     -150.1864      -1325.1975    
  23354000   270.53275     -398.5971      -307.99215     -398.5971       0              7643.9459      31.007999      21.374731      32.680087      21659.957      8088.5268      7601.0525      7242.2584     -58.144775      19.689682      281.00285    
  23356000   271.82472     -398.62168     -307.58404     -398.62168      0              6381.8366      31.007999      21.374731      32.893172      21801.187      6620.4174      6539.8998      5985.1927     -996.34671      872.89408     -233.39329    
  23358000   274.18906     -399.51678     -307.68729     -399.51678      0              4491.9652      31.007999      21.374731      32.90078       21806.23       4171.0516      3895.063       5409.7811     -1115.8793      1238.0207     -1514.4793    
  23360000   272.51481     -396.143       -304.87424     -396.143        0              3644.7005      31.007999      21.374731      32.88399       21795.102      4654.593       3133.2924      3146.216       557.21549     -284.20671     -127.7583     
  23362000   278.42218     -401.16395     -307.91674     -401.16395      0              9089.7795      31.007999      21.374731      32.769206      21719.025      9976.0622      8124.7968      9168.4796     -152.93439      1416.5902     -91.364993    
  23364000   273.51275     -400.12219     -308.5192      -400.12219      0              5128.0536      31.007999      21.374731      32.669378      21652.86       5370.2986      4392.0288      5621.8334      1457.6699     -689.42253     -37.075791    
  23366000   273.46851     -398.82378     -307.23561     -398.82378      0              6829.5443      31.007999      21.374731      32.814121      21748.794      6901.2762      7240.4658      6346.891       772.39916      380.4297       53.443071    
  23368000   283.00402     -400.45233     -305.6706      -400.45233      0              5569.9488      31.007999      21.374731      32.915173      21815.77       6760.4772      4605.7353      5343.6339     -1392.8447     -275.10025      438.11476    
  23370000   271.60379     -398.26374     -307.3001      -398.26374      0              5594.3071      31.007999      21.374731      33.009541      21878.315      5954.4216      5309.4462      5519.0536      507.83072      257.26786      901.39296    
  23372000   275.32655     -402.40708     -310.19664     -402.40708      0              5145.5208      31.007999      21.374731      33.037606      21896.917      5664.7325      4452.1533      5319.6765      1057.8904      418.69427      16.030366    
  23374000   273.1058      -398.75889     -307.2922      -398.75889      0              6914.6061      31.007999      21.374731      32.758563      21711.97       7580.8924      6163.0999      6999.8259     -2167.399      -611.36498      274.71082    
  23376000   275.98281     -403.0704      -310.64016     -403.0704       0              5487.2967      31.007999      21.374731      32.608898      21612.774      6861.1062      3171.9934      6428.7903      135.74082      1519.5613     -1268.3389    
  23378000   268.11542     -401.23327     -311.43792     -401.23327      0              5771.0322      31.007999      21.374731      32.90696       21810.326      7728.9478      3789.3907      5794.758      -948.92616     -2195.028      -2006.0636    
  23380000   275.19806     -402.3341      -310.16669     -402.3341       0              3947.2914      31.007999      21.374731      32.922583      21820.681      2489.253       4811.2645      4541.3568      1478.1448      982.85901      389.60287    
  23382000   274.38937     -401.19893     -309.30236     -401.19893      0              3702.9798      31.007999      21.374731      32.953706      21841.309      4177.7536      2606.1545      4325.0311     -589.01222     -239.08059      2005.0733    
  23384000   277.48385     -400.60755     -307.67459     -400.60755      0              6943.4374      31.007999      21.374731      32.73494       21696.314      6550.9221      5488.1212      8791.2689      660.81045     -1402.5253      468.28871    
  23386000   275.45114     -399.78319     -307.53101     -399.78319      0              8794.9443      31.007999      21.374731      32.68906       21665.905      9020.9663      8204.3549      9159.5119     -3217.5655     -265.01571      1771.2106    
  23388000   278.23685     -401.68504     -308.49989     -401.68504      0              7756.5588      31.007999      21.374731      32.657721      21645.134      7834.3811      8339.058       7096.2375     -1575.314      -839.51478      672.1366     
  23390000   275.04007     -402.37161     -310.2571      -402.37161      0              5422.3935      31.007999      21.374731      32.680808      21660.436      5955.7761      2967.6443      7343.7602     -1139.7033     -2.1613081      87.031968    
  23392000   273.75202     -402.14785     -310.46473     -402.14785      0              7454.4434      31.007999      21.374731      32.594083      21602.955      6333.1976      9264.2535      6765.8792     -308.16547      1150.3438      517.3966     
  23394000   275.28869     -401.6664      -309.46863     -401.6664       0              5918.5994      31.007999      21.374731      32.698297      21672.027      7250.1905      4548.7656      5956.8421     -1456.1713     -650.83194      1644.1989    
  23396000   272.25205     -402.54421     -311.36345     -402.54421      0              4740.6632      31.007999      21.374731      32.792397      21734.395      2817.1208      5521.7758      5883.093       330.13988      363.72369     -1076.0806    
  23398000   277.64096     -400.89188     -307.9063      -400.89188      0              6099.5101      31.007999      21.374731      32.568087      21585.725      5217.7393      6264.1665      6816.6243      666.51098      1163.7312      85.614113    
  23400000   275.61326     -398.91098     -306.60451     -398.91098      0              7898.2277      31.007999      21.374731      32.837789      21764.481      7396.6177      9032.6541      7265.4114      885.75955      186.94062     -282.2988     
  23402000   278.0624      -401.78288     -308.65615     -401.78288      0              5612.2128      31.007999      21.374731      32.641485      21634.373      5475.6706      5638.3878      5722.5799     -860.41708      502.67291     -533.41378    
  23404000   276.62875     -401.00182     -308.35524     -401.00182      0              6409.0902      31.007999      21.374731      32.501517      21541.603      7807.4533      4765.3586      6654.4586     -1860.9345      39.457894      1014.3738    
  23406000   272.87328     -401.3448      -309.95598     -401.3448       0              5199.0527      31.007999      21.374731      32.793371      21735.041      5439.7886      5817.2491      4340.1205     -594.4675      -175.00843     -1053.2285    
  23408000   277.63527     -404.39285     -311.40917     -404.39285      0              4658.2646      31.007999      21.374731      32.542514      21568.776      4688.6699      5889.2015      3396.9222     -65.117875     -338.10357     -668.51633    
  23410000   274.53437     -403.9435      -311.99837     -403.9435       0              5811.3283      31.007999      21.374731      32.815522      21749.722      5974.6942      5980.4553      5478.8355      1174.7376      381.16231      510.30377    
  23412000   276.41879     -403.29983     -310.72358     -403.29983      0              7115.8246      31.007999      21.374731      32.667571      21651.662      8749.7324      6220.1692      6377.5724     -961.10597      1140.185       301.37161    
  23414000   276.15673     -400.61575     -308.12726     -400.61575      0              6220.2118      31.007999      21.374731      32.66764       21651.708      5410.7569      5836.3169      7413.5615     -966.08616     -1067.8014      136.0952     
  23416000   271.58181     -404.52482     -313.56853     -404.52482      0              5098.1084      31.007999      21.374731      32.784495      21729.158      5415.1152      6408.2006      3471.0095      123.13576      449.1911       604.494      
  23418000   269.67762     -403.02265     -312.7041      -403.02265      0              5767.3304      31.007999      21.374731      32.961505      21846.478      5670.1662      5233.9611      6397.8639     -215.58354      298.3001      -962.22841    
  23420000   278.31322     -402.47354     -309.26282     -402.47354      0              4911.7089      31.007999      21.374731      32.790448      21733.104      4729.4738      4524.551       5481.1018      912.03708      809.12911      1483.0919    
  23422000   276.21777     -402.73156     -310.22263     -402.73156      0              5616.9565      31.007999      21.374731      32.643799      21635.906      5645.8658      4853.8673      6351.1364     -913.10606      2484.9388      1251.298     
  23424000   279.87935     -402.80319     -309.06795     -402.80319      0              5694.1998      31.007999      21.374731      32.636819      21631.28       4386.2973      7505.8393      5190.4629      81.504457     -931.4646      -2296.402     
  23426000   272.08317     -398.93112     -307.80692     -398.93112      0              7457.4471      31.007999      21.374731      32.631428      21627.707      8367.635       7340.3664      6664.3399     -647.04443     -449.8771      -1511.1096    
  23428000   266.35629     -399.33368     -310.12748     -399.33368      0              7217.2692      31.007999      21.374731      32.561888      21581.616      8492.6782      5858.4982      7300.6313     -1063.083       42.861796      1.1831232    
  23430000   275.90266     -401.2902      -308.8868      -401.2902       0              7322.8658      31.007999      21.374731      32.551626      21574.815      8013.5882      8041.558       5913.4512     -19.550783      126.45944     -2059.0152    
  23432000   273.72767     -401.59137     -309.9164      -401.59137      0              6227.1394      31.007999      21.374731      32.503292      21542.78       7121.5677      7501.3953      4058.4551     -1332.1988      406.12054     -318.76537    
  23434000   269.58131     -402.45368     -312.16739     -402.45368      0              6714.8866      31.007999      21.374731      32.486699      21531.782      7888.0243      7233.7274      5022.9081      428.35494     -1279.1849      245.83175    
  23436000   264.9156      -402.80637     -314.08269     -402.80637      0              5551.8188      31.007999      21.374731      32.572671      21588.764      5514.7677      5494.9832      5645.7056      1401.5529      42.568573     -925.52067    
  23438000   277.85138     -400.69939     -307.64334     -400.69939      0              6257.1244      31.007999      21.374731      32.685315      21663.423      4900.2305      5264.7646      8606.378       1682.3221     -938.72747      124.17443    
  23440000   275.64808     -401.21724     -308.8991      -401.21724      0              5879.5965      31.007999      21.374731      32.540228      21567.261      6598.6704      5147.2272      5892.8918     -328.30838      972.12829      784.6767     
  23442000   269.69057     -398.77772     -308.45483     -398.77772      0              6281.2716      31.007999      21.374731      32.710094      21679.846      5147.2931      5513.4152      8183.1064      223.33964      1672.9145      498.50668    
  23444000   278.75842     -401.01361     -307.65378     -401.01361      0              6933.9417      31.007999      21.374731      32.831285      21760.17       5992.4794      7958.0685      6851.2772      930.94933     -421.53876     -48.805593    
  23446000   278.21443     -399.24734     -306.0697      -399.24734      0              5601.5774      31.007999      21.374731      32.831086      21760.038      7729.0078      6006.5508      3069.1736      609.57908      511.6845      -545.91099    
  23448000   279.48451     -401.55196     -307.94895     -401.55196      0              7478.0177      31.007999      21.374731      32.657477      21644.972      5475.3452      7572.8225      9385.8855     -228.61744     -581.25997      748.11404    
  23450000   278.17587     -399.3583      -306.19358     -399.3583       0              5738.9818      31.007999      21.374731      32.823709      21755.149      6414.7067      6812.249       3989.9896     -953.37163     -1418.7878     -231.15315    
  23452000   275.34311     -401.29077     -309.07478     -401.29077      0              3339.8735      31.007999      21.374731      32.947622      21837.276      2407.8234      4951.0047      2660.7923     -2129.71        126.98394     -922.28786    
  23454000   271.74726     -402.35019     -311.33849     -402.35019      0              6542.9267      31.007999      21.374731      32.838453      21764.92       7359.7039      6697.3996      5571.6766     -580.9023      -636.4719       72.203174    
  23456000   287.63705     -404.07305     -307.73965     -404.07305      0              4299.5384      31.007999      21.374731      32.895814      21802.939      4119.9408      6339.9241      2438.7502     -502.2467      -526.51077     -1367.0169    
  23458000   279.26502     -403.26525     -309.73575     -403.26525      0              5981.7592      31.007999      21.374731      32.826575      21757.048      5501.8206      8435.3836      4008.0735      177.4831       830.40042     -1031.2059    
  23460000   272.24477     -401.18577     -310.00744     -401.18577      0              5183.4308      31.007999      21.374731      32.990461      21865.669      5241.5257      4821.2468      5487.5198      1093.209      -373.62987     -587.15808    
  23462000   279.26611     -403.06195     -309.53209     -403.01123      0              3614.7809      31.007999      21.374731      32.781086      21726.899      3033.8857      6185.2844      1625.1727     -504.43167      80.042516      765.08854    
  23464000   274.63913     -402.69716     -310.71694     -402.69577      0              4533.0276      31.007999      21.374731      32.78745       21731.117      4197.4659      5122.5111      4279.1059     -1913.1091     -520.67622     -992.70912    
  23466000   271.073       -403.82455     -313.03867     -403.79762      0              6709.9777      31.007999      21.374731      32.821968      21753.994      8042.1659      7546.3247      4541.4424     -590.5876       1152.0949      92.444054    
  23468000   273.01164     -400.54851     -309.11335     -400.54126      0              5505.3354      31.007999      21.374731      32.546721      21571.564      4430.1364      6449.2558      5636.6138     -175.53313      1295.0017     -1244.9396    
  23470000   282.66953     -402.92115     -308.25144     -402.9327       0              5773.7956      31.007999      21.374731      32.533085      21562.527      7284.6461      5236.4007      4800.34        1349.6655     -792.57458      1037.0005    
  23472000   271.96702     -402.02103     -310.93573     -402.06085      0              7046.9565      31.007999      21.374731      32.363706      21450.264      7575.4574      5752.0152      7813.3969      2117.7791     -489.7605       1355.6793    
  23474000   279.21241     -401.19412     -307.68224     -401.22394      0              5558.9638      31.007999      21.374731      32.640142      21633.482      4265.3082      8663.9654      3747.6178      975.12394      1924.0888     -335.16293    
  23476000   270.32817     -401.48379     -310.94737     -401.4249       0              6775.8408      31.007999      21.374731      32.43962       21500.579      6925.7611      6575.4664      6826.2949      1020.095       780.09946      427.18171    
  23478000   276.14592     -400.66467     -308.1798      -400.7326       0              7036.5025      31.007999      21.374731      32.63743       21631.685      7934.6197      6298.2858      6876.6021     -3.7445114      1028.3073     -506.36053    
  23480000   269.22949     -399.117       -308.94853     -399.16042      0              4115.7378      31.007999      21.374731      32.474776      21523.88       3125.7157      4825.9767      4395.521      -1239.0926      58.444536     -181.59536    
  23482000   272.75809     -403.28417     -311.93393     -403.25094      0              7241.2996      31.007999      21.374731      32.394712      21470.814      6385.2372      7791.2075      7547.4542     -786.31257      1166.8164      125.1668     
  23484000   276.622       -400.22224     -307.57792     -400.10863      0              7020.9626      31.007999      21.374731      32.446254      21504.976      3131.63        9403.9398      8527.318       927.6282       216.58223     -86.702131    
  23486000   269.98805     -401.54877     -311.12625     -401.45552      0              5149.4595      31.007999      21.374731      32.439007      21500.173      5341.5107      5342.0963      4764.7714      951.94724     -952.45685      627.70581    
  23488000   279.82381     -400.40878     -306.69214     -399.80202      0              6204.652       31.007999      21.374731      32.429292      21493.734      4316.9089      8159.1984      6137.8489      515.96287      171.58498     -403.66129    
  23490000   273.73435     -402.89911     -311.22191     -402.26268      0              6735.1362      31.007999      21.374731      32.508741      21546.392      7366.995       5975.9251      6862.4884      1528.2155      1783.9041      429.57294    
  23492000   273.04028     -403.72059     -312.27584     -403.12405      0              6126.5789      31.007999      21.374731      32.696377      21670.754      6272.4748      6464.9664      5642.2954      426.43555      1638.9458     -241.22961    
  23494000   279.03741     -405.3748      -311.92154     -404.77432      0              4106.1301      31.007999      21.374731      32.609832      21613.393      2933.6922      4968.3982      4416.2999      802.91954      2064.3187      857.48541    
  23496000   274.34824     -406.44567     -314.56286     -405.85584      0              5533.6667      31.007999      21.374731      32.639316      21632.935      2765.3806      7270.0598      6565.5597      1392.15        2082.973      -343.28886    
  23498000   278.61671     -404.62971     -311.31734     -404.07159      0              3021.4059      31.007999      21.374731      32.595578      21603.946      2867.4822      2851.6799      3345.0556      1160.6783      243.25259      2171.4336    
  23500000   276.90813     -404.39332     -311.65318     -403.75342      0              8053.8537      31.007999      21.374731      32.525433      21557.455      8487.6298      6466.5917      9207.3395     -529.3056       560.67227      2558.6882    
  23502000   276.14569     -403.01087     -310.52608     -402.37615      0              4350.0175      31.007999      21.374731      32.634421      21629.691      5961.8873      3681.9847      3406.1804     -974.25733     -14.787623      1306.5308    
  23504000   278.0067      -405.66624     -312.55817     -405.03928      0              6305.8564      31.007999      21.374731      32.547243      21571.91       4829.4483      7571.5002      6516.6206     -465.85378     -500.24032      1530.3321    
  23506000   271.83692     -403.07588     -312.03415     -402.46359      0              5004.1141      31.007999      21.374731      32.751295      21707.154      5118.3458      5635.2459      4258.7507     -1223.3825     -957.61912      2321.8455    
  23508000   272.86571     -404.34973     -312.96344     -403.7453       0              5823.5235      31.007999      21.374731      32.64668       21637.816      6600.5828      5017.7773      5852.2104      482.00077      1530.4052      746.00513    
  23510000   281.85267     -402.07732     -307.68118     -401.45367      0              6730.7525      31.007999      21.374731      32.601414      21607.814      7624.9191      5802.8962      6764.4421     -810.85409      827.61569      975.41052    
  23512000   273.83394     -405.57193     -313.86137     -404.95285      0              5567.5664      31.007999      21.374731      32.412916      21482.88       4825.3075      7972.4488      3904.943       1367.2275      1465.7873      306.67216    
  23514000   276.86543     -402.97948     -310.25364     -402.39446      0              5596.9619      31.007999      21.374731      32.319146      21420.73       5599.3681      5578.7475      5612.7701     -199.25938      762.60038     -134.54222    
  23516000   274.27729     -399.92085     -308.06182     -399.31983      0              7220.6964      31.007999      21.374731      32.402556      21476.014      5746.6612      7291.4997      8623.9284      1453.8178     -966.09568      934.84881    
  23518000   270.52596     -402.96329     -312.36061     -402.39662      0              7724.6764      31.007999      21.374731      32.485795      21531.183      7902.4485      7972.1216      7299.4592      38.799984      350.39981      714.39811    
  23520000   268.79455     -405.61768     -315.59489     -405.04928      0              5927.9941      31.007999      21.374731      32.414717      21484.073      6238.1263      3818.0124      7727.8435      763.98009      449.60451     -342.08813    
  23522000   277.10354     -401.6635      -308.85791     -401.08135      0              7311.7229      31.007999      21.374731      32.519585      21553.579      6326.2048      7636.7562      7972.2078     -579.7428       488.58121     -706.58505    
  23524000   266.65182     -398.83587     -309.5307      -398.23988      0              4325.6335      31.007999      21.374731      32.517481      21552.185      5467.3091      5035.0851      2474.5064     -695.55347      627.71958     -431.41307    
  23526000   273.28141     -405.01844     -313.49293     -404.3977       0              5901.3141      31.007999      21.374731      32.441783      21502.012      4520.5497      6594.7878      6588.6048      568.78365      1825.6809      789.13179    
  23528000   270.58964     -401.86988     -311.24589     -401.31255      0              4852.3188      31.007999      21.374731      32.485614      21531.063      4817.7935      5019.6229      4719.5398     -2542.3888      179.54156      158.49957    
  23530000   268.99211     -401.81847     -311.72951     -401.29431      0              5471.5376      31.007999      21.374731      32.474765      21523.873      5648.5952      5282.9637      5483.054       338.67275      416.71665      456.58121    
  23532000   278.52381     -402.29921     -309.01796     -401.75255      0              7090.9016      31.007999      21.374731      32.567534      21585.359      6506.5502      8796.7111      5969.4435     -165.2408      -587.77476      1410.5583    
  23534000   284.04164     -404.00233     -308.87308     -403.51131      0              5384.633       31.007999      21.374731      32.648743      21639.183      3468.1594      6824.206       5861.5337      1810.1629      397.42222     -250.35011    
  23536000   281.73076     -404.87976     -310.52446     -404.30947      0              5656.0098      31.007999      21.374731      32.570619      21587.404      5414.9612      7304.0732      4248.9951      685.18159     -1112.6694      966.42774    
  23538000   275.13316     -403.42244     -311.27676     -403.04068      0              3158.0265      31.007999      21.374731      32.513428      21549.498      3654.0884      4506.1159      1313.8754      238.66684     -609.92662      138.72223    
  23540000   285.08863     -402.86108     -307.38118     -402.31592      0              5261.6564      31.007999      21.374731      32.542855      21569.002      4532.19        6999.7954      4252.9839     -382.9565       49.162732      182.08911    
  23542000   278.01444     -402.63013     -309.51947     -402.10663      0              6439.3645      31.007999      21.374731      32.270768      21388.666      6236.6883      5103.4119      7977.9934     -1923.5411      908.93884      727.38624    
  23544000   281.38255     -402.48122     -308.24253     -401.87473      0              5882.434       31.007999      21.374731      32.388287      21466.557      4012.3966      6119.6358      7515.2697     -392.79589      1229.7155      65.777999    
  23546000   267.06523     -403.60508     -314.16145     -403.01801      0              5689.1531      31.007999      21.374731      32.45638       21511.687      6273.3318      6320.3499      4473.7775      1508.847      -247.73081      738.49003    
  23548000   271.84805     -406.04052     -314.99506     -405.52391      0              5718.8682      31.007999      21.374731      32.780594      21726.572      7485.1709      4728.7941      4942.6395      1860.6248     -322.92057     -1283.8769    
  23550000   272.78273     -401.4163      -310.05781     -400.87947      0              4373.7509      31.007999      21.374731      32.580242      21593.782      2566.3255      5602.7243      4952.2029      1251.7003     -1056.1226      1218.2882    
  23552000   269.49962     -401.28372     -311.02479     -400.68896      0              6622.7799      31.007999      21.374731      32.533456      21562.773      7057.7578      6123.5778      6687.0042      556.52342      461.99022     -703.1987     
  23554000   280.64902     -405.33858     -311.34557     -404.75474      0              5735.8417      31.007999      21.374731      32.59406       21602.94       7067.3121      5853.2155      4286.9976      281.77177     -193.83274      36.841577    
  23556000   273.94943     -402.9173      -311.16806     -402.40783      0              5161.8565      31.007999      21.374731      32.809676      21745.848      3542.3497      5256.5681      6686.6517      1325.381      -191.53092      933.95515    
  23558000   267.59827     -404.73801     -315.11586     -404.14507      0              6141.9398      31.007999      21.374731      32.710903      21680.382      6363.4882      5524.3164      6538.0149      867.94141     -292.03306     -359.62761    
  23560000   273.48246     -402.73358     -311.14074     -402.10681      0              3732.9901      31.007999      21.374731      32.786636      21730.577      5548.8643      2483.2557      3166.8503     -663.41987      1828.1018     -285.42425    
  23562000   276.87246     -404.98959     -312.2614      -404.38462      0              4156.0446      31.007999      21.374731      32.398469      21473.304      4637.4856      2675.5836      5155.0646      526.57743      823.0134       2175.8125    
  23564000   275.0796      -405.54029     -313.41254     -404.96616      0              5986.6659      31.007999      21.374731      32.497874      21539.189      6724.1045      4751.4565      6484.4368     -960.00462     -284.4276       1206.5434    
  23566000   277.0196      -406.38761     -313.61013     -405.82727      0              6409.8833      31.007999      21.374731      32.489529      21533.658      6084.3078      6183.7382      6961.6039     -1166.1475     -180.6588       755.26334    
  23568000   280.10016     -408.70325     -314.89405     -408.14047      0              6652.1347      31.007999      21.374731      32.486941      21531.943      5739.4805      9165.3626      5051.5609      665.41329     -1091.6101      266.65188    
  23570000   276.91959     -404.471       -311.72702     -403.89348      0              5319.0545      31.007999      21.374731      32.548757      21572.914      5009.6967      5635.5599      5311.9069     -668.62088      2509.1145      839.20897    
  23572000   268.22158     -403.41723     -313.58632     -402.86783      0              7526.2554      31.007999      21.374731      32.622716      21621.933      7994.6269      6687.3811      7896.7583     -182.75678     -1424.2829      1013.0969    
  23574000   280.83762     -405.38409     -311.32791     -404.7485       0              6630.1484      31.007999      21.374731      32.467797      21519.255      4877.8625      9091.4868      5921.0958      1450.3298      950.87482      876.02938    
  23576000   276.15051     -404.33634     -311.84993     -403.71771      0              5186.4213      31.007999      21.374731      32.612087      21614.888      4572.9315      7239.4816      3746.8509     -523.38395      512.68768      532.69831    
  23578000   273.98232     -405.30421     -313.54396     -404.70303      0              5500.965       31.007999      21.374731      32.492334      21535.517      7278.5783      5040.3424      4183.9744     -317.74739     -1474.7415      591.48943    
  23580000   276.90182     -404.83612     -312.09809     -404.31932      0              6382.7228      31.007999      21.374731      32.655563      21643.703      7163.1332      6847.2766      5137.7586     -827.45181     -592.80507     -1654.0287    
  23582000   278.72487     -405.98726     -312.63867     -405.38568      0              4315.2014      31.007999      21.374731      32.481168      21528.117      4981.5224      3466.4492      4497.6325      1743.9549     -95.188771     -455.4142     
  23584000   271.98309     -405.23178     -314.1411      -404.61606      0              7208.6085      31.007999      21.374731      32.432105      21495.598      6521.0281      7879.3598      7225.4377     -1782.2731      1991.2285     -1515.7787    
  23586000   276.04313     -406.0857      -313.63526     -405.55668      0              9009.3047      31.007999      21.374731      32.374127      21457.171      7428.5805      9338.5643      10260.769     -79.661587     -957.87018     -305.31597    
  23588000   274.67211     -405.34223     -313.35095     -404.82715      0              6712.1747      31.007999      21.374731      32.517461      21552.171      6541.1968      6996.8364      6598.4911      224.01181     -1289.325      -2727.832     
  23590000   271.36612     -401.40876     -310.52471     -400.91433      0              6075.8788      31.007999      21.374731      32.485781      21531.174      5870.2316      5187.8625      7169.5422      220.957        886.22469      199.59269    
  23592000   285.16268     -404.35524     -308.85054     -403.74584      0              5836.0641      31.007999      21.374731      32.388116      21466.443      4404.9045      5540.9082      7562.3795     -1432.0805      893.6471       146.94603    
  23594000   276.38727     -403.32193     -310.75623     -402.73859      0              7848.2938      31.007999      21.374731      32.390903      21468.29       8580.7623      6584.0765      8380.0426     -994.54143      760.08527      817.19119    
  23596000   277.30826     -403.62319     -310.74904     -403.08552      0              6227.3123      31.007999      21.374731      32.298236      21406.872      6468.2195      6102.9854      6110.7322      155.7156       223.50109      279.66371    
  23598000   272.2044      -406.86287     -315.69807     -406.22296      0              7567.8619      31.007999      21.374731      32.321398      21422.223      6893.4985      7892.8849      7917.2022      439.19254      824.1307      -1225.6265    
  23600000   274.94262     -402.69449     -310.61263     -402.12672      0              5806.2926      31.007999      21.374731      32.309776      21414.52       6421.1725      6589.5172      4408.1881      315.74901     -626.09402     -1602.3928    
  23602000   277.97015     -406.08366     -312.98783     -405.44845      0              6677.1818      31.007999      21.374731      32.438533      21499.859      8397.7112      5997.3156      5636.5187     -573.86863     -668.92481     -599.21625    
  23604000   262.35094     -403.34271     -315.47796     -402.70684      0              9115           31.007999      21.374731      32.348686      21440.309      6585.127       9577.7947      11182.078      1673.8208     -2210.6338     -1589.2523    
  23606000   273.28146     -407.06165     -315.53613     -406.43585      0              5402.8065      31.007999      21.374731      32.445401      21504.411      6136.5894      5640.2653      4431.5648     -836.36974      688.51524     -966.27966    
  23608000   267.8001      -406.57543     -316.88569     -405.96378      0              6827.217       31.007999      21.374731      32.638453      21632.363      7469.0975      6364.2118      6648.3417     -614.64494      1003.7858      601.96123    
  23610000   276.16395     -405.53404     -313.04314     -404.92317      0              4503.0369      31.007999      21.374731      32.670045      21653.302      5297.0485      4767.2074      3444.8549      841.39011     -1591.6824      36.425517    
  23612000   274.25009     -404.24506     -312.39513     -403.6675       0              8084.5301      31.007999      21.374731      32.524712      21556.977      9327.4226      9787.3484      5138.8192     -62.603726      1416.2194     -1490.6038    
  23614000   271.14097     -402.4791      -311.67046     -401.90874      0              7359.2806      31.007999      21.374731      32.537136      21565.211      8618.0653      5241.4861      8218.2904      548.37937      1271.5554      670.6586     
  23616000   276.79877     -404.59179     -311.88827     -403.9996       0              8879.2231      31.007999      21.374731      32.298839      21407.272      7805.402       9891.5963      8940.671      -2671.7809      1739.1736      1051.6102    
  23618000   272.6006      -404.64504     -313.34754     -404.07682      0              7806.3533      31.007999      21.374731      32.268147      21386.929      5950.2424      8186.2303      9282.5872     -522.03989      1845.6703     -1923.8859    
  23620000   274.79289     -403.59971     -311.56799     -403.04469      0              7000.1859      31.007999      21.374731      32.421416      21488.514      7237.1074      7979.2967      5784.1535      451.01451      1542.1694     -976.77636    
  23622000   268.82428     -403.84719     -313.81443     -403.35488      0              4925.6624      31.007999      21.374731      32.819022      21752.042      4763.1807      5661.5789      4352.2275      1641.9719     -218.95113      743.98655    
  23624000   279.61462     -402.68534     -309.03875     -402.13704      0              4542.1327      31.007999      21.374731      32.541206      21567.909      5049.8568      4405.2721      4171.2693      3896.5946      739.74336      1241.1601    
  23626000   280.20342     -402.22416     -308.38038     -401.72418      0              5667.8635      31.007999      21.374731      32.619227      21619.62       6778.4546      4959.8033      5265.3326     -2010.4555     -420.13919      291.40141    
  23628000   283.52338     -405.22042     -310.26474     -404.67477      0              6318.8227      31.007999      21.374731      32.65268       21641.792      6916.935       7225.6856      4813.8474      280.49577      180.10197      405.3081     
  23630000   277.26516     -403.28948     -310.42977     -402.80099      0              4947.2405      31.007999      21.374731      32.600826      21607.424      6004.5123      3841.778       4995.4311     -233.67909      713.93575      1563.7783    
  23632000   284.0306      -405.57102     -310.44546     -405.08764      0              7204.3643      31.007999      21.374731      32.58715       21598.36       9085.8009      7385.1176      5142.1742     -31.633758      185.32921     -135.05664    
  23634000   271.45799     -402.73766     -311.82284     -402.26047      0              6201.929       31.007999      21.374731      32.670373      21653.519      6413.2386      5720.6181      6471.9304      666.73732     -41.825602      536.47208    
  23636000   283.92448     -404.96879     -309.87878     -404.46042      0              6380.0914      31.007999      21.374731      32.677787      21658.433      7506.9183      6700.079       4933.2769     -939.09812      268.61116     -748.80869    
  23638000   277.2733      -406.15252     -313.29008     -405.66341      0              5495.5877      31.007999      21.374731      32.476571      21525.07       4426.4637      5573.2647      6487.0349     -491.85108      1857.267      -2368.1299    
  23640000   266.8486      -405.99091     -316.61983     -405.42566      0              6698.9286      31.007999      21.374731      32.568945      21586.294      5363.5463      6742.5273      7990.7122     -404.46238     -1181.4901     -132.77998    
  23642000   286.58974     -407.99679     -312.01415     -407.49398      0              6318.247       31.007999      21.374731      32.708992      21679.116      4704.5311      6382.063       7868.1468     -150.20844     -287.13955      360.9428     
  23644000   274.04001     -405.71977     -313.9402      -405.25437      0              6378.9875      31.007999      21.374731      32.905432      21809.313      6964.1627      5323.9637      6848.8362     -687.06974     -555.66071      1353.0138    
  23646000   275.52603     -404.39222     -312.11496     -403.85882      0              4064.308       31.007999      21.374731      32.734807      21696.226      4487.6303      4527.6475      3177.6462      1615.8007      437.97558      235.07383    
  23648000   273.35549     -406.3839      -314.83358     -405.76335      0              3754.2049      31.007999      21.374731      32.721227      21687.225      3724.0841      3510.2235      4028.3071     -1689.1087     -654.95385     -372.63987    
  23650000   263.18635     -406.26022     -318.11568     -405.72579      0              4260.1665      31.007999      21.374731      32.960262      21845.654      5808.4037      4337.9178      2634.1781      1361.234      -1678.0802      95.462749    
  23652000   271.52028     -404.90941     -313.97373     -404.42655      0              5190.526       31.007999      21.374731      32.742619      21701.403      3331.6124      6748.8751      5491.0907     -1289.7695      459.96501     -1550.2616    
  23654000   268.65007     -403.55342     -313.57901     -402.93657      0              10310.682      31.007999      21.374731      32.595735      21604.05       10586.709      10350.638      9994.6986     -1141.576       958.70428     -583.74694    
  23656000   270.1368      -404.77539     -314.30306     -404.18406      0              6973.0992      31.007999      21.374731      32.564373      21583.264      5710.771       6783.1599      8425.3666     -388.00563      914.06965      585.55435    
  23658000   278.76942     -405.02303     -311.65952     -404.54154      0              6248.853       31.007999      21.374731      32.520447      21554.15       5985.8722      7101.1449      5659.5421     -403.98303      768.18491     -360.62687    
  23660000   268.0813      -406.52296     -316.73904     -405.99399      0              6508.4071      31.007999      21.374731      32.627319      21624.984      6742.3536      6738.063       6044.8047      352.73974     -1511.6718     -708.35767    
  23662000   272.88624     -404.99264     -313.59948     -404.4076       0              7086.6287      31.007999      21.374731      32.642439      21635.005      7388.4594      6358.8139      7512.6127     -2840.869       879.4078       478.31714    
  23664000   272.61844     -409.00159     -317.69812     -408.40481      0              5376.9278      31.007999      21.374731      32.698315      21672.039      5492.1534      5964.6257      4674.0044     -59.125325      2106.8481     -1330.5099    
  23666000   276.48266     -403.17605     -310.5784      -402.69674      0              6283.4806      31.007999      21.374731      32.601827      21608.088      7047.073       5991.0211      5812.3476      962.2013       699.41968     -1808.9224    
  23668000   284.31517     -405.9535      -310.73264     -405.46708      0              5449.1641      31.007999      21.374731      32.565001      21583.68       4636.2954      5439.0314      6272.1655     -629.42565      1147.3597     -102.71669    
  23670000   275.5739      -404.59249     -312.2992      -404.03115      0              8717.9844      31.007999      21.374731      32.625298      21623.644      8554.5778      8557.7213      9041.6541     -262.26265      1213.8355     -1675.6475    
  23672000   276.18034     -406.02091     -313.52452     -405.46197      0              5709.1507      31.007999      21.374731      32.670929      21653.888      5699.1812      5345.3471      6082.9239      1376.2465      925.18966     -207.79479    
  23674000   274.32939     -407.55446     -315.67797     -407.03498      0              6430.843       31.007999      21.374731      32.759201      21712.393      6007.1255      6809.2677      6476.1358      1140.3611      172.25722      2313.8583    
  23676000   273.11967     -404.53708     -313.06574     -404.07782      0              5093.027       31.007999      21.374731      32.925655      21822.717      6220.0792      4490.3447      4568.6572      1187.4841      324.62865      40.846474    
  23678000   271.20216     -405.01247     -314.18333     -404.4645       0              4643.4752      31.007999      21.374731      32.741928      21700.945      4772.1317      5945.384       3212.9098      1072.425       60.015237     -102.1576     
  23680000   272.31427     -405.02276     -313.82116     -404.5105       0              6762.1971      31.007999      21.374731      32.651395      21640.941      8766.5356      6684.2974      4835.7582     -125.91696     -615.5792      -1571.3515    
  23682000   276.8242      -403.54968     -310.83764     -402.98608      0              7302.5674      31.007999      21.374731      32.495548      21537.647      7754.7046      5124.2843      9028.7133      1472.7061     -1505.3467     -1039.7893    
  23684000   274.8956      -407.14574     -315.07962     -406.67594      0              4732.0389      31.007999      21.374731      32.570983      21587.645      4705.8239      4986.7025      4503.5904      411.44345      1180.8701      88.967075    
  23686000   275.2428      -403.26664     -311.08424     -402.80127      0              7138.5547      31.007999      21.374731      32.603223      21609.013      7804.061       6432.936       7178.6671      20.07579       1963.6374     -1.9112258    
  23688000   278.56357     -405.36676     -312.07219     -404.91197      0              5784.4289      31.007999      21.374731      32.638385      21632.318      9074.1429      5319.3473      2959.7966     -476.13988     -276.98961      1220.2883    
  23690000   277.64958     -405.68957     -312.70111     -405.19255      0              5432.137       31.007999      21.374731      32.858792      21778.401      8324.0597      4869.3144      3103.037       37.104886     -695.88149      412.43517    
  23692000   279.30053     -403.20022     -309.65883     -402.70324      0              3943.8519      31.007999      21.374731      32.745118      21703.059      6351.509       3073.4634      2406.5832      160.54294     -1733.6535      644.9574     
  23694000   279.32061     -404.58082     -311.03271     -404.13553      0              6373.2184      31.007999      21.374731      32.725713      21690.198      7202.1261      6481.6289      5435.9001     -84.437807      79.670906     -1264.3238    
  23696000   269.37722     -403.12116     -312.90322     -402.63165      0              5991.5589      31.007999      21.374731      32.436821      21498.724      6684.9901      7024.2879      4265.3987      463.95722     -197.3152      -480.64033    
  23698000   275.87725     -405.49476     -313.09988     -405.05479      0              6428.0536      31.007999      21.374731      32.64225       21634.88       7458.5         6359.4168      5466.244      -795.33279     -87.962476     -363.698      
  23700000   275.70073     -404.98241     -312.64664     -404.55716      0              4225.5767      31.007999      21.374731      32.447196      21505.6        3023.7824      4780.3742      4872.5734     -69.705272     -513.1911      -1925.491     
  23702000   276.79781     -404.20831     -311.50511     -403.69972      0              7694.5477      31.007999      21.374731      32.286883      21399.347      8324.7994      7439.2747      7319.569       382.5445       1233.4456     -724.20454    
  23704000   276.09081     -404.68462     -312.2182      -404.2479       0              6422.3575      31.007999      21.374731      32.429344      21493.768      6621.9496      6382.5896      6262.5334      1253.7479     -1031.8931      909.10439    
  23706000   276.26989     -403.14434     -310.61795     -402.68934      0              6019.6636      31.007999      21.374731      32.529462      21560.125      6016.9985      5308.6818      6733.3106     -89.996957     -29.395234      15.299105    
  23708000   271.7841      -403.87807     -312.85403     -403.283        0              3232.1952      31.007999      21.374731      32.557246      21578.54       1838.4055      2848.1202      5010.0599     -366.42229     -3.6494371      828.53326    
  23710000   276.36926     -402.622       -310.06233     -402.19244      0              6595.975       31.007999      21.374731      32.702259      21674.653      5560.2944      7608.9626      6618.668      -115.21108      357.03237     -83.926549    
  23712000   273.29063     -403.67671     -312.14811     -403.19752      0              5035.4072      31.007999      21.374731      32.822806      21754.55       4332.4278      6175.3514      4598.4425      837.96442      1319.9439     -187.31999    
  23714000   283.17473     -403.28236     -308.44345     -402.80755      0              4528.2708      31.007999      21.374731      32.656659      21644.43       4640.2574      5883.1089      3061.4462      1349.8616      292.76725      510.78498    
  23716000   277.77831     -405.35079     -312.31921     -404.79458      0              6730.0516      31.007999      21.374731      32.493208      21536.096      5647.5391      7835.8675      6706.7482     -67.263926     -615.69517     -21.523758    
  23718000   275.91235     -406.7882      -314.38155     -406.248        0              8024.356       31.007999      21.374731      32.445845      21504.705      6677.8671      7724.7832      9670.4176     -596.61861      975.08324      2489.4778    
  23720000   281.58673     -406.78947     -312.4824      -406.15995      0              4872.1235      31.007999      21.374731      32.530594      21560.876      5339.8285      4577.6256      4698.9165      946.57191     -812.01481     -186.95041    
  23722000   276.92242     -404.1659      -311.42097     -403.55087      0              6309.0486      31.007999      21.374731      32.538017      21565.796      6118.9855      5016.9579      7791.2023      1073.2234     -75.679479      1169.9386    
  23724000   275.37555     -403.09551     -310.86865     -402.50783      0              5072.5271      31.007999      21.374731      32.604676      21609.976      4340.167       6872.0921      4005.3221     -487.68952      1049.0062     -443.65487    
  23726000   276.53057     -405.90498     -313.29128     -405.45041      0              6362.7702      31.007999      21.374731      32.629399      21626.363      5242.2123      6023.6781      7822.4202      1548.7458     -598.09089     -508.80887    
  23728000   278.76946     -404.67996     -311.31643     -404.22011      0              4779.4387      31.007999      21.374731      32.749188      21705.757      3209.7157      6016.002       5112.5984     -56.234681     -86.71225      -445.38616    
  23730000   274.38552     -404.31481     -312.41953     -403.8626       0              6834.5071      31.007999      21.374731      32.584602      21596.671      7272.34        7388.2746      5842.9067      1122.1719     -633.9221      -1381.1171    
  23732000   280.40008     -403.9095      -309.99985     -403.45582      0              7615.2117      31.007999      21.374731      32.722919      21688.346      7044.5358      8354.6254      7446.4738      673.82086     -11.778727     -486.86309    
  23734000   268.48784     -402.78383     -312.86375     -402.26387      0              5302.5687      31.007999      21.374731      32.537056      21565.159      3782.6404      6880.3053      5244.7603      268.5617      -841.10007     -969.35433    
  23736000   280.03007     -404.01038     -310.22466     -403.56932      0              3123.348       31.007999      21.374731      32.621647      21621.224      4906.271       2149.6353      2314.1377     -1249.7889     -14.431689     -1815.5595    
  23738000   275.09194     -401.25501     -309.12313     -400.8383       0              5147.7205      31.007999      21.374731      32.659918      21646.59       6262.0694      5327.6668      3853.4253      620.53373     -561.52128      656.96089    
  23740000   274.64334     -404.00572     -312.02408     -403.58754      0              5731.2427      31.007999      21.374731      32.450435      21507.747      5857.3256      3507.3603      7829.0421     -288.56009     -2032.8417     -142.37131    
  23742000   267.71528     -405.96124     -316.2999      -405.52031      0              6698.2889      31.007999      21.374731      32.594823      21603.445      3517.2512      8082.6783      8494.9373      779.31705      1203.7446      1269.4905    
  23744000   281.67299     -407.01335     -312.67739     -406.58684      0              6160.2807      31.007999      21.374731      32.54711       21571.822      5400.1595      6205.7326      6874.95       -279.03375      80.922284     -1564.3404    
  23746000   266.46137     -407.03796     -317.79657     -406.60579      0              5879.6297      31.007999      21.374731      32.471495      21521.705      8087.8564      5141.7429      4409.2898      112.98998      419.39909     -299.50604    
  23748000   282.12592     -406.57471     -312.08707     -406.118        0              7614.1709      31.007999      21.374731      32.562042      21581.719      7992.7257      4934.6337      9915.1534     -53.962695      2148.8163      680.86108    
  23750000   282.92361     -404.74539     -309.99058     -404.34101      0              6962.9937      31.007999      21.374731      32.662075      21648.02       6125.3668      8306.7031      6456.9112     -221.05089      2830.1839      46.358993    
  23752000   272.35619     -401.86734     -310.6517      -401.49971      0              5278.1262      31.007999      21.374731      32.728185      21691.836      5316.9267      3834.7854      6682.6665     -650.10141     -1302.5785     -2502.5591    
  23754000   278.68239     -402.06342     -308.72905     -401.66505      0              7828.1541      31.007999      21.374731      32.571494      21587.984      8233.4453      6773.2358      8477.7811     -1510.8703     -683.46203     -2385.0102    
  23756000   269.3101      -400.47148     -310.27602     -400.03895      0              8247.1693      31.007999      21.374731      32.536189      21564.584      6702.8003      9551.076       8487.6316     -137.47899     -1033.7993     -901.04316    
  23758000   275.04148     -405.13623     -313.02126     -404.75145      0              4787.1686      31.007999      21.374731      32.612749      21615.327      4418.1794      5768.2796      4175.0469     -771.53516     -28.383418     -790.30827    
  23760000   268.02959     -399.08005     -309.31344     -398.715        0              5793.4385      31.007999      21.374731      32.602066      21608.246      3412.6433      5820.3658      8147.3062     -1308.3453      1198.682       24.042958    
  23762000   275.57138     -403.06083     -310.76838     -402.65295      0              6385.183       31.007999      21.374731      32.494889      21537.211      6862.8159      4232.2428      8060.4902     -171.61964      229.03246      76.630943    
  23764000   267.02513     -403.92793     -314.49773     -403.53856      0              6543.1268      31.007999      21.374731      32.679254      21659.406      7038.0814      6974.7073      5616.5916     -916.56218      465.70968     -785.81472    
  23766000   272.78796     -402.23744     -310.8772      -401.85967      0              6177.5949      31.007999      21.374731      32.571427      21587.939      6030.1342      6268.4248      6234.2258      1016.0803     -500.54765      1238.5322    
  23768000   287.02403     -403.51482     -307.38673     -403.09371      0              8496.8286      31.007999      21.374731      32.587765      21598.768      8261.293       7922.5623      9306.6303     -357.44851     -1620.7376     -917.23154    
  23770000   269.95256     -400.80858     -310.39795     -400.424        0              6110.2471      31.007999      21.374731      32.470314      21520.923      5824.1409      4134.3958      8372.2045      854.96801     -648.0489       578.49093    
  23772000   277.68503     -402.5363      -309.53597     -402.12993      0              5699.3499      31.007999      21.374731      32.509781      21547.081      5337.62        5640.6317      6119.798       482.02731     -195.36259     -1690.4733    
  23774000   276.7539      -398.65096     -305.96247     -398.23516      0              6259.942       31.007999      21.374731      32.489196      21533.438      7124.721       5440.5117      6214.5933      369.44143     -267.90487      1288.9593    
  23776000   276.10652     -403.49868     -311.027       -403.13256      0              7332.6056      31.007999      21.374731      32.470592      21521.107      6336.1151      6972.3858      8689.3157     -170.29836      513.19879     -395.32121    
  23778000   270.25103     -402.91463     -312.40403     -402.58718      0              5727.5582      31.007999      21.374731      32.596139      21604.318      6843.883       5231.199       5107.5926     -382.77423     -662.71555      658.60431    
  23780000   281.34056     -402.98278     -308.75815     -402.55274      0              5698.0331      31.007999      21.374731      32.68467       21662.995      3073.5121      7151.4092      6869.1782      502.69287      1890.7817      398.44904    
  23782000   273.79111     -403.82898     -312.13277     -403.48213      0              3673.7079      31.007999      21.374731      32.691911      21667.795      2910.4487      4520.7505      3589.9246      274.12428     -1095.5701      234.62801    
  23784000   276.0274      -403.5055      -311.06032     -403.09792      0              7122.669       31.007999      21.374731      32.64769       21638.485      8536.8757      7296.649       5534.4823     -577.7214       1264.2234     -895.79358    
  23786000   270.95844     -403.92135     -313.17383     -403.5493       0              5689.9423      31.007999      21.374731      32.739939      21699.627      4095.5576      4895.5768      8078.6925      615.72554     -504.52648      1250.2426    
  23788000   275.82524     -403.3035      -310.92603     -402.90826      0              7187.0642      31.007999      21.374731      32.907199      21810.485      6035.3         6816.7166      8709.1759      169.2877      -294.92862      2257.4507    
  23790000   271.83794     -402.20776     -311.16569     -401.70521      0              5682.3883      31.007999      21.374731      32.658471      21645.631      4442.981       5096.9635      7507.2203      2176.5478      584.28426      623.02781    
  23792000   285.02836     -402.54348     -307.08376     -401.9469       0              5367.2467      31.007999      21.374731      32.742253      21701.161      5137.9631      6897.1864      4066.5906     -1132.4802     -1695.3057     -196.7754     
  23794000   284.65928     -404.39836     -309.06225     -403.90304      0              5452.2656      31.007999      21.374731      32.687138      21664.631      5358.9927      5566.0379      5431.7663     -669.97201     -123.50665     -1077.9975    
  23796000   267.57399     -404.36571     -314.7517      -403.83467      0              4953.1686      31.007999      21.374731      32.754543      21709.306      5555.5426      5104.1291      4199.8341     -879.75152     -200.32121     -1654.1282    
  23798000   275.46524     -402.1945      -309.9376      -401.66091      0              7451.101       31.007999      21.374731      32.60015       21606.977      7429.2349      6540.3454      8383.7227      1188.0342     -1703.8051      711.60373    
  23800000   273.95652     -405.27027     -313.51866     -404.67146      0              4451.6475      31.007999      21.374731      32.838441      21764.913      4010.1086      5221.4169      4123.4169      356.62645      33.883676      33.165371    
  23802000   273.71529     -407.46645     -315.79563     -406.85705      0              3892.6182      31.007999      21.374731      32.86391       21781.794      4769.8155      4135.8211      2772.218       544.60918     -326.32207     -849.19777    
  23804000   269.57014     -403.97595     -313.6934      -403.40853      0              4346.0523      31.007999      21.374731      32.73185       21694.266      3810.6815      3790.5781      5436.8974     -504.55537     -680.923        1205.7646    
  23806000   270.71279     -402.06795     -311.40271     -401.59307      0              4790.3433      31.007999      21.374731      32.89573       21802.883      4667.4279      6038.6906      3664.9115      2050.0511      873.50456     -682.58896    
  23808000   272.66942     -402.53795     -311.21741     -402.02348      0              5097.8271      31.007999      21.374731      32.648824      21639.237      6803.3546      3926.1062      4564.0206     -303.962       -1097.911      -370.92466    
  23810000   275.28414     -406.08859     -313.89234     -405.60645      0              5650.21        31.007999      21.374731      32.607782      21612.035      5386.0377      5579.4357      5985.1567      256.11578      750.83121      1435.5612    
  23812000   271.51111     -407.29651     -316.3639      -406.72298      0              6678.0342      31.007999      21.374731      32.690162      21666.635      7490.4709      6396.1593      6147.4724      1305.6528     -446.0073      -864.55719    
  23814000   271.98082     -402.02889     -310.93897     -401.54166      0              7304.9638      31.007999      21.374731      32.451574      21508.502      7405.7388      7175.2446      7333.908       1188.9538      577.79178     -405.81886    
  23816000   269.02607     -405.49923     -315.3989      -404.89014      0              5312.1665      31.007999      21.374731      32.552327      21575.28       3784.4146      6584.3994      5567.6855      1509.8941     -1112.3958     -384.69686    
  23818000   274.37875     -405.72276     -313.82974     -405.12568      0              7681.4106      31.007999      21.374731      32.371812      21455.637      6713.7884      7397.7509      8932.6924      653.01186      183.81404     -527.75933    
  23820000   281.14796     -406.3585      -312.19839     -405.77728      0              6200.4281      31.007999      21.374731      32.606383      21611.107      6058.1742      5241.9486      7301.1616     -525.37642     -549.96553      165.22155    
  23822000   279.95981     -407.41686     -313.65468     -406.8527       0              5261.402       31.007999      21.374731      32.65083       21640.566      2302.1448      6020.7303      7461.3309      1224.0496      370.57741     -812.21791    
  23824000   266.8871      -405.35745     -315.97348     -404.82799      0              6740.4111      31.007999      21.374731      32.720156      21686.515      8680.2177      4980.6614      6560.3543     -1769.3111      1384.5487     -969.33453    
  23826000   277.12175     -402.30827     -309.49659     -401.92203      0              7937.6939      31.007999      21.374731      32.609603      21613.241      7787.0296      7219.3226      8806.7294      968.54087      2584.7909     -321.10632    
  23828000   275.32467     -405.58456     -313.37474     -405.10117      0              6311.0809      31.007999      21.374731      32.565282      21583.867      4908.4851      7467.8575      6556.9         279.41259     -62.745364      958.57768    
[...]
  24792000   274.17465     -399.78875     -307.96408     -399.78211      0              4374.701       31.007999      21.374731      32.692437      21668.143      4293.1885      4676.7789      4154.1355      540.3038      -945.15946     -682.50882    
  24794000   273.59916     -401.05721     -309.42529     -401.07862      0              6169.9691      31.007999      21.374731      32.632246      21628.249      5278.0238      6567.6373      6664.2461     -758.56451      976.89082     -1395.0325    
  24796000   279.82924     -401.32576     -307.6073      -401.32724      0              7923.2768      31.007999      21.374731      32.829979      21759.304      9237.3606      7017.0081      7515.4618     -1092.3908     -1718.0491      726.26992    
  24798000   275.4722      -402.78342     -310.52419     -402.75594      0              6636.3533      31.007999      21.374731      32.752622      21708.033      7541.9093      6696.9452      5670.2055      479.92776      613.40363      376.82316    
  24800000   284.39686     -402.29058     -307.04236     -402.32691      0              3203.9804      31.007999      21.374731      32.81036       21746.301      3516.281       4175.8754      1919.7847      2095.4689      887.48778     -1444.2967    
  24802000   275.75413     -401.57043     -309.21678     -401.58993      0              5344.583       31.007999      21.374731      32.769318      21719.099      3948.9657      5873.7076      6211.0758      1782.3669     -96.174895      654.7188     
  24804000   279.67905     -404.36648     -310.69832     -404.3221       0              6229.2424      31.007999      21.374731      32.634296      21629.608      6503.2321      5812.0652      6372.4299      411.54676      2731.8735      956.60804    
  24806000   280.16115     -400.91979     -307.09017     -400.9188       0              4481.2319      31.007999      21.374731      32.738761      21698.846      4798.1821      3453.2709      5192.2426      487.87196      925.50355      1283.113     
  24808000   265.59799     -399.87574     -310.92351     -399.94632      0              5432.2993      31.007999      21.374731      32.692686      21668.308      7221.0334      4253.288       4822.5767      71.666796      958.52307      839.36021    
  24810000   269.36395     -400.74601     -310.53251     -400.70546      0              6381.3416      31.007999      21.374731      32.719055      21685.785      6446.9079      6556.6309      6140.486      -1093.5771      312.83145     -1053.9094    
  24812000   274.28845     -399.14698     -307.2842      -399.17569      0              4806.204       31.007999      21.374731      32.810472      21746.375      3268.071       4572.9156      6577.6256      288.43965      840.78524      2447.4409    
  24814000   285.91005     -400.85621     -305.10121     -400.87164      0              7486.9426      31.007999      21.374731      32.810671      21746.507      6094.0603      7378.0466      8988.7207      110.65563      226.42812      707.89493    
  24816000   279.67621     -398.81696     -305.14975     -398.81967      0              6335.6764      31.007999      21.374731      32.742034      21701.015      7428.2841      7677.4551      3901.29       -920.23927     -1655.5025     -398.83935    
  24818000   266.67032     -402.17254     -312.86117     -402.1798       0              5524.7216      31.007999      21.374731      32.616758      21617.984      5913.4803      3613.6465      7047.0381      905.77849      321.93094      54.30069     
  24820000   269.33168     -402.25449     -312.0518      -402.26937      0              3506.5881      31.007999      21.374731      32.773033      21721.561      3972.5646      3755.0011      2792.1985     -1285.2832      750.38362     -1219.847     
  24822000   277.52157     -403.66208     -310.71649     -403.68107      0              6044.0334      31.007999      21.374731      32.685028      21663.233      6520.0342      6790.5961      4821.47       -1765.5374     -407.35648      439.67307    
  24824000   271.03789     -400.37111     -309.59699     -400.403        0              7424.7388      31.007999      21.374731      32.59678       21604.743      7809.0485      8953.5336      5511.6344      237.46107      178.96539      381.71489    
  24826000   272.34517     -402.84472     -311.63277     -402.87161      0              7393.9014      31.007999      21.374731      32.380713      21461.536      8408.0796      6637.758       7135.8667      1394.7119     -1651.61        199.76212    
  24828000   282.78777     -400.9076      -306.19829     -400.91084      0              5065.6613      31.007999      21.374731      32.584413      21596.546      5168.3573      3807.6907      6220.9358     -929.82294      642.48098      1060.8361    
  24830000   279.06144     -400.73948     -307.27816     -400.79966      0              6388.077       31.007999      21.374731      32.630912      21627.365      6432.6539      7373.4251      5358.1521     -721.51478     -1163.2124     -185.32955    
  24832000   277.01254     -401.79379     -309.01868     -401.82011      0              6154.3074      31.007999      21.374731      32.45376       21509.951      7319.6048      4748.9302      6394.3874     -1465.1314     -264.68376      1316.9809    
  24834000   273.20316     -402.98211     -311.48281     -402.98914      0              4901.4996      31.007999      21.374731      32.56117       21581.141      5366.5958      4801.7175      4536.1854      14.814238      183.32275      169.48538    
  24836000   283.20614     -403.23792     -308.38849     -403.20563      0              6252.474       31.007999      21.374731      32.451282      21508.308      4393.6234      5116.7376      9247.0609      597.91023     -399.07774      1499.3883    
  24838000   272.70399     -401.00481     -309.67269     -401.01892      0              9632.4704      31.007999      21.374731      32.420468      21487.885      9582.9872      9643.8989      9670.5251      1921.6846      784.86552      962.06868    
  24840000   279.03507     -401.34029     -307.88781     -401.28404      0              5285.751       31.007999      21.374731      32.330294      21428.119      4890.1326      4078.4101      6888.7103     -1745.8457      2580.8742      721.12185    
  24842000   275.7514      -400.76153     -308.40879     -400.70643      0              5525.7196      31.007999      21.374731      32.486906      21531.92       6075.1702      4144.6032      6357.3854      49.947192      234.38692     -1826.0436    
  24844000   275.1109      -398.86217     -306.72394     -398.83364      0              7815.5581      31.007999      21.374731      32.575958      21590.942      9691.1024      5186.8888      8568.6832     -891.30863     -1572.622      -1500.174     
  24846000   277.20319     -396.61519     -303.77623     -396.61456      0              7493.5894      31.007999      21.374731      32.641013      21634.06       7784.4077      8035.0159      6661.3447      60.250664     -1217.0145      462.60533    
  24848000   271.29747     -395.59545     -304.73439     -395.67312      0              4545.1076      31.007999      21.374731      32.47603       21524.711      3543.7892      2691.9075      7399.6263      269.37334      867.43583      769.42632    
  24850000   269.66873     -400.60585     -310.29028     -400.62765      0              6988.1686      31.007999      21.374731      32.513313      21549.422      7237.4748      7432.537       6294.494       987.499        199.3117      -958.01474    
  24852000   275.02954     -401.2508      -309.13982     -401.2172       0              7578.8256      31.007999      21.374731      32.509848      21547.126      8406.7343      6446.3765      7883.3659     -606.89416     -1045.7116     -1427.5885    
  24854000   270.94145     -400.25184     -309.51002     -400.26442      0              4546.179       31.007999      21.374731      32.383798      21463.581      4316.8362      5407.7087      3913.992       1170.1434      282.18763      1153.4099    
  24856000   277.53386     -399.1781      -306.22839     -399.16359      0              6298.9302      31.007999      21.374731      32.461655      21515.184      5773.1171      5339.5424      7784.1312     -811.39597     -1841.4637      1008.8899    
  24858000   268.10568     -401.84954     -312.05745     -401.81915      0              6291.0162      31.007999      21.374731      32.581764      21594.79       4516.813       6581.2367      7774.9989     -956.82431      62.315553      1741.1694    
  24860000   274.4159      -399.22263     -307.31717     -399.23461      0              8080.8086      31.007999      21.374731      32.672628      21655.014      6486.2475      9565.1445      8191.0338     -1241.1764     -220.34252      2644.7091    
  24862000   280.13041     -396.07498     -302.25565     -396.09591      0              5889.828       31.007999      21.374731      32.548645      21572.839      5264.7225      5619.9108      6784.8508     -1909.3588     -5.7372329     -184.07312    
  24864000   276.00819     -401.15712     -308.71838     -401.13384      0              5214.3171      31.007999      21.374731      32.453249      21509.612      5532.9985      5549.9909      4559.9618     -215.03022     -628.40377     -670.06692    
  24866000   270.16009     -399.93855     -309.45842     -399.96285      0              6848.5663      31.007999      21.374731      32.408663      21480.061      7244.6357      5518.4233      7782.6398     -366.64903      1020.2475     -167.94629    
  24868000   271.06451     -399.54529     -308.76226     -399.58467      0              6782.7497      31.007999      21.374731      32.520559      21554.224      5829.3477      6416.2554      8102.6461      743.62881     -80.62583      -741.60906    
  24870000   279.26762     -402.19315     -308.66278     -402.16958      0              6901.1017      31.007999      21.374731      32.541174      21567.888      6630.2072      5968.7601      8104.3378      651.02292     -458.73934     -478.902      
  24872000   276.3787      -398.70519     -306.14236     -398.72852      0              6415.1636      31.007999      21.374731      32.427355      21492.45       7217.1988      4126.4298      7901.8622      1173.3198     -2185.4981      289.0945     
  24874000   277.17253     -397.31691     -304.48822     -397.33823      0              6728.2942      31.007999      21.374731      32.387179      21465.822      5498.2444      5089.8546      9596.7835      1046.1636     -410.10035      991.89416    
  24876000   274.80672     -397.75491     -305.71855     -397.78572      0              7945.4279      31.007999      21.374731      32.501489      21541.585      8162.4326      6484.3174      9189.5336      35.094292      662.11775     -918.17959    
  24878000   275.17731     -398.01611     -305.85564     -398.0704       0              7559.495       31.007999      21.374731      32.422286      21489.09       8370.7158      6155.7076      8152.0618     -1597.704      -1067.6691      1821.5365    
  24880000   276.40883     -399.92708     -307.35416     -399.94091      0              5078.2012      31.007999      21.374731      32.714281      21682.621      6765.4884      3376.2356      5092.8798     -568.86726     -93.472957     -256.22921    
  24882000   278.02151     -401.71988     -308.60685     -401.73044      0              5253.0758      31.007999      21.374731      32.637055      21631.436      6825.6079      3901.147       5032.4724      242.42304     -1598.4192     -1207.6979    
  24884000   268.12501     -400.25974     -310.46118     -400.25231      0              5951.0011      31.007999      21.374731      32.77341       21721.811      7119.1929      6248.0851      4485.7253     -514.15192      401.12031     -1178.6264    
  24886000   269.98444     -403.07405     -312.65274     -403.09814      0              4756.0992      31.007999      21.374731      32.82664       21757.091      6177.5523      5486.7862      2603.959      -181.82005     -105.20087      463.40799    
  24888000   276.04022     -401.58022     -309.13075     -401.5611       0              5404.8019      31.007999      21.374731      32.767382      21717.816      5420.6939      4648.0028      6145.709       34.316518      26.042799     -374.3437     
  24890000   273.01008     -400.4362      -309.00156     -400.45658      0              6192.5187      31.007999      21.374731      32.738199      21698.473      6460.4804      6906.7286      5210.3472      1502.4767     -2308.4042      756.0436     
  24892000   270.22238     -401.86972     -311.36872     -401.81598      0              6656.5583      31.007999      21.374731      32.74325       21701.821      7300.5651      5662.6071      7006.5028     -1487.8466      1153.9772      816.14349    
  24894000   276.44588     -402.6759      -310.09057     -402.64134      0              6060.9898      31.007999      21.374731      32.603047      21608.897      6371.3638      4881.2326      6930.3731      1710.3144     -1117.4685      1264.0237    
  24896000   272.84678     -398.26394     -306.884       -398.23108      0              5958.7469      31.007999      21.374731      32.68715       21664.639      5427.531       5177.9854      7270.7242     -539.07354     -1534.2974     -374.2114     
  24898000   272.47034     -398.66552     -307.41166     -398.70774      0              6381.3879      31.007999      21.374731      32.708178      21678.576      6785.4556      4450.1933      7908.5148      1188.0909      209.94934     -1288.9029    
  24900000   282.35692     -398.31088     -303.74586     -398.31587      0              6742.3315      31.007999      21.374731      32.633127      21628.833      8399.7626      6392.4871      5434.745      -1269.6378      767.43541     -2499.6386    
  24902000   270.78943     -400.8225      -310.13158     -400.78193      0              6064.3538      31.007999      21.374731      32.561957      21581.663      4583.1865      6891.0455      6718.8294     -198.01843     -227.63672     -2152.1651    
  24904000   275.15225     -400.95659     -308.80451     -400.91902      0              5175.1994      31.007999      21.374731      32.586517      21597.94       5615.4927      5641.4671      4268.6384      1164.5907      1360.9751     -51.29857     
  24906000   280.05985     -398.0009      -304.2052      -398.02521      0              7235.832       31.007999      21.374731      32.679606      21659.639      7883.4457      5756.6166      8067.4338     -1169.1441     -902.6107      -636.83944    
  24908000   279.84999     -399.59866     -305.87325     -399.55608      0              6662.8957      31.007999      21.374731      32.424611      21490.631      5631.1618      6890.6859      7466.8395     -907.26232      423.47161     -242.23998    
  24910000   268.84176     -397.96808     -307.92947     -398.0129       0              5587.473       31.007999      21.374731      32.540274      21567.291      6340.5767      4130.6917      6291.1507      913.92058     -1529.3208      724.90807    
  24912000   278.26108     -402.16405     -308.97079     -402.17191      0              6177.4423      31.007999      21.374731      32.590334      21600.47       7658.248       4355.3075      6518.7714     -1491.2302      1320.1287     -1304.6527    
  24914000   269.90625     -401.00922     -310.6141      -401.06446      0              5330.7945      31.007999      21.374731      32.443202      21502.953      5813.6191      3148.8863      7029.8782     -705.30098     -207.46212      1429.5385    
  24916000   277.97644     -402.58299     -309.48505     -402.50762      0              6694.6312      31.007999      21.374731      32.459222      21513.571      7706.056       5500.0631      6877.7746     -1494.7678      323.66248      623.62122    
  24918000   282.6552      -400.37265     -305.70773     -400.30242      0              7603.2832      31.007999      21.374731      32.479777      21527.194      9199.8039      7950.6789      5659.3669      421.45748      2848.1856      329.00874    
  24920000   276.39022     -401.0753      -308.50861     -401.05141      0              5707.886       31.007999      21.374731      32.503348      21542.817      4745.2084      6157.2633      6221.1862     -421.04105     -314.87757      2150.8222    
  24922000   282.42654     -399.8826      -305.29427     -399.92996      0              5970.3324      31.007999      21.374731      32.562251      21581.858      6143.6424      5436.7959      6330.5589     -1268.9714      395.49182      151.80864    
  24924000   274.71052     -400.21507     -308.21093     -400.26984      0              6108.2135      31.007999      21.374731      32.750375      21706.544      5459.969       6171.2478      6693.4236     -1401.9283     -633.4028      -356.43216    
  24926000   274.86219     -399.67814     -307.62321     -399.74332      0              6448.8894      31.007999      21.374731      32.552623      21575.476      8358.521       5761.2964      5226.8506     -1562.4341      260.40289     -1009.147     
  24928000   280.98562     -400.82119     -306.71544     -400.8478       0              5311.1406      31.007999      21.374731      32.734622      21696.103      6098.2359      2770.8049      7064.381       2137.2437      173.57048      497.23688    
  24930000   269.99549     -402.96594     -312.54093     -402.91976      0              5106.3766      31.007999      21.374731      32.497894      21539.202      5602.8786      3904.1393      5812.1117     -1864.0595     -2423.6248     -1906.5495    
  24932000   270.24984     -401.17286     -310.66267     -401.20227      0              6416.1702      31.007999      21.374731      32.49976       21540.439      8058.2509      5030.4901      6159.7695     -2176.2569     -300.2906      -1378.6801    
  24934000   272.31937     -401.74771     -310.5444      -401.79623      0              6586.8763      31.007999      21.374731      32.723012      21688.408      7679.1023      6823.2841      5258.2426     -810.84007     -231.16458      945.34679    
  24936000   281.76982     -402.21707     -307.84868     -402.21538      0              6807.5809      31.007999      21.374731      32.669554      21652.977      6337.8312      8289.5264      5795.3852      1227.4111     -648.5388      -661.77933    
  24938000   275.41822     -400.07392     -307.83277     -400.10872      0              4564.6033      31.007999      21.374731      32.590689      21600.706      3881.7372      5148.5964      4663.4762     -1066.4495      2.4023258      115.20633    
  24940000   281.319       -400.73586     -306.51846     -400.76828      0              7316.6114      31.007999      21.374731      32.749513      21705.973      8014.8499      6872.3001      7062.6842     -1374.7102      1344.1253     -1162.316     
  24942000   287.48105     -401.89616     -305.61501     -402.00656      0              5515.9758      31.007999      21.374731      32.758004      21711.6        4793.4479      5797.0692      5957.4102     -25.415047     -267.21118     -39.507188    
  24944000   280.67969     -401.72187     -307.71858     -401.75618      0              4360.3638      31.007999      21.374731      32.917805      21817.514      3130.2805      5684.9046      4265.9062      70.754861      83.06089      -142.44467    
  24946000   274.59693     -401.99442     -310.02832     -401.91702      0              5873.0455      31.007999      21.374731      32.697095      21671.231      7030.7846      5597.9279      4990.424      -622.83495     -74.092945      954.4691     
ERROR on proc 0: Cannot open restart file restart2.lmp.0: Permission denied (../write_restart.cpp:233)
Last command: run             ${nsteps_enhanced_coex_upto} upto
