LAMMPS (23 Jun 2022)
include procedure.lmp
echo both
include		in.partitions
variable        pid world 0
include		in.temp
variable	temperature equal 275
variable        tempDamp equal 0.100 # this is 0.1 ps
include		in.pressure
variable        pressure equal 6079.5
variable        pressureDamp equal 1.0 #this is 1ps

variable	barostat string	   tri
variable	direction string   z
variable	direction_x_bool equal 0
variable	direction_y_bool equal 0
variable	direction_z_bool equal 1

include		in.seed
variable        seed world 745823

units           metal
atom_style	full
box tilt large
read_restart 	restart.lmp.${pid}
read_restart 	restart.lmp.0
Reading restart file ...
  restart file = 23 Jun 2022, LAMMPS = 23 Jun 2022
  restoring atom style full from restart
  triclinic box = (0 0 -0.69548651) to (31.007999 21.374731 31.655945) with tilt (-9.165637 1.0059224 -10.759371)
WARNING: Triclinic box skew is large (../domain.cpp:224)
  2 by 1 by 2 MPI processor grid
Summary of lammps deepmd module ...
  >>> Info of deepmd-kit:
  installed to:       /u/sigbjobo/software/DEEPMD_FROM_SOURCE/deepmd-kit/install
  source:             v2.1.3
  source branch:       master
  source commit:      5a32c49
  source commit at:   2022-07-01 09:52:58 +0800
  surpport model ver.:1.1 
  build float prec:   double
  build with tf inc:  /u/sigbjobo/software/DEEPMD_FROM_SOURCE/tensorflow/install/include;/u/sigbjobo/software/DEEPMD_FROM_SOURCE/tensorflow/install/include
  build with tf lib:  /u/sigbjobo/software/DEEPMD_FROM_SOURCE/tensorflow/install/lib/libtensorflow_cc.so;/u/sigbjobo/software/DEEPMD_FROM_SOURCE/tensorflow/install/lib/libtensorflow_framework.so
  set tf intra_op_parallelism_threads: 0
  set tf inter_op_parallelism_threads: 0
  >>> Info of lammps module:
  use deepmd-kit at:  /u/sigbjobo/software/DEEPMD_FROM_SOURCE/deepmd-kit/install
  source:             v2.1.3
  source branch:      master
  source commit:      5a32c49
  source commit at:   2022-07-01 09:52:58 +0800
  build float prec:   double
  build with tf inc:  /u/sigbjobo/software/DEEPMD_FROM_SOURCE/tensorflow/install/include;/u/sigbjobo/software/DEEPMD_FROM_SOURCE/tensorflow/install/include
  build with tf lib:  /u/sigbjobo/software/DEEPMD_FROM_SOURCE/tensorflow/install/lib/libtensorflow_cc.so;/u/sigbjobo/software/DEEPMD_FROM_SOURCE/tensorflow/install/lib/libtensorflow_framework.so
  restoring pair style deepmd from restart
  2592 atoms
Finding 1-2 1-3 1-4 neighbors ...
  special bond factors lj:    0        0        0       
  special bond factors coul:  0        0        0       
     0 = max # of 1-2 neighbors
     0 = max # of 1-3 neighbors
     0 = max # of 1-4 neighbors
     1 = max # of special neighbors
  special bonds CPU = 0.000 seconds
  read_restart CPU = 0.006 seconds
include 	in.setup
variable	out_freq equal 2000
variable	out_freq2 equal 2000

timestep        0.0005

neigh_modify    delay 7 every 1

include         in.deepmd
# This is deepMD model

# create groups ###
#group ox type 2
#group hy type 1

mass 2 15.999
mass 1 1.008

pair_style      deepmd ../graph.pb
pair_coeff      * *

bond_style      none
angle_style     none
dihedral_style  none
improper_style  none
neigh_modify exclude none


neighbor        2.0 bin
neigh_modify    every 50 delay 0 check no

thermo          ${out_freq}
thermo          2000
thermo_style 	custom step temp pe etotal epair emol press lx ly lz vol pxx pyy pzz pxy pxz pyz

restart 	${out_freq} restart.lmp.${pid} restart2.lmp.${pid}
restart 	2000 restart.lmp.${pid} restart2.lmp.${pid}
restart 	2000 restart.lmp.0 restart2.lmp.${pid}
restart 	2000 restart.lmp.0 restart2.lmp.0


timer           timeout 23:50:00 every 1000
New timer settings: style=normal  mode=nosync  timeout=23:50:00


# Set number of time steps
variable 	nsteps_wall		equal	 6000000
variable 	nsteps_enhanced_coex    equal	60000000

variable     nsteps_enhanced_coex_upto equal (${nsteps_wall}+${nsteps_enhanced_coex})
variable     nsteps_enhanced_coex_upto equal (6000000+${nsteps_enhanced_coex})
variable     nsteps_enhanced_coex_upto equal (6000000+60000000)


# Set temperature for first step
if "$(step) < 1  " then    "velocity 	all create ${temperature} ${seed} dist gaussian"


# Always run thermo and barostat


######################################
# Run simulation with wall potential #
######################################
if " $(step) < ${nsteps_wall} " then    "fix             3 all plumed plumedfile plumed.equil.dat outfile plumed.equil.out"   "fix             1 all nph ${direction} ${pressure} ${pressure} ${pressureDamp}"   "fix             2 all temp/csvr ${temperature} ${temperature} ${tempDamp} ${seed}"   "run             ${nsteps_wall} upto"
if " $(step) == ${nsteps_wall} " then    "unfix 3"   "unfix 1"   "unfix 2"


############################
# Run enhanced coesistence #
############################
if "$(step) == ${nsteps_wall}" then    "fix             3 all plumed plumedfile plumed.start.dat outfile plumed.out" else    "fix             3 all plumed plumedfile plumed.dat outfile plumed.out"
fix             3 all plumed plumedfile plumed.dat outfile plumed.out

if "$(step) < ${nsteps_enhanced_coex_upto} && $(step) >= ${nsteps_wall} " then    "include         in.dump"    "fix             1 all nph ${direction} ${pressure} ${pressure} ${pressureDamp}"   "fix             2 all temp/csvr ${temperature} ${temperature} ${tempDamp} ${seed}"   "run             ${nsteps_enhanced_coex_upto} upto"    "unfix 3"   "unfix 1"   "unfix 2"
include         in.dump
dump            myDump all atom ${out_freq2} dump.water.${pid}
dump            myDump all atom 2000 dump.water.${pid}
dump            myDump all atom 2000 dump.water.0
dump            myDump2 all dcd ${out_freq2} dump.${pid}.dcd
dump            myDump2 all dcd 2000 dump.${pid}.dcd
dump            myDump2 all dcd 2000 dump.0.dcd
dump_modify     myDump append yes
dump_modify     myDump2 append yes

fix             1 all nph ${direction} ${pressure} ${pressure} ${pressureDamp}
fix             1 all nph z ${pressure} ${pressure} ${pressureDamp}
fix             1 all nph z 6079.5 ${pressure} ${pressureDamp}
fix             1 all nph z 6079.5 6079.5 ${pressureDamp}
fix             1 all nph z 6079.5 6079.5 1
Resetting global fix info from restart file:
  fix style: nph, fix ID: 1
fix             2 all temp/csvr ${temperature} ${temperature} ${tempDamp} ${seed}
fix             2 all temp/csvr 275 ${temperature} ${tempDamp} ${seed}
fix             2 all temp/csvr 275 275 ${tempDamp} ${seed}
fix             2 all temp/csvr 275 275 0.1 ${seed}
fix             2 all temp/csvr 275 275 0.1 745823
Resetting global fix info from restart file:
  fix style: temp/csvr, fix ID: 2
run             ${nsteps_enhanced_coex_upto} upto
run             66000000 upto

CITE-CITE-CITE-CITE-CITE-CITE-CITE-CITE-CITE-CITE-CITE-CITE-CITE

Your simulation uses code contributions which should be cited:

- USER-DEEPMD package:

@article{Wang_ComputPhysCommun_2018_v228_p178,
  author = {Wang, Han and Zhang, Linfeng and Han, Jiequn and E, Weinan},
  doi = {10.1016/j.cpc.2018.03.016},
  url = {https://doi.org/10.1016/j.cpc.2018.03.016},
  year = 2018,
  month = {jul},
  publisher = {Elsevier {BV}},
  volume = 228,
  journal = {Comput. Phys. Commun.},
  title = {{DeePMD-kit: A deep learning package for many-body potential energy representation and molecular dynamics}},
  pages = {178--184}
}

CITE-CITE-CITE-CITE-CITE-CITE-CITE-CITE-CITE-CITE-CITE-CITE-CITE

Generated 0 of 1 mixed pair_coeff terms from geometric mixing rule
All restart file global fix info was re-assigned
Neighbor list info ...
  update every 50 steps, delay 0 steps, check no
  max neighbors/atom: 2000, page size: 100000
  master list distance cutoff = 8
  ghost atom cutoff = 8
  binsize = 4, bins = 11 9 9
  1 neighbor lists, perpetual/occasional/extra = 1 0 0
  (1) pair deepmd, perpetual
      attributes: full, newton on
      pair build: full/bin
      stencil: full/bin/3d
      bin: standard
Per MPI rank memory allocation (min/avg/max) = 7.314 | 7.315 | 7.316 Mbytes
   Step          Temp          PotEng         TotEng         E_pair         E_mol          Press            Lx             Ly             Lz           Volume          Pxx            Pyy            Pzz            Pxy            Pxz            Pyz      
  30540000   276.14717     -402.28915     -309.80386     -402.28915      0              5137.444       31.007999      21.374731      32.351432      21442.129      6566.2517      4357.542       4488.5384     -1051.2612     -13.757781      2160.105     
  30542000   272.53082     -402.25526     -310.98114     -402.17014      0              7006.3183      31.007999      21.374731      32.450061      21507.499      5375.4902      9121.0122      6522.4524     -427.60048      1607.1222     -832.75283    
  30544000   273.35766     -404.58633     -313.03528     -404.48443      0              4360.2083      31.007999      21.374731      32.581109      21594.356      3137.2742      5510.853       4432.4978     -1033.5522      315.44709      654.08319    
  30546000   276.69493     -400.66915     -308.00041     -400.60731      0              7042.8049      31.007999      21.374731      32.451877      21508.703      7205.5538      7814.5315      6108.3294     -732.9264      -58.974549      424.12014    
  30548000   268.78536     -400.27387     -310.25415     -400.19225      0              6126.2148      31.007999      21.374731      32.430766      21494.71       6493.6105      5753.5519      6131.4821     -779.75619     -70.323482     -373.25878    
  30550000   271.65572     -402.68158     -311.70054     -402.5967       0              7730.3509      31.007999      21.374731      32.700327      21673.372      9307.2036      5886.3577      7997.4915     -0.68247054     160.25227      356.07893    
  30552000   277.49034     -401.66843     -308.7333      -401.62857      0              4641.0734      31.007999      21.374731      32.553227      21575.877      4562.2586      3130.5378      6230.4239      724.10783     -356.21482      406.63787    
  30554000   278.42549     -401.09297     -307.84464     -401.00931      0              9489.2846      31.007999      21.374731      32.341874      21435.794      8821.707       9846.6122      9799.5345      73.059957     -531.48268     -576.81941    
  30556000   275.51758     -403.6123      -311.33787     -403.52911      0              7863.9597      31.007999      21.374731      32.436329      21498.398      7194.201       7895.6574      8502.0206     -1301.2182      1375.5081      456.93303    
  30558000   268.91142     -401.72863     -311.66669     -401.72227      0              6597.8287      31.007999      21.374731      32.487155      21532.085      5549.5026      5246.2292      8997.7542     -749.44027     -620.04423      180.05198    
  30560000   268.03925     -402.68153     -312.91169     -402.632        0              4082.4722      31.007999      21.374731      32.633977      21629.397      3601.3295      3803.3559      4842.7313      835.30287      143.65664      2076.3934    
  30562000   278.53061     -400.12732     -306.84378     -400.07599      0              4266.4563      31.007999      21.374731      32.724673      21689.509      3152.9545      5770.3482      3876.0663      578.09917      1589.0894      343.48537    
  30564000   284.85139     -400.82087     -305.42043     -400.79068      0              7112.0979      31.007999      21.374731      32.781485      21727.163      6607.4591      8100.777       6628.0577      921.81273      578.44593      43.870965    
  30566000   273.37964     -407.24107     -315.68266     -407.17976      0              5389.6653      31.007999      21.374731      32.692843      21668.412      4747.4583      5193.6137      6227.924       1187.4466      84.249757     -1340.3508    
  30568000   276.32556     -403.50975     -310.96472     -403.44789      0              7017.0669      31.007999      21.374731      32.639523      21633.072      5348.3965      7488.5903      8214.2137      1167.3447      41.963003     -1021.9251    
  30570000   278.64399     -401.50306     -308.18155     -401.45837      0              5996.0834      31.007999      21.374731      32.641433      21634.338      4797.1703      5297.2052      7893.8748     -1568.8371      1488.9839      835.76041    
  30572000   272.18661     -402.5952      -311.43636     -402.5344       0              7443.9366      31.007999      21.374731      32.653598      21642.401      8514.4087      7535.6478      6281.7533      291.60559      580.19639     -1905.4227    
  30574000   278.20442     -400.27662     -307.10233     -400.25204      0              8692.5863      31.007999      21.374731      32.292048      21402.77       7441.8154      9018.1811      9617.7624      878.07472      1256.4867      1818.5704    
  30576000   274.22861     -401.33178     -309.48905     -401.27006      0              7512.8994      31.007999      21.374731      32.380669      21461.507      6320.6654      8458.0543      7759.9786      751.97736      1147.168      -1397.5907    
  30578000   272.5345      -402.6578      -311.38244     -402.59759      0              4954.4149      31.007999      21.374731      32.316611      21419.05       3084.9796      6053.5472      5724.718       889.73317     -2070.8408      468.94652    
  30580000   276.25462     -403.31032     -310.78905     -403.25614      0              7808.1214      31.007999      21.374731      32.443459      21503.123      8719.9258      9731.5707      4972.8678     -142.01961      1738.331      -88.618116    
  30582000   279.539       -404.46721     -310.84596     -404.38396      0              8240.5221      31.007999      21.374731      32.212427      21349.999      7119.9409      8787.0243      8814.6012     -263.53624     -114.27545     -85.28616     
  30584000   280.73155     -403.02344     -309.00279     -402.9506       0              6732.4211      31.007999      21.374731      32.37131       21455.304      7247.0464      4955.0311      7995.1859     -1413.6688      249.38091     -926.73883    
  30586000   266.33826     -407.60447     -318.40432     -407.52359      0              7353.1024      31.007999      21.374731      32.390538      21468.048      7153.8979      6406.8845      8498.5249      56.642589      448.60355     -513.77974    
  30588000   275.14301     -405.27605     -313.12707     -405.20374      0              6352.4492      31.007999      21.374731      32.366681      21452.236      7411.7473      6413.5569      5232.0435      630.88643     -557.22434     -150.09293    
  30590000   277.82391     -401.09014     -308.04329     -401.0469       0              8116.693       31.007999      21.374731      32.52127       21554.696      8267.8571      7347.3605      8734.8615      866.47214      751.54311      1483.8703    
  30592000   273.36912     -404.12805     -312.57317     -404.04641      0              6062.2963      31.007999      21.374731      32.552177      21575.18       5439.7067      7828.6311      4918.5511      1254.6371     -627.65413      451.95336    
  30594000   268.65344     -406.23092     -316.25538     -406.1636       0              6870.324       31.007999      21.374731      32.400189      21474.445      6431.4091      6647.2816      7532.2814      109.95382      1055.4873     -117.49806    
  30596000   279.95404     -403.64677     -309.88651     -403.56652      0              6710.4014      31.007999      21.374731      32.606611      21611.258      5017.6876      7767.5154      7346.0012     -198.70078      1866.426      -937.06596    
  30598000   270.68117     -403.03812     -312.38346     -402.9715       0              6405.9936      31.007999      21.374731      32.477412      21525.627      5141.8201      7939.5108      6136.6499      2434.5486      231.12623     -523.73028    
  30600000   268.07703     -403.66233     -313.87984     -403.60076      0              7439.7003      31.007999      21.374731      32.422355      21489.136      6472.6502      8894.8121      6951.6386     -35.218631      896.98892      823.92804    
  30602000   267.56435     -402.43872     -312.82793     -402.35064      0              5190.7669      31.007999      21.374731      32.546093      21571.148      4543.7918      6188.5667      4839.9422     -473.60302      287.00795     -919.18722    
  30604000   268.14601     -404.519       -314.7134      -404.4531       0              7127.3456      31.007999      21.374731      32.405351      21477.866      6661.6949      7732.3705      6987.9713     -536.41934      692.93008     -824.41314    
  30606000   279.40329     -403.58368     -310.00788     -403.50203      0              6142.3299      31.007999      21.374731      32.563585      21582.741      6965.0788      5720.4872      5741.4237      792.32651     -597.33262      972.08406    
  30608000   273.93876     -401.33711     -309.59145     -401.27564      0              8049.9533      31.007999      21.374731      32.472052      21522.075      8435.8092      7158.968       8555.0827      2446.3467      742.21037     -732.74676    
  30610000   268.51426     -403.45589     -313.52697     -403.37531      0              8518.6703      31.007999      21.374731      32.238138      21367.039      10002.702      8983.0851      6570.2239      1043.3956      6.3520569     -959.16065    
  30612000   285.09264     -406.65673     -311.17549     -406.57624      0              7278.2376      31.007999      21.374731      32.353162      21443.276      8404.3917      8216.1184      5214.2028     -640.0241      -891.69375     -2999.7232    
  30614000   269.90515     -403.20991     -312.81516     -403.14848      0              5896.6844      31.007999      21.374731      32.398428      21473.277      2982.3017      5900.2627      8807.4888      1463.799      -2263.0892      1846.2982    
  30616000   271.55234     -403.09677     -312.15035     -403.03077      0              6018.7971      31.007999      21.374731      32.507201      21545.371      6028.8771      6034.2852      5993.229       1232.8579     -862.44824      539.48604    
  30618000   279.66141     -403.97359     -310.31134     -403.9299       0              6329.1841      31.007999      21.374731      32.419917      21487.52       5552.8016      5882.3546      7552.396      -1536.5576     -90.950954      1477.3378    
  30620000   269.83454     -402.86722     -312.49612     -402.84427      0              4234.9003      31.007999      21.374731      32.646606      21637.767      5053.6624      3314.1951      4336.8435     -2679.0335      268.74861     -689.68813    
  30622000   283.57939     -402.58399     -307.60955     -402.53574      0              8467.1308      31.007999      21.374731      32.537371      21565.367      7026.8338      9605.1094      8769.4492      997.98018      2.8336802     -171.1854     
  30624000   273.70088     -404.72366     -313.05767     -404.69038      0              6799.1735      31.007999      21.374731      32.55278       21575.58       7242.2104      7728.6572      5426.6528     -189.31165     -381.62166      635.50982    
  30626000   275.08405     -403.343       -311.21377     -403.30909      0              7488.5962      31.007999      21.374731      32.351911      21442.447      7818.4739      6925.1909      7722.1239      1178.9622      500.54555      580.93078    
  30628000   276.25188     -405.71343     -313.19308     -405.6521       0              5125.7491      31.007999      21.374731      32.699435      21672.781      4296.0078      4811.6781      6269.5614      636.28728     -189.74948      399.98461    
  30630000   267.9555      -402.58589     -312.8441      -402.55358      0              6695.3612      31.007999      21.374731      32.40058       21474.704      8491.36        5777.4518      5817.2718     -1018.2181      38.804324     -947.87324    
  30632000   281.45134     -402.40393     -308.14221     -402.38152      0              4392.3939      31.007999      21.374731      32.606835      21611.407      2821.2262      5023.533       5332.4226      955.16732     -354.78395     -553.53915    
  30634000   270.43013     -400.57257     -310.00199     -400.51788      0              8197.7723      31.007999      21.374731      32.426895      21492.145      7249.4202      8565.6342      8778.2626      1285.2972      1544.1866      589.52143    
  30636000   277.46889     -399.27447     -306.34652     -399.22973      0              5769.457       31.007999      21.374731      32.424766      21490.734      5459.9173      7266.0969      4582.3568     -263.03167     -989.82435     -117.55277    
  30638000   276.15627     -402.79462     -310.30628     -402.74616      0              6673.2942      31.007999      21.374731      32.520534      21554.208      7645.1476      6449.44        5925.295      -30.936821      339.48861     -193.46389    
  30640000   272.70421     -400.13819     -308.806       -400.11129      0              5046.9671      31.007999      21.374731      32.542265      21568.611      5542.3944      4516.1676      5082.3394      337.6032       83.142438     -1341.7994    
  30642000   280.82945     -403.77247     -309.71903     -403.77724      0              4804.9722      31.007999      21.374731      32.937359      21830.474      6413.5565      4298.698       3702.6619     -398.19781      496.15159     -319.1479     
  30644000   275.78616     -401.11721     -308.75284     -401.0562       0              4353.4002      31.007999      21.374731      32.581104      21594.353      3836.7015      5308.7126      3914.7864     -460.4263      -359.89208     -85.986048    
  30646000   278.09341     -397.46215     -304.32504     -397.37901      0              6023.6359      31.007999      21.374731      32.457707      21512.567      5188.5217      6272.3402      6610.0459      1009.9462     -80.198588      366.66633    
  30648000   272.94305     -400.83102     -309.41883     -400.77082      0              7199.9951      31.007999      21.374731      32.493826      21536.506      8223.2876      5936.1388      7440.5589      1120.3786      457.81548     -993.28141    
  30650000   281.15729     -398.7968      -304.63356     -398.73609      0              4429.9669      31.007999      21.374731      32.734011      21695.698      4674.8017      4815.2083      3799.8906      279.88405     -301.70907      488.65844    
  30652000   273.61239     -399.4611      -307.82474     -399.38936      0              6034.3782      31.007999      21.374731      32.706282      21677.319      6115.6804      6647.4071      5340.0471     -568.99594     -988.84368      2197.9808    
  30654000   266.00785     -403.84656     -314.75706     -403.80284      0              2776.1568      31.007999      21.374731      32.838667      21765.063      3333.2945      2346.4391      2648.7368      839.22455     -548.02674      537.67385    
  30656000   278.16625     -403.91612     -310.75462     -403.85812      0              6010.3817      31.007999      21.374731      32.87675       21790.303      5052.3595      6005.104       6973.6816     -56.251689      498.4651      -574.52407    
  30658000   268.06013     -403.7685      -313.99166     -403.70744      0              7312.7447      31.007999      21.374731      32.614475      21616.471      6902.2237      7842.9367      7193.0737     -236.0804       385.68851     -348.10369    
  30660000   273.26162     -400.54624     -309.02737     -400.49         0              7670.0376      31.007999      21.374731      32.766632      21717.318      5714.237       9210.252       8085.6238      1094.2936      1055.4935     -464.3525     
  30662000   274.08407     -402.70532     -310.91099     -402.62474      0              5093.7221      31.007999      21.374731      32.704028      21675.826      2285.0623      5521.4952      7474.6088      798.10518     -1090.0139      731.20409    
  30664000   267.72167     -401.3713      -311.70782     -401.30509      0              3631.586       31.007999      21.374731      32.952104      21840.247      3505.4215      4906.8482      2482.4882      1960.9484      842.94741     -739.10847    
  30666000   279.15019     -399.07692     -305.58588     -399.00629      0              5917.785       31.007999      21.374731      32.853107      21774.633      4586.033       6781.5495      6385.7724     -8.6565449      479.67417     -345.09527    
  30668000   274.06168     -400.90167     -309.11484     -400.82106      0              3707.1258      31.007999      21.374731      32.780294      21726.374      1724.435       3821.341       5575.6015      1877.6031     -627.93792      871.13114    
  30670000   275.25204     -402.59242     -310.40693     -402.52859      0              5367.8102      31.007999      21.374731      32.880172      21792.572      6201.3957      4066.6948      5835.3403     -34.266882      612.56477      330.72845    
  30672000   273.94021     -402.27405     -310.5279      -402.21701      0              4260.331       31.007999      21.374731      32.666737      21651.11       6549.1906      1576.9076      4654.8949     -1860.5253      1828.4334      1341.2027    
  30674000   277.85706     -403.2369      -310.17894     -403.16868      0              4802.5584      31.007999      21.374731      32.598625      21605.965      5212.8333      4099.8322      5095.0095     -295.36865      700.45255      1202.9798    
  30676000   271.21791     -401.79336     -310.95895     -401.72726      0              5957.4424      31.007999      21.374731      32.685431      21663.5        5554.7237      6422.2866      5895.317       124.10985      376.32786      717.04066    
  30678000   271.31403     -400.23056     -309.36395     -400.18776      0              7688.2895      31.007999      21.374731      32.543181      21569.218      8089.5589      6355.982       8619.3275      1016.1724     -2092.4387     -61.064743    
  30680000   274.41821     -399.98133     -308.07509     -399.9437       0              5870.1656      31.007999      21.374731      32.58719       21598.387      4736.5773      7670.1544      5203.7651      718.25719      529.92863      405.47426    
  30682000   268.87828     -402.21012     -312.15928     -402.15171      0              5806.2181      31.007999      21.374731      32.405033      21477.655      7373.9836      4639.4187      5405.252      -621.39676     -903.77077     -366.15209    
  30684000   275.81747     -401.80046     -309.42559     -401.72239      0              5461.5292      31.007999      21.374731      32.577953      21592.264      4723.0359      4534.7322      7126.8196      523.34278     -2318.8642     -478.57806    
  30686000   277.78883     -398.66627     -305.63117     -398.59131      0              6767.5387      31.007999      21.374731      32.465875      21517.981      7404.8741      5280.6967      7617.0453      149.60588      167.69595     -5.4335439    
  30688000   267.61171     -403.58307     -313.95641     -403.5021       0              6572.079       31.007999      21.374731      32.663554      21649          6840.9519      6447.3488      6427.9363     -305.54041     -233.78344      450.12079    
  30690000   275.95127     -401.70854     -309.28887     -401.64307      0              5772.8633      31.007999      21.374731      32.684336      21662.774      5285.4362      6178.1428      5855.0107      270.8291      -2239.2812      1463.045     
  30692000   281.78177     -403.39288     -309.02049     -403.31238      0              8157.7177      31.007999      21.374731      32.508833      21546.453      6725.9684      9606.5836      8140.6011      1749.4607      1095.8416     -833.76597    
  30694000   277.70839     -400.2933      -307.28514     -400.22544      0              8456.0791      31.007999      21.374731      32.393619      21470.09       7082.0976      9457.7886      8828.3511     -432.54717      1567.6002     -1141.3547    
  30696000   273.87563     -401.58736     -309.86284     -401.50487      0              7405.7969      31.007999      21.374731      32.486417      21531.596      7076.4555      9145.1782      5995.7571      1447.882      -779.29236      66.047411    
  30698000   284.17146     -403.59387     -308.42114     -403.54756      0              5426.3867      31.007999      21.374731      32.57081       21587.531      5517.7379      3987.8942      6773.528      -414.55568     -276.85086      1094.0089    
  30700000   276.29594     -400.94578     -308.41066     -400.8977       0              5691.8067      31.007999      21.374731      32.643976      21636.024      7179.9593      4873.5085      5021.9522     -790.31137     -1154.0272     -565.26398    
  30702000   272.45476     -398.15203     -306.90338     -398.14735      0              4509.7623      31.007999      21.374731      32.605608      21610.594      3361.5266      4668.2175      5499.5427     -960.50114      1711.9875     -644.06745    
  30704000   270.96875     -400.95165     -310.20068     -400.92563      0              5560.1701      31.007999      21.374731      32.549957      21573.709      5712.5545      4896.1784      6071.7775      757.14583     -961.44137      312.81113    
  30706000   280.95636     -400.13979     -306.04384     -400.14181      0              6303.4383      31.007999      21.374731      32.637254      21631.568      6182.4077      7097.354       5630.5531      394.82153      971.87344     -1352.6093    
  30708000   278.41118     -396.73734     -303.4938      -396.71767      0              6679.6551      31.007999      21.374731      32.703625      21675.559      8118.9439      6858.7919      5061.2295      359.5735       145.93976     -872.55466    
  30710000   276.21269     -401.22612     -308.71889     -401.19859      0              5171.1023      31.007999      21.374731      32.522654      21555.613      6374.8737      4725.4817      4412.9514     -2161.8246      1387.0392     -724.20129    
  30712000   270.04174     -399.84961     -309.40911     -399.81514      0              5273.9058      31.007999      21.374731      32.578401      21592.562      5056.7896      5685.3656      5079.562       556.8192       803.94343     -1104.7474    
  30714000   272.6251      -401.01856     -309.71286     -401.02432      0              5919.2878      31.007999      21.374731      32.737486      21698.001      6305.6334      6604.1701      4848.0597     -579.96115     -240.09555      957.26886    
  30716000   277.04765     -403.16361     -310.37674     -403.11586      0              6444.7341      31.007999      21.374731      32.74553       21703.332      6859.6179      6539.0118      5935.5726      2135.7563      613.11969      250.16334    
  30718000   274.15884     -397.54988     -305.73051     -397.57677      0              5737.4296      31.007999      21.374731      32.580121      21593.701      6507.7777      3808.6839      6895.8273     -230.57848      346.11404      922.36197    
  30720000   272.2362      -403.29024     -312.11479     -403.27605      0              4945.4112      31.007999      21.374731      32.658904      21645.918      4016.4643      5133.8688      5685.9006      823.70788     -510.61375     -740.25913    
  30722000   278.80745     -404.09836     -310.72211     -404.10038      0              6444.7525      31.007999      21.374731      32.642018      21634.726      6666.8978      6553.8902      6113.4696      264.40758      1916.6416     -434.63258    
  30724000   272.34839     -399.5692      -308.35617     -399.70857      0              4855.1402      31.007999      21.374731      32.575748      21590.803      4254.7857      3849.2347      6461.4002     -166.99207      909.41518     -51.548503    
  30726000   274.83613     -402.64363     -310.59743     -402.66395      0              8282.2588      31.007999      21.374731      32.528875      21559.736      8324.8181      8520.0993      8001.8589      1569.4591      1145.6753      476.31326    
  30728000   276.60222     -403.47702     -310.83933     -403.47142      0              6249.9381      31.007999      21.374731      32.600564      21607.251      4917.6894      6353.6326      7478.4924     -332.31241     -9.2394861      2146.1376    
  30730000   274.39634     -403.18046     -311.28155     -403.18954      0              7008.6403      31.007999      21.374731      32.594046      21602.931      5671.1947      7804.6908      7550.0353      495.82251      732.95872      150.87025    
  30732000   290.84479     -401.33165     -303.92394     -401.38429      0              7941.6263      31.007999      21.374731      32.714719      21682.911      7297.6255      9052.6802      7474.5734     -1394.5848     -1570.4207     -781.86204    
  30734000   274.24855     -400.53761     -308.6882      -400.56577      0              6932.7654      31.007999      21.374731      32.60839       21612.437      7385.7288      7401.9179      6010.6495     -1326.6363     -62.413993     -940.77704    
  30736000   272.30328     -404.43429     -313.23637     -404.52905      0              2897.4885      31.007999      21.374731      32.91176       21813.507      2559.8332      4699.0619      1433.5704     -682.39799      634.41793     -552.55451    
  30738000   272.25863     -405.46034     -314.27737     -405.48741      0              6925.6801      31.007999      21.374731      32.859535      21778.893      5761.6344      8054.8828      6960.523      -606.49046     -106.63997     -334.34947    
  30740000   291.5849      -402.19897     -304.54338     -402.23788      0              6982.0813      31.007999      21.374731      32.816063      21750.081      6226.4338      7947.4908      6772.3194     -1648.8462     -1079.0394      312.12375    
  30742000   272.84525     -401.35241     -309.97298     -401.37943      0              3996.2417      31.007999      21.374731      32.919796      21818.834      4664.4785      3945.601       3378.6456     -1050.7147      2411.0409      748.71436    
  30744000   269.21837     -402.21941     -312.05466     -402.2461       0              3741.0244      31.007999      21.374731      32.822225      21754.165      4690.8735      3683.7727      2848.4268     -403.30324     -440.41268      605.62497    
  30746000   278.73356     -399.65627     -306.30477     -399.68332      0              6922.0216      31.007999      21.374731      32.700309      21673.361      8204.1713      6120.3742      6441.5194     -1371.0514      1131.4416     -583.23667    
  30748000   270.59119     -400.74094     -310.11642     -400.83094      0              7287.8802      31.007999      21.374731      32.608286      21612.369      6744.184       10142.745      4976.7113     -557.34298      66.071531     -2968.5832    
  30750000   270.67078     -401.50156     -310.85038     -401.48577      0              6651.1855      31.007999      21.374731      32.510718      21547.702      5927.4145      7907.3535      6118.7887     -333.28796     -783.51283      523.52346    
  30752000   277.70689     -402.17373     -309.16607     -402.22998      0              4792.1087      31.007999      21.374731      32.530884      21561.068      4594.0409      4935.1699      4847.1153     -1006.4963      215.98933     -1957.9966    
  30754000   285.5204      -401.94074     -306.31624     -401.95727      0              6493.1529      31.007999      21.374731      32.487439      21532.273      7807.7476      7264.0508      4407.6603     -1700.4168     -53.241274     -874.24838    
  30756000   275.10275     -404.99551     -312.86001     -404.98494      0              6232.4926      31.007999      21.374731      32.40754       21479.317      5337.0374      8003.9817      5356.4585     -1010.3795      101.39552      1020.9376    
  30758000   274.76276     -399.45198     -307.43035     -399.47845      0              6265.7514      31.007999      21.374731      32.403701      21476.773      8139.5289      5080.6661      5577.0592      1276.5626     -735.52431      561.1086     
  30760000   275.42328     -404.61028     -312.36743     -404.62599      0              7457.8059      31.007999      21.374731      32.287174      21399.54       8732.7778      6247.7805      7392.8594     -127.27414     -968.86834      273.7508     
  30762000   274.7452      -403.95698     -311.94123     -403.9826       0              6398.6472      31.007999      21.374731      32.451688      21508.578      6810.1888      6805.9845      5579.7684      28.967946      5.5815067      568.24336    
  30764000   283.00782     -400.79119     -306.00818     -400.80429      0              4944.2754      31.007999      21.374731      32.495397      21537.547      6508.31        3910.9995      4413.5168      855.64704      271.10129      465.94804    
  30766000   272.57616     -407.14414     -315.85483     -407.17618      0              5406.8614      31.007999      21.374731      32.421588      21488.627      5695.0679      5220.2541      5305.2622     -1294          -60.740084      342.57949    
  30768000   282.67557     -401.48203     -306.81029     -401.57329      0              3119.4585      31.007999      21.374731      32.50049       21540.923      2883.1873      3528.9539      2946.2344     -619.65295     -962.06244     -440.77753    
  30770000   277.4138      -398.44276     -305.53326     -398.47095      0              8106.2772      31.007999      21.374731      32.465198      21517.532      7153.8763      10141.101      7023.8545     -1389.9136      793.17696      66.546603    
  30772000   270.20795     -399.16617     -308.67001     -399.2411       0              7137.9617      31.007999      21.374731      32.570413      21587.267      6835.7031      7972.6318      6605.5501      176.09644     -426.02852      484.95682    
  30774000   274.41737     -398.78053     -306.87458     -398.79925      0              4950.7935      31.007999      21.374731      32.72667       21690.832      5992.6849      5096.8129      3762.8827      752.52925     -1233.0859      175.55673    
  30776000   273.2397      -400.28587     -308.77433     -400.30306      0              5251.453       31.007999      21.374731      32.468346      21519.618      3897.7714      5024.7755      6831.8119     -343.41059     -468.53898     -1039.3231    
  30778000   274.62993     -401.50417     -309.52702     -401.53231      0              7708.0339      31.007999      21.374731      32.688225      21665.351      7580.6288      7032.6659      8510.8071      191.73911     -554.9075       687.7669     
  30780000   274.68672     -402.26157     -310.26541     -402.29213      0              6012.0352      31.007999      21.374731      32.739885      21699.591      7779.6433      3318.4532      6938.009      -164.03833      739.92343      592.10866    
  30782000   273.28202     -400.91666     -309.39095     -400.94822      0              5664.8303      31.007999      21.374731      32.715552      21683.464      6164.6572      6056.049       4773.7847     -470.22419      1292.3621     -2125.2409    
  30784000   275.80907     -400.91024     -308.53819     -400.92074      0              6510.0776      31.007999      21.374731      32.664007      21649.3        7432.0038      5867.6098      6230.6192     -47.836916     -929.94108     -372.50833    
  30786000   278.90643     -403.58715     -310.17775     -403.57428      0              5667.5355      31.007999      21.374731      32.465168      21517.512      7128.1922      4936.1489      4938.2653      1431.912      -2036.323      -507.79702    
  30788000   277.79405     -403.0557      -310.01885     -403.03008      0              6039.6153      31.007999      21.374731      32.554864      21576.961      6439.9993      6906.2006      4772.6459      823.69107      816.23693      788.22737    
  30790000   276.71779     -397.60438     -304.92799     -397.60597      0              5994.2616      31.007999      21.374731      32.666756      21651.122      6459.3043      6921.8163      4601.6642      603.94234      82.932856      727.69011    
  30792000   270.28055     -400.20562     -309.68514     -400.24602      0              4839.061       31.007999      21.374731      32.782313      21727.712      5391.1739      4787.2302      4338.7791      217.43409     -58.146965     -430.48264    
  30794000   277.59627     -400.85581     -307.8852      -400.88535      0              5755.9653      31.007999      21.374731      32.605774      21610.704      5153.8626      5477.2708      6636.7623     -653.39248      540.60297      392.64973    
  30796000   276.15796     -404.3366      -311.8477      -404.33183      0              7872.9708      31.007999      21.374731      32.60178       21608.057      8683.9463      7306.4312      7628.5351      390.06026     -1444.6365      1418.4367    
  30798000   278.95743     -401.05138     -307.6249      -401.08681      0              5537.7274      31.007999      21.374731      32.910457      21812.644      4519.4683      6964.5621      5129.1518     -156.46742     -150.42497      1625.2414    
  30800000   269.31609     -401.43757     -311.2401      -401.3971       0              5180.708       31.007999      21.374731      32.855304      21776.089      5821.3958      6300.4284      3420.2997     -551.13723     -175.94156     -153.85433    
  30802000   269.97143     -400.42549     -310.00854     -400.44458      0              6367.6053      31.007999      21.374731      32.923085      21821.014      7308.8141      5635.1977      6158.8041     -970.29004      601.28179     -258.19379    
  30804000   279.35947     -399.79952     -306.2384      -399.88424      0              4172.7791      31.007999      21.374731      32.772369      21721.121      4972.668       4217.4435      3328.2257     -585.25304     -1059.4141      871.76996    
  30806000   276.89418     -401.9044      -309.16893     -401.93089      0              8677.6055      31.007999      21.374731      32.779924      21726.128      8234.6816      8278.074       9520.0608      196.6705      -386.99378     -435.62299    
  30808000   275.86616     -403.31301     -310.92184     -403.31812      0              5764.2988      31.007999      21.374731      32.615996      21617.479      6266.6896      3911.0668      7115.1401     -832.52347     -1737.7934     -666.25482    
  30810000   276.09647     -399.95033     -307.48203     -399.99832      0              6889.246       31.007999      21.374731      32.518041      21552.556      7095.4537      5811.8761      7760.4083     -837.34725     -1669.4635     -982.57237    
  30812000   275.71281     -402.90729     -310.56748     -402.87891      0              7742.0497      31.007999      21.374731      32.756039      21710.298      6928.3487      7837.008       8460.7926     -137.13635      1115.3299     -1252.9767    
  30814000   268.36954     -402.65224     -312.77178     -402.69912      0              5261.1779      31.007999      21.374731      32.674428      21656.207      5973.7119      5264.5422      4545.2797     -1079.0087      93.363337      0.24300752   
  30816000   277.55296     -399.10857     -306.15246     -399.15233      0              5075.0523      31.007999      21.374731      32.623559      21622.491      6753.9449      4638.8261      3832.3858     -623.62992      1280.3813      1025.3662    
  30818000   271.12402     -399.96588     -309.16291     -400.02433      0              6632.4349      31.007999      21.374731      32.622098      21621.523      8322.8393      6473.3582      5101.1074     -2085.2058     -27.403611     -1281.1492    
  30820000   284.09394     -402.83315     -307.68639     -402.86097      0              7288.2248      31.007999      21.374731      32.400352      21474.552      4296.6347      7910.3567      9657.6828     -1567.978       731.00355     -1413.772     
  30822000   274.36819     -403.17114     -311.28166     -403.17533      0              6724.1299      31.007999      21.374731      32.456633      21511.855      7306.6572      8050.5611      4815.1715      62.712028      433.46536      1085.6408    
  30824000   273.38805     -401.89994     -310.33872     -401.87758      0              6829.9065      31.007999      21.374731      32.393354      21469.914      5607.9386      6329.7213      8552.0596     -484.27749     -496.80028      2027.6592    
  30826000   273.8881      -401.27107     -309.54237     -401.2943       0              6120.9318      31.007999      21.374731      32.459716      21513.898      4262.3375      5393.74        8706.718       355.19028      107.95521     -239.5998     
  30828000   278.98772     -401.3312      -307.89458     -401.33994      0              6409.9009      31.007999      21.374731      32.400316      21474.529      8128.0632      4455.9349      6645.7046      528.94403      62.064083     -579.39327    
  30830000   278.00989     -402.52996     -309.42083     -402.55249      0              7220.5964      31.007999      21.374731      32.563689      21582.811      6392.5755      8787.0537      6482.1601     -260.77171     -100.10527      190.57432    
  30832000   270.81828     -400.25954     -309.55896     -400.27404      0              5547.834       31.007999      21.374731      32.635619      21630.485      5521.7896      5860.6409      5261.0713     -1779.5984      919.02319     -500.30778    
  30834000   275.07957     -400.8084      -308.68067     -400.81347      0              7282.2373      31.007999      21.374731      32.603888      21609.454      8428.5343      6365.83        7052.3476      192.27635      1291.8173      365.53033    
  30836000   277.30017     -402.34053     -309.46909     -402.36236      0              5968.2639      31.007999      21.374731      32.888159      21797.865      5912.0752      4758.4864      7234.2302     -577.66369      870.31612      40.180995    
  30838000   271.56887     -400.84541     -309.89346     -400.8813       0              6176.8857      31.007999      21.374731      32.671956      21654.569      7911.3779      6040.5079      4578.7712     -1135.8552     -208.3769       2712.3195    
  30840000   272.49453     -403.89437     -312.6324      -403.92678      0              7306.9737      31.007999      21.374731      32.640111      21633.462      7879.126       7850.1105      6191.6847     -936.81537     -30.234527     -508.34293    
  30842000   272.79794     -400.74385     -309.38026     -400.76299      0              7302.2465      31.007999      21.374731      32.636739      21631.227      5853.4017      9305.0043      6748.3334     -288.69097      915.47915     -640.74773    
  30844000   276.97489     -395.58474     -302.82224     -395.59198      0              8319.6646      31.007999      21.374731      32.619891      21620.061      7367.2454      7688.7564      9902.9919      214.82004      699.91941     -965.3551     
  30846000   276.80323     -401.26125     -308.55624     -401.26973      0              5264.8933      31.007999      21.374731      32.610521      21613.85       5337.3586      3933.1935      6524.1277     -145.65843     -514.45726     -481.0924     
  30848000   281.16912     -397.48134     -303.31414     -397.5076       0              6553.0521      31.007999      21.374731      32.623754      21622.621      7905.6372      5286.0931      6467.4262     -1886.7634      171.16824      435.11864    
  30850000   274.92567     -399.49796     -307.42177     -399.45091      0              6212.2179      31.007999      21.374731      32.498284      21539.461      4327.0982      6197.0428      8112.5127     -37.505891      1437.7702      1164.2568    
  30852000   282.70365     -402.16654     -307.4854      -402.16651      0              7308.8515      31.007999      21.374731      32.729341      21692.602      6746.1585      7833.816       7346.5801      407.62727     -132.42169     -421.79041    
  30854000   277.72025     -402.27249     -309.26036     -402.2959       0              6061.6068      31.007999      21.374731      32.793538      21735.152      5565.9917      5234.3191      7384.5095      370.97221     -25.745003     -205.30726    
  30856000   274.08808     -402.10705     -310.31138     -402.1412       0              3992.5112      31.007999      21.374731      32.571366      21587.899      5276.8541      2873.5044      3827.175      -1253.7515      565.53073      280.12667    
  30858000   271.74839     -399.52152     -308.50944     -399.52367      0              6859.7508      31.007999      21.374731      32.584393      21596.533      7453.5623      6418.8376      6706.8526     -593.93424      1417.0512     -575.31853    
  30860000   279.21393     -399.69169     -306.17931     -399.69862      0              3448.1583      31.007999      21.374731      32.63247       21628.398      2522.4599      4993.6211      2828.394      -769.2014      -344.42387     -1092.3061    
  30862000   277.90468     -398.67163     -305.59773     -398.77656      0              5413.2502      31.007999      21.374731      32.617401      21618.41       6086.8473      4221.2266      5931.6767      473.95037     -1728.1245      455.90345    
  30864000   275.0393      -403.15172     -311.03747     -403.18764      0              7477.5087      31.007999      21.374731      32.311531      21415.683      8867.5566      6638.0061      6926.9634      712.05366      548.09295     -619.83391    
  30866000   272.00997     -402.52889     -311.42921     -402.54754      0              4713.2207      31.007999      21.374731      32.542035      21568.459      3663.0134      3127.8321      7348.8165      786.90411      398.23202      226.58108    
  30868000   276.47975     -399.77485     -307.17817     -399.78284      0              5369.4346      31.007999      21.374731      32.653689      21642.461      5588.1188      3840.2578      6679.9272      711.54232     -616.12427      476.06284    
  30870000   277.18444     -396.20018     -303.3675      -396.22079      0              4979.077       31.007999      21.374731      32.70539       21676.728      4306.8491      3689.2861      6941.0956      1798.3834     -648.64554     -591.346      
  30872000   276.62832     -399.44763     -306.8012      -399.45289      0              6144.5341      31.007999      21.374731      32.684798      21663.08       5701.2603      5678.0015      7054.3406      452.05345     -470.20371     -962.20839    
  30874000   274.80457     -400.20225     -308.16662     -400.24213      0              5790.4113      31.007999      21.374731      32.774094      21722.264      5978.8977      4402.6626      6989.6737     -932.97813     -136.39427      697.39977    
  30876000   277.45537     -401.75694     -308.83352     -401.78851      0              6523.7264      31.007999      21.374731      32.702719      21674.958      7290.4338      6028.3791      6252.3663      797.29404     -564.9242       1099.9848    
  30878000   266.35449     -401.92631     -312.72071     -401.92737      0              4795.9995      31.007999      21.374731      32.810429      21746.347      4697.6372      3133.5457      6556.8155     -946.46088      904.13274      247.17878    
  30880000   274.69686     -401.85784     -309.85828     -401.89589      0              5930.9499      31.007999      21.374731      32.787808      21731.354      6602.0336      5816.5266      5374.2894      3.437959      -1116.7549      2000.5671    
  30882000   268.61803     -399.30671     -309.34303     -399.30854      0              5445.2895      31.007999      21.374731      32.978374      21857.659      4299.5704      5767.0097      6269.2884     -1114.0877     -1064.6602      759.38774    
  30884000   274.19968     -402.24229     -310.40924     -402.2046       0              6961.3903      31.007999      21.374731      32.925907      21822.884      6007.6247      7369.3347      7507.2116     -126.24735      76.240475     -548.18821    
  30886000   278.22382     -401.89856     -308.71777     -401.86899      0              5005.7685      31.007999      21.374731      32.624667      21623.226      6206.8635      3135.246       5675.1961     -1562.3506     -1375.8794      954.28555    
  30888000   271.4764      -401.47085     -310.54987     -401.44464      0              6168.9197      31.007999      21.374731      32.614823      21616.701      5086.077       5808.6716      7612.0105      419.53836      377.60766      1718.0269    
  30890000   277.1037      -403.14785     -310.34221     -403.09417      0              3629.0837      31.007999      21.374731      32.521763      21555.022      3157.8709      5174.2616      2555.1186     -879.9665       163.26378      761.13476    
  30892000   268.40225     -399.84531     -309.9539      -399.84186      0              5458.5931      31.007999      21.374731      32.735789      21696.876      5483.0833      3622.1588      7270.5372     -985.5172      -1704.3923      1454.7055    
  30894000   271.67463     -401.01784     -310.03047     -401.02136      0              5150.486       31.007999      21.374731      32.666631      21651.039      4588.3088      6208.5896      4654.5596      1204.3662      283.51357      2411.5096    
  30896000   268.91596     -403.62895     -313.56549     -403.61352      0              4413.498       31.007999      21.374731      32.847279      21770.771      4942.9087      4088.8058      4208.7796      1685.5902     -1776.5783      1404.2711    
  30898000   280.12817     -401.92188     -308.1033      -401.85833      0              8201.834       31.007999      21.374731      32.622827      21622.006      8226.1145      6877.8212      9501.5661     -978.81916     -513.0262       2362.4247    
  30900000   277.54723     -401.15299     -308.19881     -401.11482      0              4605.4224      31.007999      21.374731      32.742142      21701.087      1946.5683      5828.1656      6041.5331      1828.5707     -441.10306      1225.6376    
  30902000   270.74205     -400.84275     -310.16771     -400.84548      0              6861.4654      31.007999      21.374731      32.785222      21729.64       6951.4142      7453.151       6179.831       123.01863     -759.14986      791.03186    
  30904000   275.9642      -403.71569     -311.29168     -403.69959      0              4675.6187      31.007999      21.374731      32.950515      21839.194      5476.8658      4590.6639      3959.3265      171.98439      156.49982      1028.5516    
  30906000   269.27356     -399.65888     -309.47565     -399.61872      0              4616.2908      31.007999      21.374731      32.966836      21850.012      5272.319       5235.7253      3340.8283     -386.8625       1488.7765      352.82777    
  30908000   273.96604     -400.12823     -308.37344     -400.12904      0              6090.2984      31.007999      21.374731      32.80571       21743.219      5798.6636      7426.2724      5045.959       1445.5071     -1351.2554      172.26251    
  30910000   285.29309     -402.30782     -306.75945     -402.2516       0              6308.4791      31.007999      21.374731      32.904793      21808.89       7050.3543      4649.4043      7225.6788      1493.8055      1332.8748      1908.6958    
  30912000   275.3445      -400.31701     -308.10054     -400.27291      0              6320.9731      31.007999      21.374731      32.831757      21760.483      6672.1807      6040.6096      6250.129      -984.74039     -289.23359     -105.3941     
  30914000   267.97502     -404.68502     -314.9367      -404.63765      0              5206.5183      31.007999      21.374731      32.868409      21784.775      3085.4942      7627.9396      4906.1211      1333.3414      1592.3056      90.992983    
  30916000   268.64192     -402.96858     -312.9969      -402.98797      0              5052.8593      31.007999      21.374731      33.03008       21891.929      4460.3452      5947.3618      4750.8709     -463.45021      249.75416      802.62801    
  30918000   268.81028     -399.95663     -309.92856     -399.91395      0              5518.4569      31.007999      21.374731      32.782515      21727.845      3740.1448      5421.8666      7393.3592     -1430.217       980.46804     -943.99745    
  30920000   270.45317     -404.46158     -313.88328     -404.43941      0              5504.2501      31.007999      21.374731      32.878686      21791.586      5591.29        5370.4527      5551.0074      719.65171      1849.7288      962.32205    
  30922000   274.36234     -402.04108     -310.15356     -402.04027      0              4716.7349      31.007999      21.374731      32.902745      21807.533      3343.4157      5644.1597      5162.6292      1175.1867      76.019528      1271.7161    
  30924000   273.33378     -401.35454     -309.81149     -401.33503      0              4923.2533      31.007999      21.374731      32.702749      21674.978      5130.7153      4760.061       4878.9836      1015.9706     -610.72575     -810.27168    
  30926000   272.98537     -402.2152      -310.78885     -402.18567      0              4498.0582      31.007999      21.374731      32.81381       21748.588      4935.5302      3534.4434      5024.201      -1172.0276     -2657.2487      1637.9327    
  30928000   275.98864     -404.38326     -311.95106     -404.39025      0              4672.2231      31.007999      21.374731      32.902915      21807.646      4862.902       5910.3524      3243.415      -223.96058      48.606878     -421.96435    
  30930000   277.90765     -401.12304     -308.04815     -401.11947      0              8611.0418      31.007999      21.374731      32.876235      21789.962      10242.856      7326.7404      8263.529       1120.6429     -740.97268      2402.4861    
  30932000   280.77118     -401.64088     -307.60696     -401.59382      0              5747.6275      31.007999      21.374731      32.686588      21664.266      6457.8244      6199.2661      4585.7919      323.49753     -567.60289      1131.5481    
  30934000   274.77897     -401.33989     -309.31283     -401.29418      0              10396.091      31.007999      21.374731      32.602904      21608.802      9605.0572      10264.47       11318.744     -1030.5775     -451.75701     -1256.7103    
  30936000   271.34356     -402.27509     -311.39859     -402.24367      0              6292.581       31.007999      21.374731      32.527857      21559.061      6835.4448      7842.2803      4200.018       474.53634     -570.17684     -2599.5086    
  30938000   280.2075      -402.19449     -308.34934     -402.15066      0              6162.2123      31.007999      21.374731      32.597449      21605.186      4695.3793      7927.9289      5863.3287     -577.26172     -888.61972      1245.3332    
  30940000   270.03205     -401.38512     -310.94787     -401.35756      0              8009.8498      31.007999      21.374731      32.649182      21639.475      9180.0684      6775.2625      8074.2184     -584.82777      1378.5892      1191.0392    
  30942000   274.25471     -400.24442     -308.39294     -400.25018      0              4900.5281      31.007999      21.374731      32.704357      21676.043      5991.3512      4516.8226      4193.4106     -519.6943      -939.56258      138.61374    
  30944000   279.71237     -402.40748     -308.72817     -402.45016      0              4102.8335      31.007999      21.374731      32.801581      21740.482      5523.9007      4624.4629      2160.1368      380.38102      151.78895      379.59122    
  30946000   282.0472      -402.94844     -308.48715     -402.92264      0              1852.1312      31.007999      21.374731      32.798002      21738.11       3329.8719      354.39146      1872.1303      520.94888      1429.3131      636.00808    
  30948000   281.85884     -402.5986      -308.2004      -402.55375      0              6876.0576      31.007999      21.374731      32.815178      21749.494      5663.9487      8584.6881      6379.5361     -606.75294      416.67052      1120.7748    
  30950000   273.70467     -401.14418     -309.47692     -401.12956      0              6245.7426      31.007999      21.374731      32.66704       21651.31       7171.313       5913.3285      5652.5862     -670.89253     -212.34023      604.70343    
  30952000   277.6242      -400.08271     -307.10275     -400.07783      0              6480.0205      31.007999      21.374731      32.604739      21610.018      6413.9504      6469.6878      6556.4231     -289.00197     -572.25984      1465.02      
  30954000   279.13115     -399.29651     -305.81185     -399.28348      0              6027.6627      31.007999      21.374731      32.851027      21773.254      5479.9967      6395.2408      6207.7506      314.7809       1502.8082     -386.46102    
  30956000   272.40368     -402.35584     -311.12429     -402.29551      0              5310.7027      31.007999      21.374731      32.803132      21741.51       7586.755       4127.7754      4217.5777     -810.15992     -673.70821      1608.3922    
  30958000   276.56559     -401.45006     -308.82464     -401.43081      0              6400.643       31.007999      21.374731      32.742271      21701.173      5667.9095      7027.852       6506.1676      804.33777      1180.5185      1380.016     
  30960000   276.33191     -401.34735     -308.80019     -401.31196      0              6522.555       31.007999      21.374731      32.774601      21722.6        5476.744       6605.2412      7485.6798      87.708353      195.43824     -635.95486    
  30962000   273.28194     -398.67436     -307.14868     -398.63381      0              7503.0981      31.007999      21.374731      32.720643      21686.837      8682.1088      7464.1323      6363.0532     -1086.5118      1201.1364      7.7659325    
  30964000   280.85856     -400.59592     -306.53273     -400.56308      0              6102.4418      31.007999      21.374731      32.814045      21748.743      8045.9406      4854.2151      5407.1699      949.92543      120.31225      42.118602    
  30966000   287.05576     -403.91163     -307.77291     -403.86492      0              4698.9147      31.007999      21.374731      32.800705      21739.902      5271.9703      5340.7346      3484.0393     -610.90781     -678.80997     -220.98723    
  30968000   274.57995     -400.88562     -308.92522     -400.85395      0              3648.9443      31.007999      21.374731      32.787775      21731.332      2680.3639      4360.8934      3905.5755     -641.5468      -1151.1552      338.86018    
  30970000   279.08409     -403.19702     -309.72812     -403.15848      0              6834.8176      31.007999      21.374731      32.697661      21671.606      7723.5264      5805.1294      6975.7969      379.94238     -97.743188      127.82932    
  30972000   270.54184     -402.42244     -311.81446     -402.37344      0              6811.8397      31.007999      21.374731      32.596615      21604.634      4683.479       7670.5985      8081.4417     -1099.6528      462.14892     -468.95232    
  30974000   274.17496     -404.39052     -312.56575     -404.32676      0              6753.5542      31.007999      21.374731      32.552413      21575.337      6967.3964      7800.3423      5492.924      -435.91611     -682.5037      -883.31806    
  30976000   277.82603     -401.67366     -308.6261      -401.62546      0              4171.5151      31.007999      21.374731      32.660447      21646.941      3386.3027      3450.8727      5677.3699      721.90754      1315.771       487.87199    
  30978000   279.78077     -402.57518     -308.87296     -402.54337      0              5890.894       31.007999      21.374731      32.643111      21635.45       3289.5565      5290.7203      9092.4051     -1709.8804     -98.65447       2377.0832    
  30980000   264.76762     -399.123       -310.44887     -399.07434      0              5226.2937      31.007999      21.374731      32.581451      21594.583      3130.3599      5608.3376      6940.1836      1528.5998      152.13346     -955.48629    
  30982000   278.23688     -400.9717      -307.78654     -400.92911      0              5737.5614      31.007999      21.374731      32.580373      21593.869      5793.0658      6360.022       5059.5964      1129.8601      751.14268      766.45985    
  30984000   274.8718      -402.17523     -310.11708     -402.11057      0              6329.9856      31.007999      21.374731      32.434178      21496.972      6686.9533      6021.2942      6281.7094      1900.6645     -1027.5903      135.0323     
  30986000   272.12557     -401.70499     -310.56659     -401.6587       0              7318.3864      31.007999      21.374731      32.602598      21608.599      8339.3145      6158.2221      7457.6227     -117.20989     -632.57856      1665.7748    
  30988000   267.57638     -403.72983     -314.11502     -403.67362      0              5316.3831      31.007999      21.374731      32.689832      21666.416      4558.0911      6376.724       5014.3342      160.47494      472.5438       1554.5609    
  30990000   263.83889     -399.36247     -310.99939     -399.32361      0              5384.2183      31.007999      21.374731      32.929939      21825.557      5981.3401      7158.2653      3013.0497      509.79469     -1102.0385      1799.9847    
  30992000   278.29199     -404.749       -311.54539     -404.66112      0              7645.7387      31.007999      21.374731      32.698011      21671.838      5906.4378      6936.0525      10094.726      111.77803      1040.4153      518.98508    
  30994000   274.67234     -400.4723      -308.48095     -400.40336      0              5314.7911      31.007999      21.374731      32.728212      21691.854      7469.1088      3220.0514      5255.2132     -289.40301     -1987.0629      603.77085    
  30996000   276.85356     -400.7076      -307.98574     -400.66348      0              3630.436       31.007999      21.374731      32.93428       21828.434      2491.1797      4390.4538      4009.6744      331.33621     -721.30562     -514.48289    
  30998000   271.92081     -405.98313     -314.91331     -405.89745      0              5752.4187      31.007999      21.374731      32.757867      21711.51       4973.7315      6237.2817      6046.2429      537.79275     -244.13938     -506.4589     
  31000000   270.9417      -403.23624     -312.49433     -403.18799      0              4441.9902      31.007999      21.374731      32.736884      21697.602      4797.3091      3826.2829      4702.3784     -690.29052     -905.4343      -340.17092    
  31002000   270.95328     -403.1408      -312.39501     -403.09498      0              7907.4166      31.007999      21.374731      32.563087      21582.412      7707.1562      7271.8203      8743.2734      1231.012      -270.74296     -510.91133    
  31004000   277.6719      -403.10297     -310.10703     -403.04661      0              4825.0793      31.007999      21.374731      32.741246      21700.493      6324.0275      3820.4435      4330.7668      250.01716      1817.1686     -1108.9361    
  31006000   281.81308     -402.54683     -308.16396     -402.49591      0              5850.0399      31.007999      21.374731      32.796663      21737.223      5606.6038      5153.3605      6790.1553      162.28182     -553.31106     -1323.0576    
  31008000   269.71183     -401.772       -311.44199     -401.73235      0              6378.3112      31.007999      21.374731      32.8251        21756.071      6489.0731      6336.2794      6309.581       1387.9533      300.81096      1123.0121    
  31010000   268.43218     -402.60727     -312.70583     -402.59569      0              7247.4042      31.007999      21.374731      32.88676       21796.938      7421.1477      5118.4071      9202.6579     -1279.6654     -156.63011     -618.74439    
  31012000   272.9353      -403.69782     -312.28823     -403.6803       0              5559.7221      31.007999      21.374731      32.837273      21764.139      6041.0212      5605.6027      5032.5423     -108.57826      1682.0088      647.17454    
  31014000   273.51413     -405.61433     -314.01088     -405.5896       0              6393.1419      31.007999      21.374731      32.80875       21745.234      7955.7662      4492.5968      6731.0626     -945.63413     -446.04361      470.13126    
  31016000   279.38427     -405.04881     -311.47938     -405.00405      0              4763.8977      31.007999      21.374731      32.802445      21741.055      4643.9217      4926.1485      4721.623      -1755.8887      187.22374     -651.98939    
  31018000   269.1002      -401.80907     -311.6839      -401.74694      0              5708.0407      31.007999      21.374731      32.699279      21672.678      5554.7426      7033.712       4535.6676      552.97278      1152.8989      223.39141    
  31020000   276.64035     -403.4865      -310.83604     -403.40092      0              6978.9192      31.007999      21.374731      32.451857      21508.69       6402.6886      6698.5905      7835.4784      1765.6396      1631.6844     -472.97196    
  31022000   276.99934     -400.66046     -307.88977     -400.64113      0              4597.7841      31.007999      21.374731      32.723292      21688.593      1730.0548      5347.4195      6715.878      -1354.1682      1299.4348      1324.0493    
  31024000   282.46973     -404.86166     -310.25886     -404.81467      0              4749.0743      31.007999      21.374731      32.691733      21667.677      3505.2748      5759.5851      4982.363      -552.87141     -187.57053     -102.11948    
  31026000   272.12518     -405.18805     -314.04978     -405.17416      0              6680.488       31.007999      21.374731      32.655788      21643.852      5961.2043      8782.7959      5297.4638     -131.3159       733.37912      855.417      
  31028000   275.61642     -401.87803     -309.5705      -401.86687      0              4536.7137      31.007999      21.374731      32.693399      21668.781      5318.1047      4094.3928      4197.6436      638.52288      753.31731      248.39915    
  31030000   265.75472     -399.53959     -310.53487     -399.49588      0              5976.7217      31.007999      21.374731      32.561049      21581.061      7052.2943      7913.8006      2964.0703     -346.59469     -705.95307     -3277.1069    
  31032000   269.93659     -401.1811      -310.77581     -401.12187      0              5530.4308      31.007999      21.374731      32.578738      21592.785      5996.8166      6577.4372      4017.0385      2422.1434     -308.1727      -547.61256    
  31034000   268.95918     -405.07955     -315.00162     -405.01405      0              6128.2012      31.007999      21.374731      32.609798      21613.371      6474.7649      4777.7723      7132.0666      797.77484     -416.86578      671.41167    
  31036000   270.8222      -403.69458     -312.9927      -403.64433      0              7763.5098      31.007999      21.374731      32.587566      21598.636      7045.727       7669.831       8574.9715      1535.8704      379.52115      265.00358    
  31038000   273.0043      -401.16191     -309.72921     -401.08615      0              4862.3389      31.007999      21.374731      32.638106      21632.133      3073.9787      6302.3363      5210.7017      1674.4877     -162.52399      310.23871    
  31040000   276.68865     -403.99106     -311.32443     -403.95914      0              6502.9493      31.007999      21.374731      32.67111       21654.008      6517.4264      7350.6907      5640.7307      268.71713      425.60753     -3160.6484    
  31042000   271.30723     -400.07608     -309.21175     -400.0621       0              5240.3788      31.007999      21.374731      32.702126      21674.565      6669.4961      2184.7424      6866.898      -529.63796     -131.8268       169.73624    
  31044000   272.29957     -402.72849     -311.53181     -402.73335      0              7325.4089      31.007999      21.374731      32.685143      21663.309      7258.5162      8157.764       6559.9464     -131.68098     -433.82367      1111.8494    
  31046000   278.3928      -403.34066     -310.10328     -403.30895      0              4681.7223      31.007999      21.374731      32.887505      21797.432      2980.8663      5662.4898      5401.8106     -1967.4921      1652.9307      751.14573    
  31048000   268.90203     -404.2685      -314.2097      -404.22877      0              7142.0487      31.007999      21.374731      32.862355      21780.763      6839.8255      8055.3189      6531.0016     -393.7701      -460.77132     -27.382396    
  31050000   273.96012     -401.04387     -309.29105     -400.99981      0              4175.5567      31.007999      21.374731      32.739679      21699.454      3517.6077      4887.8884      4121.1741     -1372.6308     -363.57608     -280.43208    
  31052000   271.94951     -400.93754     -309.85811     -400.90824      0              6582.6309      31.007999      21.374731      32.954684      21841.957      8030.8756      5906.1845      5810.8327      463.98574     -227.53741     -264.93552    
  31054000   269.2376      -401.08901     -310.91783     -401.074        0              7297.4694      31.007999      21.374731      32.75619       21710.398      6644.3578      8822.6788      6425.3715      156.5509       877.4814      -338.14432    
  31056000   276.09487     -400.7547      -308.28693     -400.76072      0              5962.8096      31.007999      21.374731      33.068012      21917.069      5576.7278      5078.2037      7233.4975      345.89105      881.58122      32.29241     
  31058000   280.17026     -403.27482     -309.44214     -403.29882      0              5381.12        31.007999      21.374731      33.115885      21948.799      5542.0711      6366.3009      4234.988       609.03268      568.97487     -1159.6141    
  31060000   280.20087     -405.05846     -311.21554     -405.0809       0              5244.4179      31.007999      21.374731      32.835314      21762.84       7276.005       3805.6231      4651.6256      110.7289      -903.70563     -454.51879    
  31062000   283.7364      -401.93396     -306.90694     -401.89998      0              5999.2152      31.007999      21.374731      32.769198      21719.019      5891.7064      4959.2948      7146.6444     -614.40173      457.74106      66.59061     
  31064000   276.96593     -402.58359     -309.82409     -402.5454       0              5948.4072      31.007999      21.374731      32.690902      21667.126      6983.8481      6006.7931      4854.5804     -1146.0859      38.101813     -863.99276    
  31066000   265.25653     -401.34775     -312.50988     -401.31471      0              6909.8466      31.007999      21.374731      32.719007      21685.753      6996.46        8286.5834      5446.4965      185.57285     -2174.8898      350.08577    
  31068000   279.72286     -402.56156     -308.87872     -402.5076       0              4499.6137      31.007999      21.374731      32.850834      21773.127      4499.2016      5282.2663      3717.3733     -856.47407     -224.57721     -84.733542    
  31070000   275.39038     -403.22909     -310.99726     -403.255        0              7414.1429      31.007999      21.374731      32.626539      21624.467      5935.4548      8238.578       8068.3959      732.33625      1060.5013     -95.792944    
  31072000   273.44524     -402.89952     -311.31915     -402.98763      0              2236.3058      31.007999      21.374731      32.627314      21624.98       1346.5776      2292.4899      3069.85       -234.34719     -487.5962       61.211731    
  31074000   270.68237     -398.69152     -308.03646     -398.68509      0              5629.8741      31.007999      21.374731      32.788408      21731.752      5061.8925      6718.3834      5109.3462     -71.805506      245.58583     -694.99759    
  31076000   277.06274     -399.36403     -306.57211     -399.34532      0              8296.8388      31.007999      21.374731      32.571188      21587.781      9811.6748      7574.6786      7504.1629     -1845.5501     -419.00692     -792.78815    
  31078000   278.91957     -401.75366     -308.33986     -401.76379      0              6307.5224      31.007999      21.374731      32.549576      21573.457      6135.0118      6158.3917      6629.1636     -245.68973      466.42211     -2414.437     
  31080000   268.63266     -400.45705     -310.48847     -400.42272      0              5704.7841      31.007999      21.374731      32.574267      21589.821      5425.3878      4777.3711      6911.5933     -461.22313      359.64095     -102.71786    
  31082000   278.82791     -401.13131     -307.74821     -401.10417      0              6627.0304      31.007999      21.374731      32.591945      21601.538      6841.4106      6609.3667      6430.3139      8.4576563      372.77681      8.0044103    
  31084000   278.19089     -400.92084     -307.75109     -400.93293      0              5568.9655      31.007999      21.374731      32.850714      21773.047      4575.0255      5828.5411      6303.3299      603.76838      2145.8482      404.98076    
  31086000   269.09329     -399.73022     -309.60737     -399.75593      0              5458.3619      31.007999      21.374731      32.84431       21768.802      5372.3316      7479.2981      3523.4559      457.02621      2003.477      -725.58065    
  31088000   278.99519     -401.00722     -307.5681      -400.98943      0              6292.1763      31.007999      21.374731      32.775205      21723.001      5516.7222      4170.9044      9188.9024      2155.0236      681.24139      947.89902    
  31090000   272.80364     -402.68324     -311.31774     -402.70626      0              7100.9185      31.007999      21.374731      32.831175      21760.097      6075.9964      8288.4462      6938.3129     -254.97329      1116.7905      1269.9725    
  31092000   282.28813     -402.09124     -307.54927     -402.04791      0              5720.5004      31.007999      21.374731      32.959128      21844.903      6026.5239      4627.1994      6507.7778      1621.613      -1683.4502      30.147561    
  31094000   276.05446     -401.70392     -309.24968     -401.73031      0              7281.0432      31.007999      21.374731      32.844642      21769.022      5561.1416      8357.6618      7924.3263      1813.7985      1393.4285     -607.44209    
  31096000   266.99231     -400.9852      -311.566       -400.9521       0              6895.0482      31.007999      21.374731      32.680125      21659.983      5821.3758      6996.9199      7866.8488      389.86587      915.42449     -202.74633    
  31098000   277.58643     -402.72765     -309.76034     -402.72054      0              6985.7819      31.007999      21.374731      32.71825       21685.251      5753.6779      8313.0773      6890.5904      1504.6852     -164.36504     -597.95023    
  31100000   272.36502     -401.435       -310.21641     -401.41393      0              4540.4165      31.007999      21.374731      32.952884      21840.764      6281.0794      4769.9004      2570.2697     -605.86641     -1603.5028     -437.55866    
  31102000   278.563       -402.44625     -309.15187     -402.4483       0              5911.7956      31.007999      21.374731      32.817849      21751.265      4061.8332      7176.3636      6497.1899      2082.6935      668.68513     -1380.1057    
  31104000   277.52552     -398.85361     -305.9067      -398.86375      0              5577.7865      31.007999      21.374731      32.931245      21826.422      6595.896       4711.3719      5426.0915     -1975.208      -459.20559     -226.50511    
  31106000   279.98086     -399.52383     -305.75459     -399.55153      0              5598.7759      31.007999      21.374731      32.770265      21719.726      6304.9942      5373.4818      5117.8517     -330.83574     -647.28261     -816.46593    
[...]
  31876000   276.66209     -398.82376     -306.16602     -398.77966      0              5885.549       31.007999      21.374731      32.728342      21691.94       5778.6742      7020.7697      4857.2031      1749.0683      836.61        -567.85843    
  31878000   268.95077     -400.24829     -310.17317     -400.2442       0              4839.7759      31.007999      21.374731      32.745055      21703.018      5261.9821      3299.4305      5957.9152      1383.4594      427.54434     -123.86412    
  31880000   287.33391     -401.57764     -305.34577     -401.55199      0              5355.2117      31.007999      21.374731      32.809546      21745.762      3827.4023      6187.3748      6050.858       638.51191      120.07667     -15.805423    
  31882000   274.88359     -398.52309     -306.46099     -398.53332      0              3835.834       31.007999      21.374731      32.94508       21835.592      4750.5861      4238.6418      2518.2741     -999.32587     -1154.938       1294.9085    
  31884000   270.53553     -403.02476     -312.41888     -403.05073      0              5014.1372      31.007999      21.374731      32.918073      21817.692      4866.6146      3945.0316      6230.7655     -278.14928     -724.39287     -579.89752    
  31886000   271.30537     -404.13867     -313.27497     -404.10347      0              6031.4473      31.007999      21.374731      32.71644       21684.052      3529.0649      7259.1993      7306.0779      1302.9789     -1641.9645      702.79792    
  31888000   266.57315     -404.163       -314.88418     -404.13741      0              4700.4138      31.007999      21.374731      32.718829      21685.636      6951.0449      4592.5956      2557.6009     -910.36856     -488.41087     -19.168594    
  31890000   278.28818     -402.13137     -308.92903     -402.1341       0              5202.8695      31.007999      21.374731      32.676537      21657.605      4686.8079      6065.1993      4856.6015      865.0526      -578.6225      -52.455671    
  31892000   271.68132     -402.83196     -311.84234     -402.85283      0              5606.3255      31.007999      21.374731      32.783507      21728.503      4368.5264      5743.9054      6706.5446     -467.18114      1941.3252      1699.8628    
  31894000   272.13227     -403.6712      -312.53056     -403.61774      0              7366.6605      31.007999      21.374731      32.726523      21690.735      7860.8757      5861.0622      8378.0437      379.0238      -629.75106      1398.0708    
  31896000   276.58801     -403.27163     -310.6387      -403.24791      0              8337.8805      31.007999      21.374731      32.720662      21686.85       8610.0253      7800.4508      8603.1653      67.757052      513.83855     -1167.0701    
  31898000   275.10692     -405.71436     -313.57747     -405.67533      0              5500.2851      31.007999      21.374731      32.479148      21526.777      5367.4662      3255.9288      7877.4603     -1763.428       128.55134     -347.96933    
  31900000   270.53739     -405.49619     -314.88969     -405.44466      0              5869.1286      31.007999      21.374731      32.671764      21654.442      4868.5439      6685.3888      6053.4531      1245.8421     -859.83261      1701.7117    
  31902000   276.88013     -399.26062     -306.52985     -399.25455      0              5795.5832      31.007999      21.374731      32.640491      21633.714      6858.3601      5248.7996      5279.5898     -219.20943     -1960.0529     -550.27038    
  31904000   275.38176     -404.87164     -312.64269     -404.80806      0              4622.736       31.007999      21.374731      32.707423      21678.076      5035.1089      4355.3251      4477.7738      907.98732      1084.0547      1431.0063    
  31906000   278.11159     -401.39357     -308.25037     -401.33031      0              6826.4816      31.007999      21.374731      32.770177      21719.668      6249.2796      8481.9322      5748.233       217.47995     -410.23264     -540.2045     
  31908000   272.06494     -401.18656     -310.06846     -401.19617      0              6158.4517      31.007999      21.374731      32.574742      21590.136      5568.8324      6135.8568      6770.6659      1512.1525     -792.20587     -2038.3036    
  31910000   269.91197     -400.85787     -310.46083     -400.81463      0              6950.9177      31.007999      21.374731      32.712688      21681.565      8205.674       4901.2504      7745.8287     -2596.7502      146.22072      121.87206    
  31912000   272.03703     -401.21074     -310.10199     -401.18295      0              3749.5739      31.007999      21.374731      32.80997       21746.043      1248.2519      5510.032       4490.4379     -528.87165      841.34072     -1668.3099    
  31914000   278.96948     -400.77003     -307.33952     -400.79932      0              6470.0899      31.007999      21.374731      32.843822      21768.479      6071.1401      5433.1383      7905.9913      222.21948      363.85908      2071.0039    
  31916000   283.58818     -404.95192     -309.97454     -404.89431      0              3580.2692      31.007999      21.374731      33.051978      21906.442      3392.6151      3861.345       3486.8475     -1419.8155      626.94087     -1228.635     
  31918000   278.87952     -403.25867     -309.85828     -403.19536      0              5712.1598      31.007999      21.374731      32.848494      21771.576      6119.9605      6227.3988      4789.1202     -132.79415     -1386.8879      225.52293    
  31920000   276.27494     -403.56419     -311.03611     -403.48023      0              3719.9618      31.007999      21.374731      32.939461      21831.867      2414.7622      4506.7365      4238.3868      89.296324      43.602301     -1673.3155    
  31922000   269.50589     -404.67866     -314.41763     -404.59602      0              3917.5835      31.007999      21.374731      32.765151      21716.337      3641.2484      5408.8116      2702.6904      1870.1689      1887.6545     -1205.0958    
  31924000   269.28008     -404.25054     -314.06514     -404.16402      0              6203.8279      31.007999      21.374731      32.467682      21519.178      5646.0083      5356.2407      7609.2349     -933.16476      189.45961     -292.48131    
  31926000   272.03162     -400.7535      -309.64657     -400.70643      0              4364.6696      31.007999      21.374731      32.731308      21693.906      2404.312       5766.9327      4922.7641      639.97441     -884.05808     -594.22865    
  31928000   279.06531     -403.66456     -310.20195     -403.64943      0              7510.021       31.007999      21.374731      32.828605      21758.394      5696.8765      8961.0329      7872.1536      187.5504       487.00461      1376.2206    
  31930000   283.27896     -402.55561     -307.6818      -402.52144      0              6578.8272      31.007999      21.374731      32.649577      21639.736      6150.5399      7656.2381      5929.7035      593.93139      843.34116     -1273.0991    
  31932000   277.4912      -400.51319     -307.57777     -400.49487      0              6433.0317      31.007999      21.374731      32.666484      21650.942      6810.7855      6140.6968      6347.613      -483.64236     -1344.7531      860.16331    
  31934000   268.83866     -403.29153     -313.25396     -403.24549      0              6225.7122      31.007999      21.374731      32.764482      21715.893      6889.73        5499.449       6287.9575      2266.2092      1388.3527     -1216.5308    
  31936000   273.92407     -402.40776     -310.66702     -402.41298      0              6017.9792      31.007999      21.374731      32.627293      21624.967      5249.997       6751.7088      6052.2317      1006.2347     -842.62478      784.22346    
  31938000   279.72896     -399.46324     -305.77837     -399.44102      0              6258.8696      31.007999      21.374731      32.562254      21581.859      5553.5173      8967.9081      4255.1833     -707.92671      193.66479     -1620.8715    
  31940000   272.70814     -403.9785      -312.64499     -403.95308      0              6764.5733      31.007999      21.374731      32.600079      21606.929      5734.3892      6890.759       7668.5718     -2010.7472      1853.3259      576.11797    
  31942000   275.15014     -400.85778     -308.70642     -400.84162      0              5422.7336      31.007999      21.374731      32.668951      21652.577      4825.9828      6552.9127      4889.3051     -76.670051     -705.9021      -785.01634    
  31944000   271.30198     -404.56604     -313.70348     -404.50451      0              3294.0273      31.007999      21.374731      32.542406      21568.705      2667.4063      4489.9148      2724.7607     -665.60518     -594.26225     -679.06959    
  31946000   274.25097     -401.08571     -309.23549     -401.08506      0              5290.947       31.007999      21.374731      32.722001      21687.738      4545.0589      4452.9196      6874.8626     -2002.573      -11.836227      769.28771    
  31948000   279.97105     -401.41497     -307.64901     -401.37216      0              6429.2225      31.007999      21.374731      32.636264      21630.912      5893.5496      5955.6825      7438.4353     -529.51122      843.57725      631.89974    
  31950000   274.39154     -402.2345      -310.3372      -402.1943       0              6182.1878      31.007999      21.374731      32.769471      21719.2        6767.5012      5435.4814      6343.5809      428.81547      517.36783      809.4884     
  31952000   272.9673      -401.6101      -310.18979     -401.60942      0              6182.515       31.007999      21.374731      32.692093      21667.915      5954.6184      6010.6293      6582.2973     -823.51244     -291.46576      1637.829     
  31954000   274.87728     -403.51435     -311.45437     -403.46742      0              4148.4745      31.007999      21.374731      32.960927      21846.095      6018.0687      3378.935       3048.4198      246.31897      142.14496      254.63793    
  31956000   278.45922     -399.91092     -306.6513      -399.85612      0              7328.9888      31.007999      21.374731      32.584061      21596.313      7419.7928      7111.6417      7455.5319      59.186409     -745.70129      976.74527    
  31958000   279.82821     -402.76705     -309.04894     -402.70307      0              4847.71        31.007999      21.374731      32.561141      21581.122      4374.7437      6115.213       4053.1731      1048.2217      1048.0375     -118.04045    
  31960000   279.25335     -400.56211     -307.03652     -400.47709      0              5497.4935      31.007999      21.374731      32.694304      21669.381      2993.672       6340.2798      7158.5286     -376.94967      905.09557      100.71748    
  31962000   276.97947     -399.81081     -307.04677     -399.76191      0              6709.615       31.007999      21.374731      32.413034      21482.958      7673.0102      6398.2836      6057.5512     -745.15856     -907.97759      588.93246    
  31964000   271.20033     -400.11052     -309.282       -400.06767      0              6786.4637      31.007999      21.374731      32.636272      21630.917      8882.912       5269.5989      6206.8801     -1557.5761      594.37129      548.66531    
  31966000   274.21003     -402.37039     -310.53387     -402.30491      0              5665.417       31.007999      21.374731      32.588582      21599.31       6439.063       4128.3533      6428.8346     -1094.0194     -2018.2164     -148.27824    
  31968000   278.12941     -401.40298     -308.25381     -401.3099       0              6397.3799      31.007999      21.374731      32.571002      21587.657      6878.4953      5189.1578      7124.4866     -319.04261     -1714.2945     -1011.6338    
  31970000   275.34241     -403.92139     -311.70563     -403.85775      0              5421.2782      31.007999      21.374731      32.629119      21626.177      5604.6384      7553.3679      3105.8282      468.20602      1171.2675      410.69506    
  31972000   282.19413     -400.19287     -305.68238     -400.12964      0              7190.6426      31.007999      21.374731      32.662026      21647.987      8267.5764      8551.7931      4752.5584      102.41763      1085.7087     -964.32046    
  31974000   273.65847     -401.95903     -310.30724     -401.89501      0              4841.6627      31.007999      21.374731      32.781202      21726.975      4933.4786      3843.0941      5748.4155      845.97298      1760.7516      251.86673    
  31976000   277.56368     -401.43371     -308.47401     -401.35426      0              5842.9253      31.007999      21.374731      32.693895      21669.109      4387.9479      8684.5754      4456.2526     -290.77034      85.466545      399.26263    
  31978000   276.542       -405.80029     -313.18276     -405.73848      0              5856.8878      31.007999      21.374731      32.578901      21592.893      6777.5498      5265.101       5528.0127     -436.54498     -1430.7768     -1234.1475    
  31980000   279.5045      -401.76818     -308.15848     -401.71415      0              7596.2346      31.007999      21.374731      32.543129      21569.184      8929.3528      8137.9137      5721.4372      887.2853      -284.07717      242.54784    
  31982000   274.55743     -403.14109     -311.18823     -403.0774       0              3508.9045      31.007999      21.374731      32.570123      21587.075      3892.2366      3857.6396      2776.8372      1584.356       1737.5015     -537.07433    
  31984000   271.34035     -404.20776     -313.33234     -404.14422      0              2785.0653      31.007999      21.374731      32.639672      21633.171      3527.7514      3058.6166      1768.828       104.15114     -324.50565      377.93883    
  31986000   275.77969     -401.84555     -309.48333     -401.75951      0              6860.8292      31.007999      21.374731      32.639155      21632.829      5765.4496      8759.1509      6057.8872      912.30462      453.16923     -1175.6367    
  31988000   276.13086     -403.08825     -310.60843     -403.0248       0              5525.8242      31.007999      21.374731      32.762179      21714.367      7557.8202      5060.3287      3959.3237     -587.858       -2180.698      -808.98694    
  31990000   279.5204      -400.51872     -306.9037      -400.42568      0              5910.3419      31.007999      21.374731      32.658117      21645.396      6021.1132      5255.4712      6454.4412     -524.03129      464.62902      706.66588    
  31992000   272.59447     -405.18702     -313.89157     -405.09587      0              3520.3563      31.007999      21.374731      32.700831      21673.706      6035.6596      3063.7262      1461.683       61.808139     -1227.6122      784.17428    
  31994000   284.11011     -403.8202      -308.66802     -403.73473      0              8465.2797      31.007999      21.374731      32.621439      21621.086      6687.577       10603.89       8104.3717     -6.0850544      1039.1041      315.67634    
  31996000   274.97385     -400.71226     -308.61993     -400.62694      0              6123.1231      31.007999      21.374731      32.554604      21576.789      5763.8904      6271.9977      6333.4813      1029.1823      1393.5047      1560.8636    
  31998000   270.92753     -402.13738     -311.40022     -402.05463      0              5661.288       31.007999      21.374731      32.621475      21621.11       5966.5814      5053.7368      5963.5458      196.20152      403.57697      1203.5009    
  32000000   270.01837     -402.82844     -312.39577     -402.74237      0              4861.6056      31.007999      21.374731      32.680568      21660.277      4211.7292      4520.5837      5852.5039     -1572.5773      441.9413       933.42851    
  32002000   279.1124      -402.75502     -309.27663     -402.66207      0              5227.0368      31.007999      21.374731      32.737104      21697.748      5115.8275      4877.6805      5687.6024      2494.8655      215.85533      708.39478    
  32004000   281.22522     -404.30896     -310.12296     -404.23721      0              7995.2606      31.007999      21.374731      32.620994      21620.792      9271.5825      8073.575       6640.6242      377.63045      441.84428     -1899.7853    
  32006000   267.9825      -401.60045     -311.84962     -401.51162      0              7274.7713      31.007999      21.374731      32.501618      21541.671      6824.6093      8374.1705      6625.5341     -261.89539     -1612.998      -510.12649    
  32008000   276.80006     -401.8423      -309.13835     -401.79552      0              5299.1484      31.007999      21.374731      32.632112      21628.16       5213.7297      3425.8235      7257.8919      675.15951     -1909.8413      1482.6505    
  32010000   271.75548     -404.45862     -313.44416     -404.41209      0              4959.7921      31.007999      21.374731      32.527499      21558.824      4891.09        3903.5532      6084.7331      434.125        20.255164     -581.51831    
  32012000   273.22755     -400.53353     -309.02606     -400.49457      0              6774.9444      31.007999      21.374731      32.572532      21588.672      5666.8571      6588.0841      8069.892      -810.65326      146.73096     -1732.8832    
  32014000   278.2386      -404.31114     -311.1254      -404.31398      0              7272.8268      31.007999      21.374731      32.639591      21633.118      5670.3162      7348.4845      8799.6797      775.55082      650.41711      1037.6285    
  32016000   273.77973     -400.87937     -309.18697     -400.89674      0              5619.7492      31.007999      21.374731      32.612891      21615.421      5526.5607      4912.0401      6420.6468     -463.87589     -1539.1099      499.92543    
  32018000   272.5152      -402.76905     -311.50016     -402.71052      0              6082.519       31.007999      21.374731      32.488267      21532.822      5265.4533      6588.2849      6393.8187      1915.989      -969.30803      102.63468    
  32020000   269.85403     -400.92195     -310.54432     -400.86473      0              6736.221       31.007999      21.374731      32.549802      21573.606      4965.4448      9560.9328      5682.2855      1532.7494      407.90728     -554.95921    
  32022000   273.26187     -402.61265     -311.09369     -402.55643      0              6523.8355      31.007999      21.374731      32.535241      21563.956      8324.6023      5204.8433      6042.061       819.40115     -45.395115      1526.4882    
  32024000   267.469       -402.93847     -313.35961     -402.89956      0              8588.7414      31.007999      21.374731      32.598048      21605.583      8510.8998      7589.5569      9665.7674     -1690.0211      392.35733      1279.6027    
  32026000   273.65119     -398.80738     -307.15802     -398.82672      0              6021.1511      31.007999      21.374731      32.569787      21586.852      5946.4656      6431.4806      5685.5069      313.03619      626.21978     -1375.42      
  32028000   279.41725     -404.9165      -311.33603     -404.84222      0              5711.6151      31.007999      21.374731      32.763092      21714.972      6222.7762      7024.523       3887.5461     -655.2485      -796.0399       221.23009    
  32030000   278.05582     -401.81336     -308.68884     -401.7547       0              6871.2635      31.007999      21.374731      32.703158      21675.249      7516.982       7606.0214      5490.7871      896.31996     -425.87544     -144.72496    
  32032000   273.50743     -401.42757     -309.82637     -401.36828      0              6710.3685      31.007999      21.374731      32.615681      21617.27       7655.126       6956.3507      5519.6288      861.6531      -2396.7841      520.4342     
  32034000   275.83202     -400.56177     -308.18203     -