LAMMPS (23 Jun 2022)
include procedure.lmp
echo both
include		in.partitions
variable        pid world 0
include		in.temp
variable	temperature equal 275
variable        tempDamp equal 0.100 # this is 0.1 ps
include		in.pressure
variable        pressure equal 6079.5
variable        pressureDamp equal 1.0 #this is 1ps

variable	barostat string	   tri
variable	direction string   z
variable	direction_x_bool equal 0
variable	direction_y_bool equal 0
variable	direction_z_bool equal 1

include		in.seed
variable        seed world 745823

units           metal
atom_style	full
box tilt large
read_restart 	restart.lmp.${pid}
read_restart 	restart.lmp.0
Reading restart file ...
  restart file = 23 Jun 2022, LAMMPS = 23 Jun 2022
  restoring atom style full from restart
  triclinic box = (0 0 -0.81090099) to (31.007999 21.374731 31.77136) with tilt (-9.165637 1.0130997 -10.836139)
WARNING: Triclinic box skew is large (../domain.cpp:224)
  2 by 1 by 2 MPI processor grid
Summary of lammps deepmd module ...
  >>> Info of deepmd-kit:
  installed to:       /u/sigbjobo/software/DEEPMD_FROM_SOURCE/deepmd-kit/install
  source:             v2.1.3
  source branch:       master
  source commit:      5a32c49
  source commit at:   2022-07-01 09:52:58 +0800
  surpport model ver.:1.1 
  build float prec:   double
  build with tf inc:  /u/sigbjobo/software/DEEPMD_FROM_SOURCE/tensorflow/install/include;/u/sigbjobo/software/DEEPMD_FROM_SOURCE/tensorflow/install/include
  build with tf lib:  /u/sigbjobo/software/DEEPMD_FROM_SOURCE/tensorflow/install/lib/libtensorflow_cc.so;/u/sigbjobo/software/DEEPMD_FROM_SOURCE/tensorflow/install/lib/libtensorflow_framework.so
  set tf intra_op_parallelism_threads: 0
  set tf inter_op_parallelism_threads: 0
  >>> Info of lammps module:
  use deepmd-kit at:  /u/sigbjobo/software/DEEPMD_FROM_SOURCE/deepmd-kit/install
  source:             v2.1.3
  source branch:      master
  source commit:      5a32c49
  source commit at:   2022-07-01 09:52:58 +0800
  build float prec:   double
  build with tf inc:  /u/sigbjobo/software/DEEPMD_FROM_SOURCE/tensorflow/install/include;/u/sigbjobo/software/DEEPMD_FROM_SOURCE/tensorflow/install/include
  build with tf lib:  /u/sigbjobo/software/DEEPMD_FROM_SOURCE/tensorflow/install/lib/libtensorflow_cc.so;/u/sigbjobo/software/DEEPMD_FROM_SOURCE/tensorflow/install/lib/libtensorflow_framework.so
  restoring pair style deepmd from restart
  2592 atoms
Finding 1-2 1-3 1-4 neighbors ...
  special bond factors lj:    0        0        0       
  special bond factors coul:  0        0        0       
     0 = max # of 1-2 neighbors
     0 = max # of 1-3 neighbors
     0 = max # of 1-4 neighbors
     1 = max # of special neighbors
  special bonds CPU = 0.000 seconds
  read_restart CPU = 0.046 seconds
include 	in.setup
variable	out_freq equal 2000
variable	out_freq2 equal 2000

timestep        0.0005

neigh_modify    delay 7 every 1

include         in.deepmd
# This is deepMD model

# create groups ###
#group ox type 2
#group hy type 1

mass 2 15.999
mass 1 1.008

pair_style      deepmd ../graph.pb
pair_coeff      * *

bond_style      none
angle_style     none
dihedral_style  none
improper_style  none
neigh_modify exclude none


neighbor        2.0 bin
neigh_modify    every 50 delay 0 check no

thermo          ${out_freq}
thermo          2000
thermo_style 	custom step temp pe etotal epair emol press lx ly lz vol pxx pyy pzz pxy pxz pyz

restart 	${out_freq} restart.lmp.${pid} restart2.lmp.${pid}
restart 	2000 restart.lmp.${pid} restart2.lmp.${pid}
restart 	2000 restart.lmp.0 restart2.lmp.${pid}
restart 	2000 restart.lmp.0 restart2.lmp.0


timer           timeout 23:50:00 every 1000
New timer settings: style=normal  mode=nosync  timeout=23:50:00


# Set number of time steps
variable 	nsteps_wall		equal	 6000000
variable 	nsteps_enhanced_coex    equal	300000000

variable     nsteps_enhanced_coex_upto equal (${nsteps_wall}+${nsteps_enhanced_coex})
variable     nsteps_enhanced_coex_upto equal (6000000+${nsteps_enhanced_coex})
variable     nsteps_enhanced_coex_upto equal (6000000+300000000)


# Set temperature for first step
if "$(step) < 1  " then    "velocity 	all create ${temperature} ${seed} dist gaussian"


# Always run thermo and barostat


######################################
# Run simulation with wall potential #
######################################
if " $(step) < ${nsteps_wall} " then    "fix             3 all plumed plumedfile plumed.equil.dat outfile plumed.equil.out"   "fix             1 all nph ${direction} ${pressure} ${pressure} ${pressureDamp}"   "fix             2 all temp/csvr ${temperature} ${temperature} ${tempDamp} ${seed}"   "run             ${nsteps_wall} upto"
if " $(step) == ${nsteps_wall} " then    "unfix 3"   "unfix 1"   "unfix 2"


############################
# Run enhanced coesistence #
############################
if "$(step) == ${nsteps_wall}" then    "fix             3 all plumed plumedfile plumed.start.dat outfile plumed.out" else    "fix             3 all plumed plumedfile plumed.dat outfile plumed.out"
fix             3 all plumed plumedfile plumed.dat outfile plumed.out

if "$(step) < ${nsteps_enhanced_coex_upto} && $(step) >= ${nsteps_wall} " then    "include         in.dump"    "fix             1 all nph ${direction} ${pressure} ${pressure} ${pressureDamp}"   "fix             2 all temp/csvr ${temperature} ${temperature} ${tempDamp} ${seed}"   "run             ${nsteps_enhanced_coex_upto} upto"    "unfix 3"   "unfix 1"   "unfix 2"
include         in.dump
dump            myDump all atom ${out_freq2} dump.water.${pid}
dump            myDump all atom 2000 dump.water.${pid}
dump            myDump all atom 2000 dump.water.0
dump            myDump2 all dcd ${out_freq2} dump.${pid}.dcd
dump            myDump2 all dcd 2000 dump.${pid}.dcd
dump            myDump2 all dcd 2000 dump.0.dcd
dump_modify     myDump append yes
dump_modify     myDump2 append yes

fix             1 all nph ${direction} ${pressure} ${pressure} ${pressureDamp}
fix             1 all nph z ${pressure} ${pressure} ${pressureDamp}
fix             1 all nph z 6079.5 ${pressure} ${pressureDamp}
fix             1 all nph z 6079.5 6079.5 ${pressureDamp}
fix             1 all nph z 6079.5 6079.5 1
fix             2 all temp/csvr ${temperature} ${temperature} ${tempDamp} ${seed}
fix             2 all temp/csvr 275 ${temperature} ${tempDamp} ${seed}
fix             2 all temp/csvr 275 275 ${tempDamp} ${seed}
fix             2 all temp/csvr 275 275 0.1 ${seed}
fix             2 all temp/csvr 275 275 0.1 745823
run             ${nsteps_enhanced_coex_upto} upto
run             306000000 upto

CITE-CITE-CITE-CITE-CITE-CITE-CITE-CITE-CITE-CITE-CITE-CITE-CITE

Your simulation uses code contributions which should be cited:

- USER-DEEPMD package:

@article{Wang_ComputPhysCommun_2018_v228_p178,
  author = {Wang, Han and Zhang, Linfeng and Han, Jiequn and E, Weinan},
  doi = {10.1016/j.cpc.2018.03.016},
  url = {https://doi.org/10.1016/j.cpc.2018.03.016},
  year = 2018,
  month = {jul},
  publisher = {Elsevier {BV}},
  volume = 228,
  journal = {Comput. Phys. Commun.},
  title = {{DeePMD-kit: A deep learning package for many-body potential energy representation and molecular dynamics}},
  pages = {178--184}
}

CITE-CITE-CITE-CITE-CITE-CITE-CITE-CITE-CITE-CITE-CITE-CITE-CITE

Generated 0 of 1 mixed pair_coeff terms from geometric mixing rule
Neighbor list info ...
  update every 50 steps, delay 0 steps, check no
  max neighbors/atom: 2000, page size: 100000
  master list distance cutoff = 8
  ghost atom cutoff = 8
  binsize = 4, bins = 11 9 9
  1 neighbor lists, perpetual/occasional/extra = 1 0 0
  (1) pair deepmd, perpetual
      attributes: full, newton on
      pair build: full/bin
      stencil: full/bin/3d
      bin: standard
Per MPI rank memory allocation (min/avg/max) = 7.308 | 7.31 | 7.313 Mbytes
   Step          Temp          PotEng         TotEng         E_pair         E_mol          Press            Lx             Ly             Lz           Volume          Pxx            Pyy            Pzz            Pxy            Pxz            Pyz      
 211300000   274.70574     -406.89072     -314.88819     -406.89072      0              6554.8847      31.007999      21.374731      32.582261      21595.12       7247.1032      6506.4244      5911.1265     -42.988403     -1797.0765      566.77985    
 211302000   276.96902     -401.4299      -308.66937     -401.36854      0              8158.698       31.007999      21.374731      32.601281      21607.726      8165.4165      6731.7667      9578.9108     -379.5016       945.98333      2640.019     
 211304000   267.78544     -401.88254     -312.1977      -401.79763      0              6193.5225      31.007999      21.374731      32.52698       21558.48       7067.4054      6944.8044      4568.3575     -884.12672      1115.8284     -948.61304    
 211306000   280.01253     -405.30981     -311.52996     -405.20463      0              7161.4342      31.007999      21.374731      32.586563      21597.971      6803.4661      8842.616       5838.2204     -1415.1519     -1342.9637     -666.99752    
 211308000   270.47844     -403.22317     -312.63641     -403.14024      0              5420.9258      31.007999      21.374731      32.515438      21550.83       7009.4483      5683.3787      3569.9503      2079.8948     -201.52434     -28.00169     
 211310000   277.66157     -402.04154     -309.04906     -401.92783      0              6076.888       31.007999      21.374731      32.591964      21601.551      6591.6301      5442.0324      6197.0014     -730.14905     -272.52086      1069.4451    
 211312000   278.2765      -402.47545     -309.27703     -402.41944      0              4945.4248      31.007999      21.374731      32.561302      21581.229      5080.2988      5932.1314      3823.8443     -1022.8171      1563.3005     -657.57734    
 211314000   273.14384     -405.40555     -313.92612     -405.33476      0              7039.1999      31.007999      21.374731      32.592063      21601.616      7044.6886      6542.3668      7530.5443     -438.97707     -565.14441      571.02158    
 211316000   279.93836     -405.74283     -311.98782     -405.61043      0              5764.5574      31.007999      21.374731      32.539897      21567.041      6052.2277      5192.0907      6049.3536      538.43708      69.54617       1221.2002    
 211318000   274.28024     -406.77422     -314.91419     -406.68672      0              4513.3309      31.007999      21.374731      32.657442      21644.949      3652.0868      4598.7157      5289.1903     -405.79174     -112.56086     -442.01369    
 211320000   264.48305     -402.33403     -313.75521     -402.36138      0              5863.4887      31.007999      21.374731      32.777597      21724.586      7307.4654      6451.9477      3831.0531     -528.21716     -689.87669      1238.492     
 211322000   272.70887     -402.62473     -311.29097     -402.57415      0              3445.9421      31.007999      21.374731      32.86442       21782.131      3692.523       3516.6695      3128.6337      2646.0155      77.485018     -1317.6442    
 211324000   279.23649     -402.37927     -308.85933     -402.32389      0              7486.558       31.007999      21.374731      32.657262      21644.829      6916.516       7994.3605      7548.7974     -47.994972     -164.61942     -479.19667    
 211326000   280.10541     -399.21011     -305.39916     -399.20676      0              7048.0213      31.007999      21.374731      32.641884      21634.637      8467.0678      7089.6998      5587.2963      316.63598     -228.40506     -1079.0413    
 211328000   273.18915     -401.98007     -310.48546     -401.95497      0              5336.8814      31.007999      21.374731      32.668735      21652.434      6509.1365      3627.6959      5873.8117     -126.34261      46.697745      349.1566     
 211330000   282.36349     -398.4811      -303.91389     -398.51893      0              7568.0915      31.007999      21.374731      32.849579      21772.295      5933.5642      7917.5687      8853.1415      393.78587     -727.91575     -815.54703    
 211332000   274.73108     -403.54475     -311.53373     -403.50694      0              5460.7768      31.007999      21.374731      32.942447      21833.846      4753.0097      7264.4672      4364.8535      1630.3716      400.61486      888.69908    
 211334000   271.05572     -404.32256     -313.54247     -404.29766      0              6791.2319      31.007999      21.374731      32.622369      21621.703      5275.0393      7062.6518      8036.0047     -75.879482      81.04529      -1041.912     
 211336000   275.47729     -402.86274     -310.6018      -402.85276      0              6180.1853      31.007999      21.374731      32.622009      21621.464      6636.6338      7393.7431      4510.1791      544.42357      755.20775      1080.603     
 211338000   280.27438     -400.27378     -306.40624     -400.3076       0              4040.9545      31.007999      21.374731      32.762513      21714.588      3286.2533      4475.6323      4360.9777     -583.54757      1434.9145     -766.78804    
 211340000   271.86893     -401.22777     -310.17532     -401.21234      0              3974.5567      31.007999      21.374731      32.703265      21675.32       4155.5047      3065.6262      4702.5393      235.52909      405.85649     -1620.931     
 211342000   274.59997     -400.75896     -308.79185     -400.76465      0              6081.869       31.007999      21.374731      32.8006        21739.832      7627.3066      3946.9004      6671.4        -32.463973      1311.6827      1420.3202    
 211344000   272.35282     -403.09497     -311.88046     -403.08278      0              5167.6355      31.007999      21.374731      32.621354      21621.03       6997.81        5304.5861      3200.5105      902.25399      2218.1181     -1561.2601    
 211346000   272.74533     -400.34054     -308.99457     -400.34046      0              7221.3424      31.007999      21.374731      32.637831      21631.951      6887.2948      6423.9101      8352.8222      242.22771     -1235.4753     -1650.4304    
 211348000   275.45636     -401.97864     -309.72472     -402.0373       0              3932.4518      31.007999      21.374731      32.69583       21670.392      3356.116       5435.7455      3005.4939     -453.72391     -234.79294     -295.58364    
 211350000   277.31095     -399.23925     -306.36419     -399.3076       0              5184.7906      31.007999      21.374731      32.764279      21715.759      5740.4379      2722.8194      7091.1144     -335.02036      924.84506     -31.841295    
 211352000   276.03181     -402.00001     -309.55336     -402.00815      0              5067.7588      31.007999      21.374731      32.628024      21625.451      5927.0845      4989.8104      4286.3815     -1721.2938      761.60977     -1578.1457    
 211354000   271.65153     -397.53403     -306.55439     -397.52556      0              6621.4157      31.007999      21.374731      32.789541      21732.502      5721.3486      7590.9756      6551.9228      14.870861     -1251.0984     -2983.5794    
 211356000   273.35569     -398.34739     -306.797       -398.39355      0              4405.851       31.007999      21.374731      32.869521      21785.512      4010.6537      5452.3509      3754.5483     -390.04764     -1158.1169      85.022419    
 211358000   271.95629     -401.70608     -310.62437     -401.7228       0              7387.3176      31.007999      21.374731      32.829292      21758.849      8896.5398      5468.6313      7796.7818     -1654.3374     -1638.3514      905.1359     
 211360000   273.08272     -401.02392     -309.56495     -401.05349      0              5193.6352      31.007999      21.374731      32.554751      21576.886      5667.7913      6706.9667      3206.1477      1430.3194      654.65137     -1491.1277    
 211362000   277.67556     -401.05279     -308.05563     -401.06031      0              7070.1194      31.007999      21.374731      32.609179      21612.961      7394.4501      7204.8441      6611.0641      1683.2148     -349.05972     -794.13745    
 211364000   280.0716      -401.28508     -307.48545     -401.31696      0              6129.2789      31.007999      21.374731      32.657203      21644.79       7707.6356      7198.7428      3481.4585      655.38447     -1066.6827     -1351.6336    
 211366000   283.6832      -400.24081     -305.2316      -400.27587      0              8923.2918      31.007999      21.374731      32.41983       21487.463      8675.4627      9500.5567      8593.8561     -1276.4823      155.78739     -471.87752    
 211368000   273.69706     -403.57175     -311.90703     -403.57141      0              6602.1054      31.007999      21.374731      32.453387      21509.704      9928.4516      8133.4718      1744.3927      356.2196      -439.15203      423.47911    
 211370000   272.54743     -401.75565     -310.47596     -401.76493      0              8602.882       31.007999      21.374731      32.460649      21514.517      8568.9553      8678.2066      8561.4841     -1586.7454      126.64928     -38.794883    
 211372000   284.652       -399.33536     -304.0017      -399.348        0              6049.1119      31.007999      21.374731      32.589486      21599.909      8094.3024      4509.6563      5543.377       1626.3274      98.600684      166.7577     
 211374000   274.38006     -400.13062     -308.23716     -400.1569       0              5444.2921      31.007999      21.374731      32.610125      21613.588      5764.9951      4070.0845      6497.7969      555.3562       933.32994     -1059.7207    
 211376000   267.14971     -397.8777      -308.40578     -397.88687      0              7620.4891      31.007999      21.374731      32.520476      21554.169      6787.5785      8758.9392      7314.9497     -1096.8257      1500.275      -2300.2275    
 211378000   282.2452      -399.88414     -305.35654     -399.95811      0              6295.6857      31.007999      21.374731      32.757974      21711.58       5927.7385      7540.1177      5419.201      -1194.0311     -416.55544      1042.9589    
 211380000   279.16515     -402.38745     -308.8914      -402.40803      0              6190.7122      31.007999      21.374731      32.47117       21521.49       4822.6487      7987.5886      5761.8994     -510.91295     -405.51442     -708.13244    
 211382000   272.3         -402.35209     -311.15527     -402.36016      0              6010.7039      31.007999      21.374731      32.561514      21581.369      6224.4699      6273.9556      5533.6862      531.73486     -1482.3119     -1495.642     
 211384000   282.12689     -401.4258      -306.93783     -401.44186      0              5586.8082      31.007999      21.374731      32.556392      21577.974      4924.6921      5957.296       5878.4364     -530.60442      1007.306      -715.55447    
 211386000   276.82895     -402.24931     -309.53569     -402.27683      0              7512.4172      31.007999      21.374731      32.442133      21502.245      8384.9787      7405.1257      6747.147      -1142.7251     -419.0515       767.05345    
 211388000   280.30387     -402.73314     -308.85572     -402.76714      0              5553.6005      31.007999      21.374731      32.570567      21587.369      7190.0397      3801.0561      5669.7056     -937.95149     -1839.9517      464.6368     
 211390000   268.56193     -403.76116     -313.81627     -403.82661      0              5202.1622      31.007999      21.374731      32.616321      21617.694      3114.5511      4365.1763      8126.7591     -886.8841       1372.72        700.49849    
 211392000   283.66894     -402.98497     -307.98054     -403.00706      0              4849.4275      31.007999      21.374731      32.589572      21599.966      4358.6224      3311.4002      6878.2597     -55.349136      1980.5429     -1128.0315    
 211394000   272.97179     -402.47074     -311.04893     -402.50458      0              6817.2318      31.007999      21.374731      32.532391      21562.067      5702.9321      5711.7095      9037.0537      108.60034      177.12854     -84.504657    
 211396000   275.83988     -404.1503      -311.76792     -404.17148      0              6175.8156      31.007999      21.374731      32.686949      21664.506      5763.3068      5609.0797      7155.0603      13.776947      1035.6798      763.50966    
 211398000   272.41977     -401.16794     -309.93101     -401.19966      0              6268.4655      31.007999      21.374731      32.548424      21572.693      5112.2651      7603.9783      6089.1532      514.43044      159.13984      468.23378    
 211400000   275.82607     -400.48075     -308.103       -400.51097      0              7341.2033      31.007999      21.374731      32.574177      21589.762      6971.0294      6121.4248      8931.1556     -1309.2853      272.03556      432.43453    
 211402000   275.62806     -402.83277     -310.52134     -402.90064      0              5253.9292      31.007999      21.374731      32.519387      21553.448      5353.324       6801.4354      3607.0281      17.448042      1882.5677      572.01219    
 211404000   272.63797     -401.12581     -309.8158      -401.15655      0              5477.5153      31.007999      21.374731      32.573018      21588.994      5688.5001      5202.9297      5541.1162     -532.54208      764.57084     -967.1823     
 211406000   274.85067     -401.23025     -309.17917     -401.25881      0              6983.5803      31.007999      21.374731      32.778929      21725.469      6585.7313      7126.3765      7238.6332     -959.18002     -860.61012     -578.4069     
 211408000   270.82554     -399.32389     -308.62089     -399.35996      0              4320.9092      31.007999      21.374731      32.843641      21768.359      5206.4088      1615.4586      6140.8602      1379.2433     -369.5024       583.51508    
 211410000   274.36614     -401.32306     -309.43426     -401.34431      0              6568.0319      31.007999      21.374731      32.681051      21660.597      7418.5157      6196.5036      6089.0765      1592.9647     -449.09613      1502.137     
 211412000   271.00433     -403.08101     -312.31813     -403.1197       0              5821.9117      31.007999      21.374731      32.830012      21759.326      5509.7346      6079.0883      5876.9121     -730.77436     -272.97997      874.67037    
 211414000   280.13275     -403.18999     -309.36987     -403.19348      0              7596.1364      31.007999      21.374731      32.598542      21605.911      6150.5132      7357.2498      9280.6463     -855.95688      1349.6541      934.58258    
 211416000   272.69793     -404.09084     -312.76075     -404.12748      0              4394.0185      31.007999      21.374731      32.692534      21668.208      5025.96        2807.1964      5348.8992     -315.91082      1130.9997      512.93499    
 211418000   269.34609     -402.72743     -312.51991     -402.785        0              5524.8885      31.007999      21.374731      32.78909       21732.204      5882.669       5248.0217      5443.9748     -895.74461     -855.94149     -62.6577      
 211420000   277.89381     -404.01327     -310.94301     -404.0631       0              5024.8864      31.007999      21.374731      32.765681      21716.688      4560.1411      6360.0789      4154.4393      883.79128     -1397.4101     -49.179178    
 211422000   275.17313     -402.01473     -309.85566     -402.03478      0              6647.6998      31.007999      21.374731      32.52286       21555.749      6711.3381      6993.6151      6238.1462      788.53155     -1508.6374      985.87691    
 211424000   272.48315     -400.34981     -309.09165     -400.38551      0              6760.6372      31.007999      21.374731      32.545127      21570.508      7928.9723      5281.1307      7071.8086      316.18717     -1500.1679      1027.5325    
 211426000   276.08084     -401.27272     -308.80965     -401.28311      0              3963.2026      31.007999      21.374731      32.710494      21680.111      2767.5969      5081.2493      4040.7618     -1137.821       665.11542      632.15208    
 211428000   274.92733     -402.01827     -309.94153     -402.04193      0              6803.8548      31.007999      21.374731      32.603169      21608.977      5326.0218      7250.6522      7834.8905      1266.1672      964.47269      1547.7982    
 211430000   273.08272     -402.48447     -311.0255      -402.50752      0              6828.8807      31.007999      21.374731      32.695175      21669.958      6308.0633      6851.6698      7326.9091     -129.43015     -106.99259     -48.62814     
 211432000   272.86131     -403.18589     -311.80108     -403.24814      0              3646.7926      31.007999      21.374731      32.761644      21714.013      3823.3245      4129.6088      2987.4445      1503.0214     -321.56011      1011.0569    
 211434000   278.30545     -404.14352     -310.93539     -404.17251      0              8147.396       31.007999      21.374731      32.669911      21653.213      7608.2752      7854.8248      8979.0879     -1162.7635      1373.026      -1087.1947    
 211436000   272.25906     -402.81258     -311.62947     -402.83583      0              5196.0736      31.007999      21.374731      32.65645       21644.291      4902.2022      5736.2632      4949.7554      1837.096      -2437.1424      342.43863    
 211438000   274.20357     -400.16979     -308.33544     -400.14772      0              6548.8847      31.007999      21.374731      32.814958      21749.349      7528.3042      5448.7631      6669.5867      1730.8319     -1605.6789     -361.36671    
 211440000   280.51837     -402.37536     -308.4261      -402.37981      0              5413.0843      31.007999      21.374731      32.654476      21642.983      6381.9272      5541.7745      4315.5513      1295.6205      561.92296      811.11644    
 211442000   278.78929     -402.90303     -309.53286     -402.93799      0              5993.1071      31.007999      21.374731      32.560273      21580.546      5355.0527      5108.9062      7515.3624      1384.8619      705.61371      2098.6215    
 211444000   274.61776     -400.32744     -308.35437     -400.33336      0              8053.9294      31.007999      21.374731      32.765248      21716.402      8583.2802      9250.6806      6327.8274     -159.61984     -252.22001      669.41607    
 211446000   276.82348     -402.69705     -309.98526     -402.72327      0              6678.2074      31.007999      21.374731      32.709339      21679.346      7265.4397      4992.9182      7776.2642     -734.28627      875.1739       419.46165    
 211448000   271.98187     -402.53725     -311.44698     -402.5602       0              8288.2061      31.007999      21.374731      32.82957       21759.033      9199.413       6833.5887      8831.6166      2722.3866     -1230.5001      321.74062    
 211450000   268.51614     -402.64967     -312.72011     -402.67784      0              7466.6011      31.007999      21.374731      32.608213      21612.321      4680.3807      9727.9955      7991.427       1132.4201     -22.847609     -518.13659    
 211452000   272.06111     -402.51917     -311.40236     -402.53146      0              3347.3611      31.007999      21.374731      32.632949      21628.715      1357.9671      4107.3335      4576.7827      284.32512     -559.35478      1365.8264    
 211454000   275.37571     -400.9888      -308.76188     -400.98871      0              5601.2888      31.007999      21.374731      32.537824      21565.668      3773.4506      6723.6908      6306.7248     -419.83426      1541.2025      192.0106     
 211456000   271.60021     -405.35577     -314.39332     -405.36261      0              7279.0111      31.007999      21.374731      32.73605       21697.049      8137.812       6714.5545      6984.6666      775.15728     -775.65554      479.24753    
 211458000   267.86638     -402.26281     -312.55087     -402.30022      0              5265.6275      31.007999      21.374731      32.600885      21607.463      4283.6184      6917.4675      4595.7967     -2726.3219      1107.3346     -1588.8602    
 211460000   272.35515     -401.66613     -310.45084     -401.6764       0              5289.7548      31.007999      21.374731      32.757261      21711.107      6510.7878      3986.5244      5371.9522      94.186924      842.67894      1106.0353    
 211462000   277.76073     -403.17081     -310.14512     -403.20926      0              5846.943       31.007999      21.374731      32.636968      21631.379      6606.0647      4092.2438      6842.5204      2088.2782      879.02771     -831.95656    
 211464000   277.00937     -400.94127     -308.16722     -400.99108      0              7179.0276      31.007999      21.374731      32.598691      21606.01       5721.2147      8182.3311      7633.537      -269.35373      953.98411     -300.97817    
 211466000   275.19755     -400.09251     -307.92527     -400.11787      0              6040.7074      31.007999      21.374731      32.624048      21622.816      6175.5339      5224.3406      6722.2478     -1424.2316     -575.42391      609.01163    
 211468000   271.24719     -401.00156     -310.15734     -401.0752       0              4941.5941      31.007999      21.374731      32.522838      21555.735      4190.7413      5407.5028      5226.5383     -1411.4314     -945.79926     -516.46625    
 211470000   280.00287     -403.75719     -309.98058     -403.78915      0              6887.1357      31.007999      21.374731      32.47946       21526.985      5115.076       8596.2623      6950.069      -1292.8534      1263.7183      208.21819    
 211472000   271.97569     -401.83456     -310.74636     -401.85667      0              6161.8371      31.007999      21.374731      32.801615      21740.505      2981.4067      8712.4341      6791.6704     -1843.9204      347.07224      450.01775    
 211474000   272.27089     -404.08832     -312.90125     -404.09151      0              5776.4057      31.007999      21.374731      32.583346      21595.839      5239.7817      7468.3597      4621.0758     -1070.4876     -910.64999     -670.58146    
 211476000   268.50352     -404.11708     -314.19176     -404.13574      0              5185.3944      31.007999      21.374731      32.456221      21511.582      5256.5674      4550.3851      5749.2307     -754.80785      687.39714     -563.49107    
 211478000   278.68719     -401.40936     -308.07338     -401.40099      0              8012.8858      31.007999      21.374731      32.472347      21522.27       7550.5459      8174.7989      8313.3125      351.14138      246.24158      223.8345     
 211480000   276.09198     -403.12886     -310.66205     -403.20083      0              6720.8659      31.007999      21.374731      32.668869      21652.522      7408.2382      7684.8396      5069.52       -1565.7479      1693.4373     -983.51384    
 211482000   278.20796     -402.14036     -308.96488     -402.18523      0              6551.0448      31.007999      21.374731      32.485187      21530.781      6611.7606      7442.9739      5598.3998      1222.245       248.20523      603.10991    
 211484000   279.00585     -401.01807     -307.57537     -401.10128      0              5628.494       31.007999      21.374731      32.514713      21550.35       6262.9064      4735.9191      5886.6565     -959.54294      8.9833322     -725.04377    
 211486000   273.6012      -397.40676     -305.77415     -397.41155      0              5196.7928      31.007999      21.374731      32.488502      21532.978      4960.5789      3197.6039      7432.1955      1874.8028     -96.617225     -77.731673    
 211488000   273.99679     -398.99649     -307.23139     -399.03474      0              8868.7609      31.007999      21.374731      32.451138      21508.213      9106.2677      7711.979       9788.036      -1023.7873      314.25934     -714.39919    
 211490000   280.15316     -396.98799     -303.16104     -397.00812      0              5359.3651      31.007999      21.374731      32.488567      21533.021      6196.0772      4088.5846      5793.4335      375.78908     -890.67403      1756.3129    
 211492000   271.57273     -397.52794     -306.5747      -397.5945       0              5538.9335      31.007999      21.374731      32.567589      21585.395      6587.8633      5281.4999      4747.4374      27.954405      369.24338     -149.09567    
 211494000   274.88803     -400.97019     -308.90661     -401.01136      0              6432.3264      31.007999      21.374731      32.447906      21506.071      6455.31        7504.6464      5337.0229      733.44471      119.14201     -44.744597    
 211496000   280.83068     -400.48435     -306.43049     -400.51545      0              4836.2961      31.007999      21.374731      32.493275      21536.141      3474.606       4207.1424      6827.14        186.51326      491.79042     -1057.6934    
 211498000   276.54933     -401.19399     -308.57402     -401.23465      0              6831.2774      31.007999      21.374731      32.462022      21515.427      6979.4803      5085.7305      8428.6214      389.28756      1991.7478      711.30132    
 211500000   273.7543      -400.75879     -309.0749      -400.80304      0              6199.8825      31.007999      21.374731      32.490898      21534.565      6923.3783      5921.6275      5754.6417      1528.0514      680.63018      816.50829    
 211502000   275.14881     -399.6568      -307.50588     -399.71982      0              4806.0167      31.007999      21.374731      32.636016      21630.748      6864.036       3345.6546      4208.3595     -17.364287      324.11649     -223.74946    
 211504000   269.60276     -398.92263     -308.62915     -398.96825      0              6764.73        31.007999      21.374731      32.392722      21469.496      7250.564       5993.5818      7050.0441     -523.01876     -123.59735     -1378.8595    
 211506000   269.8699      -402.85474     -312.4718      -402.87184      0              4550.6823      31.007999      21.374731      32.486503      21531.653      4784.5087      4650.5494      4216.9889     -1859.0791     -1888.7893     -1145.4625    
 211508000   276.83688     -402.68902     -309.97274     -402.72343      0              8404.619       31.007999      21.374731      32.592386      21601.83       9478.9538      7518.5854      8216.3179     -947.23146     -1510.0493     -935.71163    
 211510000   275.74618     -401.03554     -308.68455     -401.0594       0              7398.7493      31.007999      21.374731      32.258697      21380.665      5801.9134      7432.2879      8962.0466     -323.20065     -681.30756     -717.93316    
 211512000   272.60899     -403.4003      -312.09999     -403.43931      0              4972.2808      31.007999      21.374731      32.425868      21491.465      5200.0794      4635.4666      5081.2965      879.70343     -109.77202     -497.31279    
 211514000   282.67797     -403.08305     -308.41051     -403.09415      0              5576.6832      31.007999      21.374731      32.430135      21494.292      6706.5892      2370.4367      7653.0238     -928.31756      674.38401      48.23005     
 211516000   272.43685     -403.04249     -311.79984     -403.07914      0              6809.2694      31.007999      21.374731      32.543196      21569.228      4469.4145      8938.8529      7019.5408      223.98686     -760.37421     -1124.6877    
 211518000   276.40039     -401.96239     -309.39229     -402.01273      0              5327.2499      31.007999      21.374731      32.526057      21557.868      5397.8146      5477.8794      5106.0556     -1201.676      -1320.7678      236.13824    
 211520000   266.89608     -401.12399     -311.73701     -401.17698      0              5152.666       31.007999      21.374731      32.516994      21551.862      3954.3222      6247.8886      5255.7872      148.30454      325.89639     -1310.488     
 211522000   269.78718     -404.57559     -314.22035     -404.61181      0              7423.2588      31.007999      21.374731      32.676319      21657.46       7123.4834      5960.3655      9185.9275     -247.4109       983.86112     -284.76281    
 211524000   277.94103     -401.89176     -308.80569     -401.94067      0              7027.5155      31.007999      21.374731      32.499089      21539.994      8122.6522      6666.0982      6293.796       1319.7119     -279.40682     -775.46062    
 211526000   269.69844     -403.27928     -312.95376     -403.28896      0              6722.0594      31.007999      21.374731      32.587531      21598.612      8577.742       6616.3911      4972.0452     -765.57337     -645.41286      149.21873    
 211528000   278.0403      -400.69088     -307.57155     -400.7199       0              6967.3491      31.007999      21.374731      32.611791      21614.692      6686.7193      6957.682       7257.646      -1210.1333     -57.357658      107.59206    
 211530000   272.90488     -402.57339     -311.17399     -402.61793      0              4739.2469      31.007999      21.374731      32.61399       21616.15       3984.7062      4063.5441      6169.4903      1057.7666      1940.5039     -37.710972    
 211532000   271.68128     -402.2429      -311.25329     -402.30636      0              5349.5198      31.007999      21.374731      32.390657      21468.127      3119.6291      5444.1727      7484.7576      663.62535      147.4028      -2434.7982    
 211534000   277.3365      -403.62549     -310.74188     -403.63481      0              7623.2241      31.007999      21.374731      32.58648       21597.916      7593.4726      9052.4678      6223.7319      626.23251      335.65847     -379.51018    
 211536000   264.12841     -400.77617     -312.31612     -400.79476      0              5194.823       31.007999      21.374731      32.445511      21504.484      4117.1574      5862.468       5604.8438      515.89715     -1608.4559     -519.35525    
 211538000   278.5838      -402.11854     -308.8172      -402.12874      0              8845.3868      31.007999      21.374731      32.349907      21441.119      8516.3556      9442.2173      8577.5875     -142.63653      987.87279     -392.58955    
 211540000   274.22194     -401.74434     -309.90384     -401.73407      0              7731.4975      31.007999      21.374731      32.538312      21565.991      8843.2686      6497.4028      7853.8211      626.6386      -17.003896     -2026.1948    
 211542000   276.31174     -399.11476     -306.57436     -399.12271      0              5745.1719      31.007999      21.374731      32.714486      21682.757      7175.6942      7249.482       2810.3395      1710.781       734.49557     -2386.8256    
 211544000   276.11318     -402.76077     -310.28687     -402.80055      0              7026.1585      31.007999      21.374731      32.50595       21544.542      5955.0276      8169.9778      6953.4703     -649.57548     -98.716704     -142.12757    
 211546000   279.74717     -403.24893     -309.55796     -403.24715      0              7759.103       31.007999      21.374731      32.458653      21513.194      7255.7198      8588.3672      7433.222      -550.65606      1730.9236      776.00726    
 211548000   277.11141     -403.77981     -310.97158     -403.7954       0              6642.0373      31.007999      21.374731      32.34277       21436.388      7338.1295      6956.3993      5631.5832      1324.0895     -633.05051     -473.9468     
 211550000   280.59704     -400.66239     -306.68679     -400.69109      0              6815.8924      31.007999      21.374731      32.531502      21561.477      7248.0808      6946.4981      6253.0981     -1268.8536      249.5974       114.00606    
 211552000   269.02054     -403.12243     -313.02395     -403.15894      0              7245.3556      31.007999      21.374731      32.712524      21681.456      7829.569       6552.6057      7353.8922      536.07049     -564.80772      493.77964    
 211554000   280.21308     -403.92335     -310.07634     -403.94593      0              7645.5667      31.007999      21.374731      32.680782      21660.419      9869.7805      7047.9169      6019.0028     -553.53311     -1225.241      -977.83739    
 211556000   281.58793     -401.28086     -306.97339     -401.32059      0              6281.2863      31.007999      21.374731      32.59625       21604.392      7601.4356      5695.2103      5547.2131      1311.6148      684.7311       719.17931    
 211558000   271.62012     -404.42657     -313.45745     -404.46217      0              5274.8168      31.007999      21.374731      32.963492      21847.795      4116.3795      7582.0965      4125.9743     -577.85194     -735.46471     -1244.3354    
 211560000   263.63335     -402.16852     -313.87428     -402.19055      0              6530.4226      31.007999      21.374731      32.794824      21736.004      6067.2469      7739.1959      5784.8251     -1002.9482     -1058.9704     -1912.3604    
 211562000   275.7305      -402.36927     -310.02353     -402.34181      0              6157.7329      31.007999      21.374731      32.59137       21601.157      7010.8829      6638.6815      4823.6342      86.307789     -451.58747     -1250.4811    
 211564000   276.66007     -403.03371     -310.37664     -403.10198      0              5481.6657      31.007999      21.374731      32.55662       21578.126      4934.0164      5917.2945      5593.6863     -330.06496     -1980.7924     -412.57127    
 211566000   269.74472     -404.01511     -313.67408     -404.04563      0              7013.3217      31.007999      21.374731      32.412177      21482.39       7263.9925      5605.7716      8170.2012     -634.45521     -1246.2686      972.63318    
 211568000   275.43865     -403.73478     -311.48679     -403.73531      0              5660.855       31.007999      21.374731      32.547009      21571.755      5689.4951      5504.0232      5789.0468     -1534.1223      610.88843      413.34019    
 211570000   270.86381     -400.72819     -310.01237     -400.77143      0              7050.5855      31.007999      21.374731      32.600681      21607.328      7980.1803      7841.8795      5329.6966     -968.60298      1276.6298     -23.315562    
 211572000   282.2144      -401.89684     -307.37956     -401.91274      0              5802.2925      31.007999      21.374731      32.628671      21625.88       4728.4731      7381.3386      5297.0657     -3.6820661     -28.698852      1094.4795    
 211574000   281.903       -400.59129     -306.1783      -400.60986      0              4407.8514      31.007999      21.374731      32.731819      21694.245      5647.3586      4260.5063      3315.6892      1295.0639     -1349.0145     -727.70659    
 211576000   277.16953     -400.13795     -307.31026     -400.16803      0              4847.7181      31.007999      21.374731      32.560752      21580.864      3733.8946      6130.4053      4678.8543     -843.59665      1712.9226     -54.32988     
 211578000   276.50018     -401.55547     -308.95196     -401.59186      0              6259.3968      31.007999      21.374731      32.584558      21596.642      7128.7989      5278.451       6370.9405      264.42435      145.77495      283.11648    
 211580000   280.94208     -399.67526     -305.5841      -399.67063      0              7423.0909      31.007999      21.374731      32.484807      21530.528      8095.5738      6662.4366      7511.2624      477.17982      2097.2014      1716.2705    
 211582000   277.22903     -400.4218      -307.57418     -400.44415      0              5208.1738      31.007999      21.374731      32.660139      21646.736      4717.881       5281.4901      5625.1503     -1391.9523      1468.2897      134.53458    
 211584000   276.32271     -398.60746     -306.06338     -398.6412       0              3923.4264      31.007999      21.374731      32.738486      21698.664      4806.5286      4142.5639      2821.1865      1466.1695      409.51679      575.13967    
 211586000   271.21909     -403.67262     -312.83781     -403.63328      0              5214.9566      31.007999      21.374731      32.575255      21590.476      3762.6175      4805.9612      7076.2913     -616.53046     -1285.339       1483.6082    
 211588000   269.38485     -405.08776     -314.86727     -405.07375      0              6309.1324      31.007999      21.374731      32.469551      21520.417      4009.9102      6300.9373      8616.5496     -649.60543      523.23911     -263.71567    
 211590000   276.09306     -402.74552     -310.27835     -402.73956      0              6564.8859      31.007999      21.374731      32.549896      21573.668      5013.9339      7277.8729      7402.8508     -1475.1081     -265.42027      1942.721     
 211592000   274.1919      -403.11038     -311.27994     -403.14716      0              6876.3712      31.007999      21.374731      32.753592      21708.676      5182.6561      6915.0467      8531.4109      1743.5299      1392.6213     -505.93795    
 211594000   276.05468     -403.8282      -311.37389     -403.83753      0              6250.5375      31.007999      21.374731      32.813392      21748.31       3560.4173      7393.9456      7797.2497      1471.2029      1118.7912      966.16696    
 211596000   271.94704     -401.35627     -310.27766     -401.41959      0              5443.7461      31.007999      21.374731      32.883513      21794.786      5337.0556      4742.9005      6251.2821     -151.16894      1502.1469      1011.2375    
 211598000   263.72092     -402.01309     -313.68952     -402.03349      0              6072.9866      31.007999      21.374731      33.022251      21886.739      6058.9172      3954.816       8205.2264      1396.6099      1007.3075      1026.1162    
 211600000   280.59799     -404.45421     -310.47829     -404.463        0              4818.6476      31.007999      21.374731      32.957321      21843.705      6352.7989      3008.6486      5094.4953      348.99109      494.04886      1216.5664    
 211602000   278.25456     -405.75599     -312.56491     -405.82385      0              6280.3138      31.007999      21.374731      32.821467      21753.662      7558.8995      5327.3225      5954.7193     -41.216986     -264.83447     -1162.8073    
 211604000   276.8287      -405.85844     -313.1449      -405.89971      0              4057.5624      31.007999      21.374731      32.890765      21799.593      5053.1029      4650.0674      2469.5168     -219.2352      -929.38011     -951.0194     
 211606000   272.65344     -402.20365     -310.88845     -402.21295      0              4503.28        31.007999      21.374731      32.980081      21858.79       3770.4261      4926.9669      4812.447       344.75372     -206.16807      1522.3027    
 211608000   274.41537     -403.39674     -311.49146     -403.45019      0              6727.9869      31.007999      21.374731      32.810403      21746.329      6776.6924      5637.8078      7769.4604      11.223668      796.02718     -191.04265    
 211610000   278.16138     -401.83129     -308.67141     -401.86199      0              5609.5331      31.007999      21.374731      32.747         21704.306      5134.1435      5508.2283      6186.2276     -699.8771       1583.95       -32.853282    
 211612000   280.95419     -404.86203     -310.76681     -404.86667      0              7020.2201      31.007999      21.374731      32.803279      21741.608      7080.7627      7464.3778      6515.5199      221.75496     -697.06567      1524.6127    
 211614000   276.3664      -399.86636     -307.30765     -399.90566      0              4949.7329      31.007999      21.374731      32.762261      21714.422      3533.2264      5980.0642      5335.9079      811.51358      635.28606     -1515.8893    
 211616000   281.61639     -402.57909     -308.26209     -402.63491      0              5472.1251      31.007999      21.374731      32.689169      21665.977      5799.0592      5921.7803      4695.5359      168.75119     -76.903689      749.9484     
 211618000   274.67435     -402.3003      -310.30828     -402.2911       0              5669.3514      31.007999      21.374731      32.577237      21591.79       2754.7536      8005.6954      6247.6052     -54.732743     -279.81523      108.05483    
 211620000   278.25381     -402.46499     -309.27416     -402.4735       0              6726.5858      31.007999      21.374731      32.551614      21574.808      5864.8908      7053.9223      7260.9443      1451.359      -280.39682     -345.79234    
 211622000   273.36785     -401.53045     -309.97599     -401.52922      0              5874.7561      31.007999      21.374731      32.470225      21520.864      6636.5078      3304.9062      7682.8543      324.07577     -442.78187      336.1037     
 211624000   275.27098     -402.97219     -310.78035     -402.94699      0              7018.1626      31.007999      21.374731      32.392104      21469.086      8575.4505      4960.4401      7518.5973     -305.98883     -75.855761      536.89059    
 211626000   275.70303     -401.67464     -309.3381      -401.64542      0              6245.0123      31.007999      21.374731      32.580068      21593.666      3600.5589      7684.9654      7449.5124     -190.92491      1926.9267      1204.8173    
 211628000   271.89056     -400.34016     -309.28047     -400.31031      0              8635.9961      31.007999      21.374731      32.396369      21471.913      9126.3045      8854.7671      7926.9169     -1352.0363      769.76713      10.795667    
 211630000   280.69407     -400.35281     -306.34471     -400.38165      0              5649.9799      31.007999      21.374731      32.612559      21615.201      5929.8821      5809.6154      5210.4423      528.59772      360.83521     -289.62482    
 211632000   281.36689     -399.84382     -305.61038     -399.82673      0              5572.54        31.007999      21.374731      32.570816      21587.534      5483.6673      4958.9624      6274.9904     -446.22132      83.123778      433.57637    
 211634000   280.21409     -401.20213     -307.35477     -401.19326      0              5866.8783      31.007999      21.374731      32.569889      21586.92       6833.9973      5643.4328      5123.2047      570.63778     -241.64527      1504.4936    
 211636000   272.97057     -399.18777     -307.76637     -399.19334      0              5588.5634      31.007999      21.374731      32.624458      21623.087      6135.2012      5140.9167      5489.5724     -388.05202      2825.0274     -1443.2426    
 211638000   270.38475     -404.01946     -313.46408     -404.04476      0              5297.9894      31.007999      21.374731      32.72559       21690.117      3106.301       7651.4318      5136.2354     -147.36624      1272.2615      152.80346    
 211640000   273.827       -400.25277     -308.54454     -400.26563      0              6971.4902      31.007999      21.374731      32.587075      21598.31       8822.6649      6805.4788      5286.3267      945.21218     -56.874189     -624.51574    
 211642000   274.92158     -401.83383     -309.75901     -401.84921      0              5055.9009      31.007999      21.374731      32.585423      21597.216      4939.7845      6945.006       3282.9121      1162.0117      305.75576      582.84253    
 211644000   277.26734     -406.80307     -313.94262     -406.82161      0              3806.8926      31.007999      21.374731      32.529798      21560.348      3821.2029      4456.6428      3142.8319      1169.394       2487.4759      2440.2987    
 211646000   271.92193     -404.87702     -313.80682     -404.89831      0              7567.9933      31.007999      21.374731      32.636733      21631.223      5926.9923      7244.251       9532.7365     -104.76215      2149.5599      264.66836    
 211648000   269.63814     -404.68014     -314.37482     -404.668        0              6924.8181      31.007999      21.374731      32.783147      21728.265      5059.6828      7925.6632      7789.1084     -325.48643      472.05077     -1030.0062    
 211650000   275.49962     -403.4195      -311.15109     -403.39954      0              6677.9113      31.007999      21.374731      32.689088      21665.924      5324.7376      6143.7587      8565.2375     -849.13436      39.865843      747.31162    
 211652000   278.65132     -402.83149     -309.50753     -402.80428      0              4360.2074      31.007999      21.374731      32.595816      21604.104      4642.0849      4536.8835      3901.6537     -987.08188      914.6894      -1050.7026    
 211654000   275.64681     -401.60403     -309.28632     -401.58985      0              7442.993       31.007999      21.374731      32.713287      21681.962      8510.6069      7422.0465      6396.3257      138.79212      935.71636     -1224.8701    
 211656000   275.05802     -403.46583     -311.34531     -403.40511      0              7718.092       31.007999      21.374731      32.568022      21585.682      6575.2807      7770.0892      8808.906       394.16988      597.59746     -4.2777681    
 211658000   268.71238     -403.36442     -313.36914     -403.38211      0              4746.418       31.007999      21.374731      32.498105      21539.342      4021.1099      5530.0035      4688.1406     -322.14777     -350.10383     -450.45403    
 211660000   277.09746     -404.07528     -311.27173     -404.06959      0              5526.0533      31.007999      21.374731      32.635043      21630.103      3043.4729      5215.4901      8319.1969      2417.0412     -705.95749     -303.80025    
 211662000   278.30421     -406.67665     -313.46894     -406.65516      0              3503.7         31.007999      21.374731      32.652355      21641.577      3946.8493      3671.5215      2892.7292     -573.90508      431.97478     -752.21476    
 211664000   277.88493     -403.61582     -310.54853     -403.64694      0              8100.0572      31.007999      21.374731      32.824591      21755.733      10412.258      6096.3515      7791.5619      94.280985      202.88661     -1237.3961    
 211666000   279.56834     -401.87936     -308.24828     -401.92613      0              5602.2481      31.007999      21.374731      32.756489      21710.596      4336.1239      6669.1465      5801.474       43.850179     -279.40228      865.56777    
 211668000   277.92608     -403.82592     -310.74485     -403.79769      0              7511.1116      31.007999      21.374731      32.47131       21521.583      8050.377       5946.7216      8536.2364      1270.787       1609.7774      252.88162    
 211670000   274.54374     -401.92118     -309.9729      -401.89283      0              5306.0139      31.007999      21.374731      32.462604      21515.812      4484.4894      6595.4916      4838.0607     -1023.4382      429.38724     -622.0877     
 211672000   277.34922     -404.34092     -311.45305     -404.2809       0              5749.5841      31.007999      21.374731      32.472089      21522.099      5475.3571      7176.9522      4596.4431      478.57989     -7.3121374      1200.2274    
 211674000   269.02517     -401.02064     -310.92061     -400.98049      0              6178.7849      31.007999      21.374731      32.539955      21567.08       3851.2814      6965.3783      7719.6949     -1297.9931      811.2027       295.67851    
 211676000   277.58375     -402.61863     -309.65222     -402.5973       0              7102.1466      31.007999      21.374731      32.613942      21616.117      6215.8689      6184.1036      8906.4672     -712.78918     -1313.0118      75.055943    
 211678000   273.30383     -402.99546     -311.46244     -402.917        0              6167.7652      31.007999      21.374731      32.561782      21581.547      5471.7267      5681.5372      7350.0318      1190.4425      1554.9084      673.2784     
 211680000   270.50839     -407.00267     -316.40589     -406.95447      0              6772.9333      31.007999      21.374731      32.727744      21691.544      6422.4845      8134.4461      5761.8692     -1489.7442     -1054.8132      35.667391    
 211682000   279.97466     -404.22751     -310.46035     -404.21837      0              5517.9305      31.007999      21.374731      32.696825      21671.052      7105.3669      2981.8537      6466.5708      59.743588      1134.5346      1489.2452    
 211684000   272.72399     -403.32778     -311.98896     -403.32739      0              5191.2501      31.007999      21.374731      32.615384      21617.073      4736.1768      4754.4006      6083.1729     -878.42998      1181.2981      1081.5059    
 211686000   274.30327     -401.93804     -310.0703      -401.90353      0              7388.5698      31.007999      21.374731      32.661845      21647.867      6013.7831      7832.0393      8319.8871     -153.26233     -733.06529     -362.94963    
 211688000   269.57722     -404.78981     -314.50488     -404.78351      0              5272.1726      31.007999      21.374731      32.619039      21619.496      4400.688       5433.9784      5981.8513      33.913657      389.85235     -73.456273    
 211690000   267.42835     -406.78484     -317.2196      -406.75178      0              6336.5704      31.007999      21.374731      32.406624      21478.71       5995.3551      6703.8787      6310.4773     -976.14779      693.794       -654.53954    
 211692000   270.69636     -403.23153     -312.57179     -403.24801      0              5998.3527      31.007999      21.374731      32.556565      21578.089      5036.9568      6910.3018      6047.7996     -139.20173     -673.31228     -312.06762    
 211694000   270.92633     -403.229       -312.49224     -403.22641      0              6250.1808      31.007999      21.374731      32.800798      21739.963      7520.0868      5636.2015      5594.2542      1918.1261      470.73654     -82.352348    
 211696000   266.42435     -402.9826      -313.75361     -402.98826      0              6514.1768      31.007999      21.374731      32.530809      21561.018      6067.3492      6006.9501      7468.2311     -1305.2459      1432.493      -1745.7381    
 211698000   280.68571     -405.11199     -311.10669     -405.13372      0              5780.3381      31.007999      21.374731      32.606814      21611.393      3865.4661      5879.9686      7595.5795     -627.08343      809.72854      792.04185    
 211700000   275.08545     -407.11899     -314.98928     -407.12806      0              7353.0525      31.007999      21.374731      32.44095       21501.461      7333.8588      7584.2285      7141.07        2788.5952     -1067.3444     -641.59569    
 211702000   277.4133      -404.50144     -311.59211     -404.5236       0              7241.1749      31.007999      21.374731      32.660131      21646.731      6636.9304      6898.6689      8187.9254      497.68981      465.35637     -69.327466    
 211704000   276.8908      -408.18264     -315.4483      -408.19906      0              5271.304       31.007999      21.374731      32.655868      21643.906      7092.5645      5685.4432      3035.9043      2098.1458      437.36522     -733.734      
 211706000   278.40579     -403.94788     -310.70615     -403.96893      0              6150.803       31.007999      21.374731      32.592103      21601.643      7696.1544      4349.0599      6407.1948      255.76837     -1902.1843      1950.1056    
 211708000   275.97137     -402.14987     -309.72346     -402.18566      0              7833.222       31.007999      21.374731      32.67933       21659.456      8087.377       8807.967       6604.322      -166.67278     -568.88582     -491.9587     
 211710000   270.69378     -402.22936     -311.57049     -402.25589      0              6309.7942      31.007999      21.374731      32.603601      21609.264      6099.3744      5551.7688      7278.2394      2567.0628     -610.31353     -446.67992    
 211712000   278.54152     -405.11721     -311.83003     -405.12365      0              8313.7746      31.007999      21.374731      32.650684      21640.47       10181.257      6449.815       8310.2514     -1560.4889     -1192.7849     -130.11517    
 211714000   269.43752     -403.9174      -313.67926     -403.88519      0              4792.1981      31.007999      21.374731      32.619481      21619.789      3727.1665      7097.5198      3551.9081      1802.0244      102.67978     -1127.3423    
 211716000   274.57905     -404.02133     -312.06123     -404.04282      0              5140.392       31.007999      21.374731      32.874398      21788.745      5560.5391      5217.4544      4643.1824     -73.96221       1483.429      -1241.1597    
 211718000   269.04164     -403.63822     -313.53267     -403.6353       0              7833.2316      31.007999      21.374731      32.796725      21737.264      8528.9519      7195.2582      7775.4847      686.94316      816.87893     -807.20633    
 211720000   273.91705     -403.25169     -311.5133      -403.23589      0              6327.0267      31.007999      21.374731      32.755782      21710.128      6575.0714      5629.7055      6776.3033     -974.62757     -1999.8105     -506.70261    
 211722000   281.75732     -403.51893     -309.15474     -403.53156      0              4927.2583      31.007999      21.374731      32.821993      21754.011      6071.2093      6458.366       2252.1997      835.2572      -481.76267      594.96234    
 211724000   273.87805     -405.9873      -314.26197     -406.00673      0              3439.6334      31.007999      21.374731      32.922059      21820.334      2849.5381      3159.5797      4309.7824     -274.64132      21.550464     -839.2681     
 211726000   276.39796     -403.25632     -310.68705     -403.28314      0              5977.7563      31.007999      21.374731      32.702557      21674.85       4260.4461      6518.4971      7154.3258     -99.66824       2173.1338     -225.22976    
 211728000   274.1978      -402.51886     -310.68644     -402.50254      0              5249.3535      31.007999      21.374731      32.581499      21594.615      4738.6076      6071.3975      4938.0553      846.1025       1573.8137     -289.3128     
 211730000   275.14596     -403.5926      -311.44263     -403.56155      0              5357.2602      31.007999      21.374731      32.572646      21588.747      4627.6317      4725.646       6718.5028      28.500688      872.6428       741.47631    
 211732000   279.44768     -402.25901     -308.66834     -402.22624      0              6783.812       31.007999      21.374731      32.582692      21595.406      5708.6524      6958.9164      7683.8671     -132.59307      1091.9064     -80.981041    
 211734000   273.49884     -402.96936     -311.37103     -402.99241      0              6350.7517      31.007999      21.374731      32.642335      21634.936      5857.2303      6361.3999      6833.6248     -1239.2733     -189.23662     -658.92411    
 211736000   271.4006      -405.15168     -314.25608     -405.16798      0              4946.9444      31.007999      21.374731      32.510655      21547.66       7274.2499      3182.4283      4384.1549     -1155.5518      1342.8137     -212.94952    
 211738000   278.52719     -405.81284     -312.53045     -405.82403      0              3448.6892      31.007999      21.374731      32.608306      21612.382      2156.1316      3646.9222      4543.0137     -1962.2514      1751.8081      22.591421    
 211740000   274.24007     -405.00459     -313.15802     -404.96421      0              6304.8331      31.007999      21.374731      32.857693      21777.673      5611.0601      6238.9778      7064.4614     -694.92499      1477.4318     -606.57976    
 211742000   269.2516      -402.13184     -311.95597     -402.14094      0              5394.7092      31.007999      21.374731      32.789921      21732.754      6836.1764      5291.177       4056.7743      755.81409      489.03291     -1056.0098    
 211744000   272.91372     -402.67742     -311.27506     -402.66094      0              6518.5874      31.007999      21.374731      32.545488      21570.747      6358.6227      5003.5272      8193.6124     -698.50908      507.35347      83.580768    
 211746000   273.90129     -401.22535     -309.49224     -401.20792      0              5627.6555      31.007999      21.374731      32.713118      21681.851      6044.9296      5547.1056      5290.9313      485.1258      -613.13273     -954.87669    
 211748000   274.00193     -403.71077     -311.94395     -403.77906      0              4005.5636      31.007999      21.374731      32.748468      21705.28       3107.318       3520.1379      5389.235       1449.3747      896.51413      1611.1577    
 211750000   273.09536     -402.54616     -311.08296     -402.58263      0              6322.7948      31.007999      21.374731      32.825245      21756.167      7724.0132      6227.7469      5016.6244     -97.39702       74.729487     -363.0963     
 211752000   270.05333     -401.0654      -310.62102     -401.11463      0              4329.4455      31.007999      21.374731      32.65641       21644.265      5042.7414      5293.3021      2652.2931     -1205.0669      225.25422     -497.60074    
 211754000   283.4798      -401.23781     -306.29673     -401.2817       0              5467.7248      31.007999      21.374731      32.616717      21617.957      6704.4953      4288.9572      5409.7218      258.63653      1006.7392     -607.56112    
 211756000   275.64001     -401.23441     -308.91898     -401.25464      0              7829.6829      31.007999      21.374731      32.575453      21590.607      8835.5179      9448.6962      5204.8347      682.06703      395.61778     -670.68005    
 211758000   273.41753     -403.28651     -311.71541     -403.3          0              7183.117       31.007999      21.374731      32.672138      21654.689      7216.1523      5979.6921      8353.5066     -1071.2698     -1092.4861      883.16276    
 211760000   278.34289     -402.35704     -309.13638     -402.37908      0              5137.0214      31.007999      21.374731      32.581542      21594.644      6153.8081      4392.1693      4865.0869      547.84444     -868.23875     -633.50137    
 211762000   275.57741     -401.58414     -309.28968     -401.5819       0              6976.7924      31.007999      21.374731      32.39613       21471.755      4878.435       7700.5603      8351.3819      946.627        14.671431     -1981.9427    
 211764000   276.60687     -401.98804     -309.34879     -402.07433      0              5697.7083      31.007999      21.374731      32.53374       21562.961      5754.4599      4536.5999      6802.0652      127.99896      1619.6612      947.98376    
 211766000   278.47214     -404.67852     -311.41457     -404.69327      0              5572.7541      31.007999      21.374731      32.545549      21570.788      5589.2118      5590.3038      5538.7465      528.02469     -1210.281      -1637.3073    
 211768000   276.27154     -402.57299     -310.04605     -402.53347      0              6235.3779      31.007999      21.374731      32.396906      21472.269      7358.6149      7463.7846      3883.7343      1635.5224     -1362.7064      676.37575    
 211770000   273.84571     -402.88725     -311.17276     -402.87336      0              6655.4848      31.007999      21.374731      32.495168      21537.396      6223.9004      6846.5149      6896.0391      939.0628      -254.16052     -279.34457    
 211772000   275.9546      -402.59818     -310.17739     -402.60435      0              5269.398       31.007999      21.374731      32.600586      21607.265      6543.9819      5407.1069      3857.1053      870.49343     -1424.3546      48.22862     
 211774000   270.3236      -402.5936      -312.0587      -402.59967      0              3943.5931      31.007999      21.374731      32.591365      21601.154      4377.9947      4145.5153      3307.2693     -987.68699     -358.6323      -928.02033    
 211776000   274.53177     -400.71313     -308.76887     -400.7261       0              5941.373       31.007999      21.374731      32.601986      21608.193      5356.6112      8520.2377      3947.27       -228.76198      1553.8263     -1831.7823    
 211778000   277.95652     -402.50095     -309.40969     -402.52323      0              5906.7105      31.007999      21.374731      32.717883      21685.008      5999.1453      5941.8672      5779.119      -912.86975      295.0546      -7.7718574    
 211780000   270.40329     -401.20354     -310.64196     -401.2177       0              5190.2692      31.007999      21.374731      32.668906      21652.547      5830.1733      3575.9458      6164.6885      1583.9267      69.468524      682.65087    
 211782000   270.47557     -404.85476     -314.26896     -404.81101      0              5556.9931      31.007999      21.374731      32.798392      21738.369      4534.5506      6627.6479      5508.7809     -668.36587      1400.4025      139.222      
 211784000   274.06503     -403.13793     -311.34998     -403.07194      0              6224.2977      31.007999      21.374731      32.564608      21583.419      4763.4379      7313.4912      6595.9641      15.109863      601.75971     -513.04966    
 211786000   266.13376     -403.33559     -314.20392     -403.33122      0              7678.369       31.007999      21.374731      32.669399      21652.874      8295.95        7523.106       7216.051       656.65111     -1218.0885      726.47379    
 211788000   274.4379      -401.93096     -310.01813     -401.89638      0              8473.4974      31.007999      21.374731      32.400247      21474.483      9974.7632      8425.7501      7019.9791     -1521.3824     -1951.8629      1292.4894    
 211790000   284.05311     -404.09892     -308.96583     -404.01343      0              6845.3381      31.007999      21.374731      32.356696      21445.618      6414.375       6386.6483      7734.9909     -1029.4522     -974.92832      2856.1331    
 211792000   270.47194     -402.04708     -311.46251     -401.98638      0              3566.0643      31.007999      21.374731      32.563717      21582.829      4080.3665      3725.6617      2892.1647     -25.309655      660.77026     -175.85038    
 211794000   275.63553     -402.76834     -310.45441     -402.75885      0              6367.6925      31.007999      21.374731      32.551701      21574.865      4400.4516      7780.804       6921.8219      604.11449      717.10601      442.58314    
 211796000   269.42146     -402.12798     -311.89522     -402.11303      0              6131.722       31.007999      21.374731      32.400777      21474.835      6864.9757      5382.0642      6148.126      -1.2859971     -989.87537     -1832.8883    
 211798000   273.47906     -405.15744     -313.56574     -405.12085      0              7340.293       31.007999      21.374731      32.462878      21515.994      8833.0575      6144.5379      7043.2836     -1008.8228      1577.2293      731.56589    
 211800000   275.96522     -400.99487     -308.57052     -400.9868       0              7305.0939      31.007999      21.374731      32.413267      21483.113      6725.5846      7965.5709      7224.1261      260.04426      417.551       -278.98318    
 211802000   276.88236     -402.20133     -309.46982     -402.20102      0              6841.0787      31.007999      21.374731      32.58625       21597.763      8543.7287      3406.0993      8573.408      -1262.8823      721.82588      735.53468    
 211804000   268.69475     -403.06183     -313.07245     -403.05794      0              5601.2343      31.007999      21.374731      32.670887      21653.86       6265.9547      5308.6182      5229.13        426.20279      1308.399       83.867878    
 211806000   272.23851     -400.62396     -309.44773     -400.65531      0              8659.1887      31.007999      21.374731      32.630794      21627.287      8079.0517      9587.9272      8310.5873      1072.9039     -519.19505      2097.0586    
 211808000   285.34701     -401.61192     -306.04549     -401.63979      0              4790.2606      31.007999      21.374731      32.697581      21671.553      4308.1601      6273.4934      3789.1283     -257.42776      719.46019      105.65202    
 211810000   271.33866     -401.27121     -310.39636     -401.31382      0              5661.9474      31.007999      21.374731      32.710678      21680.233      6364.7255      5918.6211      4702.4957     -62.8476        648.10051     -2160.2647    
 211812000   278.6967      -402.38489     -309.04573     -402.40479      0              4380.4909      31.007999      21.374731      32.953267      21841.018      3412.6226      5724.6453      4004.2049      19.405946     -98.295953      741.32296    
 211814000   281.06074     -400.77063     -306.63972     -400.77729      0              4547.2467      31.007999      21.374731      32.873273      21787.999      3973.4735      4972.2085      4696.0579      723.52225      810.95389      1167.5999    
 211816000   278.33242     -403.24726     -310.0301      -403.24202      0              5184.636       31.007999      21.374731      32.877093      21790.531      4533.7209      4773.0741      6247.1131      1412.1524     -1989.6977      904.37771    
 211818000   265.88053     -401.18649     -312.13964     -401.19645      0              5943.8086      31.007999      21.374731      32.624227      21622.934      7025.5545      5839.5568      4966.3144     -32.85781       8.7140176     -816.00025    
 211820000   278.46965     -402.19114     -308.92802     -402.22337      0              4505.6034      31.007999      21.374731      32.868613      21784.911      5510.5936      4659.1062      3347.1104      156.64958      214.65274     -784.17369    
 211822000   271.76615     -403.00202     -311.98399     -403.02304      0              3694.59        31.007999      21.374731      32.776092      21723.588      2383.5609      5309.7796      3390.4296      465.51356      939.52607     -1573.9598    
 211824000   272.89354     -400.08055     -308.68495     -400.10432      0              4018.4432      31.007999      21.374731      32.648172      21638.805      2485.6185      6143.5965      3426.1147     -493.51665     -627.2628      -151.46514    
 211826000   271.73694     -404.12567     -313.11743     -404.10036      0              8795.9548      31.007999      21.374731      32.669187      21652.733      7795.5191      10772.478      7819.8676      2746.4709      1827.8837      929.21751    
 211828000   274.55878     -401.75522     -309.8019      -401.75073      0              6102.7238      31.007999      21.374731      32.703344      21675.372      5363.2652      6893.1965      6051.7096     -356.25016     -937.00987     -891.21992    
 211830000   276.56643     -402.66253     -310.03683     -402.70124      0              5509.0375      31.007999      21.374731      32.690768      21667.037      4368.5486      7000.9936      5157.5704      171.72481      540.6852      -1167.8237    
 211832000   282.25952     -400.67257     -306.14018     -400.7295       0              6038.5702      31.007999      21.374731      32.838452      21764.92       7429.2447      5708.0987      4978.3671     -471.22687      2282.3531     -2220.0564    
 211834000   276.12253     -400.15654     -307.67951     -400.14184      0              5923.3275      31.007999      21.374731      32.799646      21739.2        3758.4118      7507.7506      6503.8202      1036.5946      147.94282      449.57422    
 211836000   270.78332     -403.31279     -312.62392     -403.31032      0              4272.0434      31.007999      21.374731      32.678512      21658.914      3259.1578      3731.3034      5825.6689      383.17995     -1425.3685     -46.61891     
 211838000   275.35713     -400.96255     -308.74186     -400.99766      0              7623.256       31.007999      21.374731      32.815046      21749.407      8675.609       7584.4278      6609.7313      532.91893      216.25554     -48.953104    
 211840000   273.79993     -402.62842     -310.92925     -402.6207       0              6172.0134      31.007999      21.374731      32.675946      21657.213      3998.0614      5998.0999      8519.8788      157.21619      125.09861      1303.302     
 211842000   270.99178     -403.18021     -312.42153     -403.19616      0              7129.4686      31.007999      21.374731      32.509853      21547.128      8412.9098      5030.589       7944.9069      125.94961     -721.65207     -341.51711    
 211844000   279.47634     -404.06513     -310.46486     -404.09544      0              4539.591       31.007999      21.374731      32.753334      21708.505      4732.5203      3573.2392      5313.0135      996.53665     -795.00728     -1488.1349    
 211846000   273.76878     -399.82666     -308.13793     -399.83629      0              5725.7113      31.007999      21.374731      32.584137      21596.363      7549.3309      3508.7912      6119.0118     -1593.0536      1011.2014     -380.24462    
 211848000   270.59668     -399.08021     -308.45386     -399.09951      0              6610.9069      31.007999      21.374731      32.428105      21492.947      6703.1596      5318.9713      7810.5896      985.74611     -706.54552      469.57133    
 211850000   278.36195     -403.25219     -310.02515     -403.27337      0              6932.1615      31.007999      21.374731      32.386224      21465.189      7180.6346      5454.7488      8161.101       800.104       -668.11972      100.18958    
 211852000   269.91642     -402.76024     -312.36172     -402.73104      0              5983.5316      31.007999      21.374731      32.455827      21511.321      5415.7716      4906.5821      7628.2411     -413.26275     -1003.2081     -1475.449     
 211854000   281.50083     -402.35962     -308.08132     -402.34694      0              5317.4723      31.007999      21.374731      32.563342      21582.581      4644.686       3586.5845      7721.1463     -464.57519     -110.80652     -1263.7567    
 211856000   270.42585     -401.7855      -311.21635     -401.79406      0              8190.1363      31.007999      21.374731      32.460003      21514.089      7737.381       6845.4446      9987.5833      1077.4779     -254.65868     -362.14579    
 211858000   272.34365     -403.87198     -312.66054     -403.85573      0              6188.4707      31.007999      21.374731      32.441725      21501.974      7126.1322      4714.0214      6725.2585     -1367.3715      1588.2344     -1495.3312    
 211860000   279.06665     -401.74927     -308.28621     -401.73573      0              5243.3267      31.007999      21.374731      32.509702      21547.029      4638.0195      4796.5823      6295.3782      470.08366      756.97043      910.89361    
 211862000   279.74299     -403.052       -309.36243     -402.95366      0              3936.916       31.007999      21.374731      32.59715       21604.988      2667.603       3316.4509      5826.6941      1861.118       335.00211      251.31684    
 211864000   276.55892     -405.70094     -313.07775     -405.60908      0              4416.9053      31.007999      21.374731      32.619149      21619.569      2419.5718      4699.2785      6131.8655      1222.5053      2332.1755     -435.03852    
 211866000   271.98201     -400.5044      -309.41408     -400.48076      0              5562.4986      31.007999      21.374731      32.758765      21712.104      5169.9461      5070.8408      6446.7089     -1077.4459     -10.005392     -1293.5655    
 211868000   275.85445     -404.30731     -311.92006     -404.30904      0              5479.7176      31.007999      21.374731      32.83          21759.318      2720.538       6103.6892      7614.9257     -461.63162      1375.2063     -167.16926    
[...]
 213094000   271.62494     -404.58066     -313.60993     -404.53516      0              5293.6939      31.007999      21.374731      32.596007      21604.23       6049.4521      3818.7839      6012.8458      896.98334     -2077.7235      426.69186    
 213096000   270.42549     -403.32378     -312.75476     -403.34617      0              4630.4153      31.007999      21.374731      32.710496      21680.112      3875.463       4146.265       5869.5179      132.7382      -659.35577     -126.93963    
 213098000   277.53997     -401.28546     -308.3337      -401.2888       0              3775.8784      31.007999      21.374731      32.678194      21658.703      5439.7184      4741.3504      1146.5665     -1121.4809     -1699.1198     -823.15123    
 213100000   276.98168     -401.15506     -308.39029     -401.14603      0              5896.9272      31.007999      21.374731      32.662153      21648.071      7205.5386      5319.9531      5165.2898     -2101.1368      21.65271      -1888.8199    
 213102000   269.11572     -401.20377     -311.07341     -401.13874      0              6055.2043      31.007999      21.374731      32.455787      21511.295      6037.5053      8616.8373      3511.2701     -294.08937      589.04102     -712.48581    
 213104000   280.67556     -401.03118     -307.02928     -401.01709      0              6504.9735      31.007999      21.374731      32.570183      21587.115      5839.7484      7040.5975      6634.5746     -168.66367     -109.79582     -2349.4261    
 213106000   275.16953     -401.97094     -309.81307     -401.95624      0              6052.6297      31.007999      21.374731      32.498964      21539.911      5506.5703      6360.2589      6291.0598     -338.62537      274.24096     -1762.3625    
 213108000   279.3022      -399.99869     -306.45674     -399.97161      0              5763.3323      31.007999      21.374731      32.624933      21623.402      4589.398       7578.7222      5121.8767      3079.007       1172.6363     -604.47897    
 213110000   268.43359     -403.52143     -313.61953     -403.41452      0              6036.0225      31.007999      21.374731      32.560232      21580.519      6855.5082      5552.1216      5700.4376     -291.23775     -1072.3168      623.78709    
 213112000   272.37732     -400.46227     -309.23955     -400.41449      0              6183.9622      31.007999      21.374731      32.370508      21454.772      6586.3542      7421.2394      4544.293      -211.84652      840.20352     -244.93905    
 213114000   275.35046     -403.6915      -311.47304     -403.62787      0              7189.3379      31.007999      21.374731      32.399809      21474.193      6687.4703      5922.3038      8958.2397     -967.95131      75.114709     -565.29636    
 213116000   276.59694     -401.22954     -308.59362     -401.16915      0              5608.9129      31.007999      21.374731      32.242347      21369.829      5575.1864      5758.3852      5493.1671     -886.50831      846.72592      1125.8283    
 213118000   281.8361      -401.8054      -307.41482     -401.79863      0              6896.6761      31.007999      21.374731      32.444086      21503.539      6601.5233      6714.7212      7373.7839     -553.89101     -546.89534     -1841.0397    
 213120000   277.59486     -402.51014     -309.54        -402.42236      0              8537.0497      31.007999      21.374731      32.069266      21255.113      9401.1939      8980.061       7229.8944      944.66142     -681.23839     -1800.4448    
 213122000   271.97917     -402.28891     -311.19954     -402.22785      0              5548.5906      31.007999      21.374731      32.309905      21414.606      6559.3222      5244.1587      4842.2909      923.14194     -1287.8517      298.75676    
 213124000   275.32958     -400.20408     -307.99262     -400.22714      0              6241.3371      31.007999      21.374731      32.459384      21513.679      6174.1349      6493.3428      6056.5336     -1518.9674      377.70684      494.0093     
 213126000   272.40564     -401.9236      -310.6914      -401.96143      0              6439.664       31.007999      21.374731      32.448431      21506.419      8724.8736      6023.7686      4570.3497      246.15171     -2094.3168     -1070.1854    
 213128000   275.40876     -405.354       -313.11602     -405.29742      0              5373.6197      31.007999      21.374731      32.351966      21442.483      5427.9977      5767.4504      4925.4109     -1014.0628     -220.21201      502.18667    
 213130000   277.05818     -402.33689     -309.5465      -402.32824      0              4787.0255      31.007999      21.374731      32.50877       21546.411      4553.8336      4389.7614      5417.4814     -397.61385      1596.7797      224.99304    
 213132000   267.28066     -402.09308     -312.57731     -402.1231       0              9354.7464      31.007999      21.374731      32.488463      21532.952      8004.0093      10282.068      9778.1622      1456.6611     -167.19348     -1025.5693    
 213134000   275.73698     -400.87758     -308.52967     -400.87013      0              6992.7306      31.007999      21.374731      32.588052      21598.958      8708.6707      5031.2162      7238.3048      1216.6853      115.74515     -1269.0375    
 213136000   275.46431     -401.0287      -308.77211     -401.01164      0              4329.0012      31.007999      21.374731      32.766112      21716.974      4276.4238      2423.5637      6287.0161     -673.78518      960.52829     -916.3006     
 213138000   281.80482     -401.86806     -307.48795     -401.86451      0              6143.8473      31.007999      21.374731      32.686468      21664.187      6854.3226      4884.7808      6692.4385      445.91322      202.07059      2790.0164    
 213140000   277.03066     -403.71545     -310.93427     -403.66965      0              6954.4396      31.007999      21.374731      32.693859      21669.086      8949.4686      5303.862       6609.9881      434.18433     -1218.7603      486.27035    
 213142000   276.36605     -402.58376     -310.02516     -402.49484      0              6887.1513      31.007999      21.374731      32.540437      21567.399      7449.228       7729.6782      5482.5476      1539.9511      652.01139     -191.43574    
 213144000   276.90506     -403.25658     -310.51746     -403.20226      0              7371.3562      31.007999      21.374731      32.360306      21448.011      9612.5651      7976.0633      4525.44       -530.10354      232.40991     -147.11109    
 213146000   273.19098     -403.84193     -312.34671     -403.79311      0              6352.5608      31.007999      21.374731      32.600464      21607.184      5523.2643      5949.4842      7584.9339      451.86428      124.57649      65.007308    
 213148000   279.4652      -402.48375     -308.88721     -402.48828      0              6737.5639      31.007999      21.374731      32.786773      21730.668      6858.6333      6021.2769      7332.7815      1593.7013      579.56931      3146.1272    
 213150000   267.75363     -402.5316      -312.85741     -402.50546      0              2917.852       31.007999      21.374731      32.714491      21682.76       1825.8801      3682.3334      3245.3425     -876.79476     -231.84869      1911.2504    
 213152000   270.28731     -403.36304     -312.8403      -403.38441      0              4983.5434      31.007999      21.374731      32.645397      21636.966      4246.6423      5451.9588      5252.0291      21.443125      290.57066     -712.36966    
 213154000   285.11143     -401.60098     -306.11344     -401.55953      0              7915.7122      31.007999      21.374731      32.371849      21455.661      7007.8011      7099.4575      9639.8781     -333.47552     -545.53439      1030.4982    
 213156000   271.0725      -403.16064     -312.37493     -403.14429      0              6230.6508      31.007999      21.374731      32.441861      21502.065      7403.22        5882.3465      5406.3858      1156.7052     -351.83367      2395.1155    
 213158000   277.75813     -401.27149     -308.24667     -401.25321      0              6245.6437      31.007999      21.374731      32.661428      21647.591      7374.4477      5774.9377      5587.5456      1993.7505     -1996.5285     -72.690124    
 213160000   280.33768     -404.24185     -310.3531      -404.17507      0              7788.4646      31.007999      21.374731      32.387127      21465.787      7125.7705      8951.4009      7288.2224      601.80285     -805.8038      -196.32292    
 213162000   274.24291     -405.18829     -313.34077     -405.18268      0              5430.6309      31.007999      21.374731      32.602647      21608.631      4949.7917      4566.2436      6775.8575     -1537.4515      816.86734      393.10803    
 213164000   275.69247     -403.57922     -311.24622     -403.56854      0              8599.2994      31.007999      21.374731      32.358688      21446.939      10488.291      8061.8724      7247.7346     -3.7092039     -1112.5824     -694.59865    
 213166000   285.11146     -405.72081     -310.23326     -405.69107      0              8883.3672      31.007999      21.374731      32.357067      21445.864      10638.925      7208.5568      8802.6194      1171.1006     -844.87761     -895.95804    
 213168000   275.12695     -408.01248     -315.86887     -407.94697      0              5406.2983      31.007999      21.374731      32.443394      21503.08       4889.0113      4499.3399      6830.5436      1669.0646      262.62377     -143.31536    
 213170000   282.0347      -400.52323     -306.06613     -400.47908      0              7722.8825      31.007999      21.374731      32.567419      21585.283      7515.1305      6250.9313      9402.5859      198.54727     -563.2906      -186.43095    
 213172000   272.57152     -403.69903     -312.41128     -403.65514      0              6360.327       31.007999      21.374731      32.307568      21413.057      5267.9173      8310.5574      5502.5063      247.8474       362.04924      141.0706     
 213174000   268.38363     -404.78726     -314.90208     -404.74704      0              7431.2908      31.007999      21.374731      32.384334      21463.936      6611.4817      7077.8239      8604.5667     -190.62357      1167.7491     -832.14954    
 213176000   268.72432     -405.94915     -315.94987     -405.88263      0              5959.5481      31.007999      21.374731      32.441493      21501.821      7103.0222      4574.1279      6201.4941     -703.92721     -308.69092      484.95886    
 213178000   274.14957     -406.60632     -314.79006     -406.5447       0              5612.8566      31.007999      21.374731      32.699612      21672.899      7899.0191      4450.2232      4489.3275     -488.14739      971.46404      498.21865    
 213180000   276.47684     -399.2707      -306.67501     -399.28479      0              8004.4565      31.007999      21.374731      32.602182      21608.323      10127.694      6839.7764      7045.8987     -307.80321     -138.0605       2081.038     
 213182000   276.09321     -403.27236     -310.80514     -403.21442      0              5569.0644      31.007999      21.374731      32.542813      21568.974      3866.0231      7253.7659      5587.4043     -544.50793     -1217.5395      790.91822    
 213184000   270.55649     -402.3582      -311.7453      -402.27203      0              7787.4104      31.007999      21.374731      32.467307      21518.93       8316.542       7174.1288      7871.5604     -1535.0159     -328.23312      518.66219    
 213186000   276.17409     -404.63487     -312.14057     -404.56995      0              7420.2085      31.007999      21.374731      32.484868      21530.569      8580.5044      5584.9938      8095.1274     -932.08163     -1774.0064      56.251379    
 213188000   283.08512     -403.9028      -309.09391     -403.87688      0              6837.5821      31.007999      21.374731      32.572664      21588.759      7636.8179      4883.9311      7991.9974      1328.2685     -1111.0109      232.24115    
 213190000   279.6676      -402.24649     -308.58217     -402.24914      0              6207.5181      31.007999      21.374731      32.647796      21638.556      8798.1188      5141.1986      4683.237      -1450.5933      259.46773     -871.78177    
 213192000   278.64526     -401.85424     -308.53231     -401.85661      0              5274.9793      31.007999      21.374731      32.85142       21773.515      5526.9072      4854.2207      5443.8099      720.84232      1074.0434      265.86861    
 213194000   277.68739     -403.42314     -310.42201     -403.45284      0              5176.6221      31.007999      21.374731      32.606781      21611.371      5707.1933      3508.2271      6314.4458      1080.6801     -661.08086     -824.96478    
 213196000   276.31234     -405.73727     -313.19667     -405.65902      0              4653.7416      31.007999      21.374731      32.543102      21569.165      4874.3016      4314.306       4772.6171      2027.6338     -510.0167       326.03004    
 213198000   264.66664     -403.32748     -314.68717     -403.28101      0              4145.8748      31.007999      21.374731      32.825966      21756.644      5176.9255      5990.7388      1269.9601      1093.4143      112.00029     -93.957536    
 213200000   274.95993     -401.82218     -309.73452     -401.84789      0              5795.5771      31.007999      21.374731      32.786294      21730.35       6593.76        6800.0134      3992.9579     -52.218797     -705.27357      333.27748    
 213202000   273.60175     -402.50291     -310.87011     -402.43365      0              4314.9009      31.007999      21.374731      32.761825      21714.133      5775.9835      4541.4458      2627.2735      1383.6061     -252.57749     -660.49088    
 213204000   271.93201     -402.08959     -311.01601     -402.07098      0              7073.2138      31.007999      21.374731      32.67732       21658.124      9050.6577      5821.9606      6347.0232      176.30255     -2749.0951      457.06541    
 213206000   275.61259     -404.98581     -312.67956     -404.93071      0              5389.008       31.007999      21.374731      32.775346      21723.094      6629.777       4147.9276      5389.3195     -893.39883      1204.7668     -1325.3392    
 213208000   274.74877     -400.45215     -308.4352      -400.40963      0              6473.5398      31.007999      21.374731      32.562143      21581.786      6407.1597      5802.3388      7211.1209     -1061.3284      1383.4178     -524.6946     
 213210000   274.82598     -404.22328     -312.18048     -404.22587      0              4132.6417      31.007999      21.374731      32.679188      21659.362      3716.4643      3814.5658      4866.895       912.43125     -487.92499     -1036.5717    
 213212000   267.99487     -403.54722     -313.79224     -403.49971      0              5622.1103      31.007999      21.374731      32.556059      21577.753      6104.546       5097.829       5663.956       737.84017      448.8082      -401.06183    
 213214000   282.5329      -403.81007     -309.18612     -403.73581      0              5644.3832      31.007999      21.374731      32.610343      21613.732      6717.9965      4659.5717      5555.5814     -282.80332     -1202.1288     -148.80519    
 213216000   268.73934     -401.96397     -311.95966     -401.90433      0              4515.4516      31.007999      21.374731      32.661317      21647.517      4100.5362      5619.6012      3826.2176      643.27267      534.71838     -742.63675    
 213218000   266.11155     -403.92975     -314.80552     -403.87303      0              5487.7339      31.007999      21.374731      32.694117      21669.257      5585.5903      3198.0475      7679.5639      105.86137     -559.77896      735.93617    
 213220000   267.54952     -397.3758      -307.76998     -397.41806      0              5794.2829      31.007999      21.374731      32.547122      21571.83       5689.8832      6205.067       5487.8986     -610.53536      1197.334      -568.05012    
 213222000   268.32257     -403.31893     -313.4542      -403.32452      0              5466.8691      31.007999      21.374731      32.387728      21466.186      4280.5202      7075.6681      5044.4189      3154.5108      850.32191     -826.55471    
 213224000   271.75317     -401.27528     -310.2616      -401.30851      0              5515.2674      31.007999      21.374731      32.564298      21583.214      4979.86        5128.9258      6437.0164     -236.35337     -993.73257      278.80574    
 213226000   278.78036     -401.50306     -308.13589     -401.50687      0              6336.5863      31.007999      21.374731      32.524203      21556.64       5700.2584      6502.3675      6807.1331      365.17825      432.16515      418.66576    
 213228000   276.86279     -402.78544     -310.06049     -402.80121      0              5655.1472      31.007999      21.374731      32.40278       21476.162      5853.6151      6553.4501      4558.3765      800.52434      111.24223     -2344.5963    
 213230000   290.08008     -401.68101     -304.52941     -401.73146      0              5575.6718      31.007999      21.374731      32.649579      21639.737      5360.1703      6010.4386      5356.4065     -370.957       -396.27324     -735.72778    
 213232000   275.53481     -403.67456     -311.39436     -403.67993      0              6081.374       31.007999      21.374731      32.545401      21570.69       7427.4459      6122.8762      4693.7999      1584.68       -2390.7371     -698.09012    
 213234000   275.47533     -403.54648     -311.2862      -403.48725      0              8536.6136      31.007999      21.374731      32.49334       21536.184      8101.9118      7540.1564      9967.7725     -492.10872      2193.2928      181.35539    
 213236000   262.65484     -403.02643     -315.0599      -402.98044      0              4796.6105      31.007999      21.374731      32.591944      21601.537      4093.1572      3683.2583      6613.4162      81.179286     -235.31225     -431.0165     
 213238000   288.72718     -405.07814     -308.37965     -404.98465      0              7340.294       31.007999      21.374731      32.502688      21542.38       7704.2414      8026.2936      6290.3471     -166.74854     -1085.5451     -1522.3537    
 213240000   266.80878     -402.44493     -313.08719     -402.41848      0              5195.8626      31.007999      21.374731      32.464881      21517.322      4846.7665      5567.8151      5173.006       684.43881     -255.79134      1270.2262    
 213242000   277.48226     -401.90272     -308.97029     -401.91685      0              8381.2411      31.007999      21.374731      32.609246      21613.005      7987.9864      8412.5426      8743.1943     -1527.3344      508.94337     -927.359      
 213244000   273.18417     -401.19682     -309.70388     -401.24971      0              5876.0301      31.007999      21.374731      32.727228      21691.202      4729.8604      6628.0481      6270.1817      798.76161      3010.0271     -152.99529    
 213246000   275.82264     -401.91719     -309.54059     -401.91211      0              2402.4291      31.007999      21.374731      32.60605       21610.887      2251.1641      3324.9528      1631.1705      609.93195      51.886649     -546.38097    
 213248000   286.90939     -402.80184     -306.71215     -402.79786      0              6726.4096      31.007999      21.374731      32.594821      21603.444      6876.4384      7205.2124      6097.578      -634.70191      300.06453      1121.8643    
 213250000   273.85868     -404.10732     -312.38848     -404.06187      0              6099.3908      31.007999      21.374731      32.438066    