LAMMPS (23 Jun 2022)
include procedure.lmp
echo both
include		in.partitions
variable        pid world 0
include		in.temp
variable	temperature equal 275
variable        tempDamp equal 0.100 # this is 0.1 ps
include		in.pressure
variable        pressure equal 6079.5
variable        pressureDamp equal 1.0 #this is 1ps

variable	barostat string	   tri
variable	direction string   z
variable	direction_x_bool equal 0
variable	direction_y_bool equal 0
variable	direction_z_bool equal 1

include		in.seed
variable        seed world 745823

units           metal
atom_style	full
box tilt large
read_restart 	restart.lmp.${pid}
read_restart 	restart.lmp.0
Reading restart file ...
  restart file = 23 Jun 2022, LAMMPS = 23 Jun 2022
  restoring atom style full from restart
  triclinic box = (0 0 -0.76751817) to (31.007999 21.374731 31.727977) with tilt (-9.165637 1.0104018 -10.807283)
WARNING: Triclinic box skew is large (../domain.cpp:224)
  2 by 1 by 2 MPI processor grid
Summary of lammps deepmd module ...
  >>> Info of deepmd-kit:
  installed to:       /u/sigbjobo/software/DEEPMD_FROM_SOURCE/deepmd-kit/install
  source:             v2.1.3
  source branch:       master
  source commit:      5a32c49
  source commit at:   2022-07-01 09:52:58 +0800
  surpport model ver.:1.1 
  build float prec:   double
  build with tf inc:  /u/sigbjobo/software/DEEPMD_FROM_SOURCE/tensorflow/install/include;/u/sigbjobo/software/DEEPMD_FROM_SOURCE/tensorflow/install/include
  build with tf lib:  /u/sigbjobo/software/DEEPMD_FROM_SOURCE/tensorflow/install/lib/libtensorflow_cc.so;/u/sigbjobo/software/DEEPMD_FROM_SOURCE/tensorflow/install/lib/libtensorflow_framework.so
  set tf intra_op_parallelism_threads: 0
  set tf inter_op_parallelism_threads: 0
  >>> Info of lammps module:
  use deepmd-kit at:  /u/sigbjobo/software/DEEPMD_FROM_SOURCE/deepmd-kit/install
  source:             v2.1.3
  source branch:      master
  source commit:      5a32c49
  source commit at:   2022-07-01 09:52:58 +0800
  build float prec:   double
  build with tf inc:  /u/sigbjobo/software/DEEPMD_FROM_SOURCE/tensorflow/install/include;/u/sigbjobo/software/DEEPMD_FROM_SOURCE/tensorflow/install/include
  build with tf lib:  /u/sigbjobo/software/DEEPMD_FROM_SOURCE/tensorflow/install/lib/libtensorflow_cc.so;/u/sigbjobo/software/DEEPMD_FROM_SOURCE/tensorflow/install/lib/libtensorflow_framework.so
  restoring pair style deepmd from restart
  2592 atoms
Finding 1-2 1-3 1-4 neighbors ...
  special bond factors lj:    0        0        0       
  special bond factors coul:  0        0        0       
     0 = max # of 1-2 neighbors
     0 = max # of 1-3 neighbors
     0 = max # of 1-4 neighbors
     1 = max # of special neighbors
  special bonds CPU = 0.000 seconds
  read_restart CPU = 0.007 seconds
include 	in.setup
variable	out_freq equal 2000
variable	out_freq2 equal 2000

timestep        0.0005

neigh_modify    delay 7 every 1

include         in.deepmd
# This is deepMD model

# create groups ###
#group ox type 2
#group hy type 1

mass 2 15.999
mass 1 1.008

pair_style      deepmd ../graph.pb
pair_coeff      * *

bond_style      none
angle_style     none
dihedral_style  none
improper_style  none
neigh_modify exclude none


neighbor        2.0 bin
neigh_modify    every 50 delay 0 check no

thermo          ${out_freq}
thermo          2000
thermo_style 	custom step temp pe etotal epair emol press lx ly lz vol pxx pyy pzz pxy pxz pyz

restart 	${out_freq} restart.lmp.${pid} restart2.lmp.${pid}
restart 	2000 restart.lmp.${pid} restart2.lmp.${pid}
restart 	2000 restart.lmp.0 restart2.lmp.${pid}
restart 	2000 restart.lmp.0 restart2.lmp.0


timer           timeout 23:50:00 every 1000
New timer settings: style=normal  mode=nosync  timeout=23:50:00


# Set number of time steps
variable 	nsteps_wall		equal	 6000000
variable 	nsteps_enhanced_coex    equal	100000000

variable     nsteps_enhanced_coex_upto equal (${nsteps_wall}+${nsteps_enhanced_coex})
variable     nsteps_enhanced_coex_upto equal (6000000+${nsteps_enhanced_coex})
variable     nsteps_enhanced_coex_upto equal (6000000+100000000)


# Set temperature for first step
if "$(step) < 1  " then    "velocity 	all create ${temperature} ${seed} dist gaussian"


# Always run thermo and barostat


######################################
# Run simulation with wall potential #
######################################
if " $(step) < ${nsteps_wall} " then    "fix             3 all plumed plumedfile plumed.equil.dat outfile plumed.equil.out"   "fix             1 all nph ${direction} ${pressure} ${pressure} ${pressureDamp}"   "fix             2 all temp/csvr ${temperature} ${temperature} ${tempDamp} ${seed}"   "run             ${nsteps_wall} upto"
if " $(step) == ${nsteps_wall} " then    "unfix 3"   "unfix 1"   "unfix 2"


############################
# Run enhanced coesistence #
############################
if "$(step) == ${nsteps_wall}" then    "fix             3 all plumed plumedfile plumed.start.dat outfile plumed.out" else    "fix             3 all plumed plumedfile plumed.dat outfile plumed.out"
fix             3 all plumed plumedfile plumed.dat outfile plumed.out

if "$(step) < ${nsteps_enhanced_coex_upto} && $(step) >= ${nsteps_wall} " then    "include         in.dump"    "fix             1 all nph ${direction} ${pressure} ${pressure} ${pressureDamp}"   "fix             2 all temp/csvr ${temperature} ${temperature} ${tempDamp} ${seed}"   "run             ${nsteps_enhanced_coex_upto} upto"    "unfix 3"   "unfix 1"   "unfix 2"
include         in.dump
dump            myDump all atom ${out_freq2} dump.water.${pid}
dump            myDump all atom 2000 dump.water.${pid}
dump            myDump all atom 2000 dump.water.0
dump            myDump2 all dcd ${out_freq2} dump.${pid}.dcd
dump            myDump2 all dcd 2000 dump.${pid}.dcd
dump            myDump2 all dcd 2000 dump.0.dcd
dump_modify     myDump append yes
dump_modify     myDump2 append yes

fix             1 all nph ${direction} ${pressure} ${pressure} ${pressureDamp}
fix             1 all nph z ${pressure} ${pressure} ${pressureDamp}
fix             1 all nph z 6079.5 ${pressure} ${pressureDamp}
fix             1 all nph z 6079.5 6079.5 ${pressureDamp}
fix             1 all nph z 6079.5 6079.5 1
fix             2 all temp/csvr ${temperature} ${temperature} ${tempDamp} ${seed}
fix             2 all temp/csvr 275 ${temperature} ${tempDamp} ${seed}
fix             2 all temp/csvr 275 275 ${tempDamp} ${seed}
fix             2 all temp/csvr 275 275 0.1 ${seed}
fix             2 all temp/csvr 275 275 0.1 745823
run             ${nsteps_enhanced_coex_upto} upto
run             106000000 upto

CITE-CITE-CITE-CITE-CITE-CITE-CITE-CITE-CITE-CITE-CITE-CITE-CITE

Your simulation uses code contributions which should be cited:

- USER-DEEPMD package:

@article{Wang_ComputPhysCommun_2018_v228_p178,
  author = {Wang, Han and Zhang, Linfeng and Han, Jiequn and E, Weinan},
  doi = {10.1016/j.cpc.2018.03.016},
  url = {https://doi.org/10.1016/j.cpc.2018.03.016},
  year = 2018,
  month = {jul},
  publisher = {Elsevier {BV}},
  volume = 228,
  journal = {Comput. Phys. Commun.},
  title = {{DeePMD-kit: A deep learning package for many-body potential energy representation and molecular dynamics}},
  pages = {178--184}
}

CITE-CITE-CITE-CITE-CITE-CITE-CITE-CITE-CITE-CITE-CITE-CITE-CITE

Generated 0 of 1 mixed pair_coeff terms from geometric mixing rule
Neighbor list info ...
  update every 50 steps, delay 0 steps, check no
  max neighbors/atom: 2000, page size: 100000
  master list distance cutoff = 8
  ghost atom cutoff = 8
  binsize = 4, bins = 11 9 9
  1 neighbor lists, perpetual/occasional/extra = 1 0 0
  (1) pair deepmd, perpetual
      attributes: full, newton on
      pair build: full/bin
      stencil: full/bin/3d
      bin: standard
Per MPI rank memory allocation (min/avg/max) = 6.243 | 6.244 | 6.245 Mbytes
   Step          Temp          PotEng         TotEng         E_pair         E_mol          Press            Lx             Ly             Lz           Volume          Pxx            Pyy            Pzz            Pxy            Pxz            Pyz      
  96083000   277.66358     -404.33613     -311.34298     -404.33613      0              6576.9708      31.007999      21.374731      32.495495      21537.613      6458.4502      6381.4193      6891.043       194.36776      560.13818     -353.34903    
  96084000   278.14732     -402.59097     -309.43581     -402.55334      0              6181.3674      31.007999      21.374731      32.64718       21638.147      4659.3191      5347.5418      8537.2414      54.099856      1722.9333     -903.53282    
  96086000   281.51167     -403.70188     -309.41996     -403.62673      0              6091.666       31.007999      21.374731      32.731067      21693.746      6399.3042      7640.1045      4235.5894     -76.828019     -1823.0897      1890.8557    
  96088000   277.43283     -402.66779     -309.75192     -402.56199      0              5310.5482      31.007999      21.374731      32.471528      21521.727      4201.2867      6368.1441      5362.2139     -838.41813     -580.20246      241.98289    
  96090000   275.60987     -400.98425     -308.67892     -400.92587      0              5843.1694      31.007999      21.374731      32.546948      21571.715      3785.2566      7313.4883      6430.7633      3106.7867     -272.92163      441.08069    
  96092000   277.58138     -398.95199     -305.98637     -398.909        0              4691.0779      31.007999      21.374731      32.921641      21820.057      5652.5205      3576.3259      4844.3874      174.84978     -457.73987     -661.32679    
  96094000   272.56528     -399.33053     -308.04486     -399.26496      0              5976.9088      31.007999      21.374731      32.854925      21775.838      3872.837       7009.5409      7048.3485     -1331.1168      1438.2911      1132.1088    
  96096000   276.86776     -398.61601     -305.88939     -398.52507      0              5378.365       31.007999      21.374731      32.553422      21576.005      5169.0127      8679.8306      2286.2516      525.11723     -943.13477      185.99643    
  96098000   272.24774     -399.28971     -308.11039     -399.22052      0              6306.7525      31.007999      21.374731      32.544842      21570.319      7734.9395      6882.6427      4302.6754     -1645.2985      1365.5052     -1050.5791    
  96100000   274.91842     -401.77253     -309.69877     -401.68703      0              7667.855       31.007999      21.374731      32.571008      21587.662      6625.4251      8402.2262      7975.9135      587.85133      868.03219      267.98041    
  96102000   276.85793     -403.88686     -311.16353     -403.77185      0              6967.0139      31.007999      21.374731      32.648745      21639.185      7646.4944      8165.3802      5089.1673      536.02565     -1238.6679      743.76837    
  96104000   279.06367     -407.45089     -313.98883     -407.33402      0              7407.4305      31.007999      21.374731      32.342743      21436.37       5972.0178      9350.4177      6899.8559      1516.2925      501.35902     -1407.7587    
  96106000   273.51798     -405.56678     -313.96204     -405.45759      0              6412.7929      31.007999      21.374731      32.343674      21436.987      4370.0712      8446.1669      6422.1406     -107.92284      953.67327      148.84714    
  96108000   280.9278      -399.04963     -304.96325     -399.04415      0              6979.4489      31.007999      21.374731      32.591705      21601.379      6269.4857      7650.0077      7018.8532     -747.00153      359.72878     -1620.8618    
  96110000   278.39226     -401.01284     -307.77565     -400.9522       0              5474.5872      31.007999      21.374731      32.427922      21492.826      6042.3905      4554.9993      5826.3717     -358.04425      550.2152      -629.10408    
  96112000   274.20842     -403.15325     -311.31728     -403.03532      0              7306.9502      31.007999      21.374731      32.538185      21565.907      8427.6267      6885.9304      6607.2934     -920.03539      786.77069     -1210.6917    
  96114000   283.00083     -398.8976      -304.11693     -398.88869      0              3710.3581      31.007999      21.374731      32.987272      21863.556      5908.9639      2618.8888      2603.2215      1441.1336      159.68934      1022.5768    
  96116000   277.32304     -399.84436     -306.96526     -399.78727      0              6126.1643      31.007999      21.374731      32.843515      21768.276      6465.5804      5788.2654      6124.647       330.18273      2.5642364      1389.6642    
  96118000   271.71895     -403.15292     -312.1507      -403.03736      0              4306.1591      31.007999      21.374731      32.696862      21671.076      4969.1051      2767.6809      5181.6913     -292.21918      580.35447      60.231943    
  96120000   272.35488     -402.92111     -311.70591     -402.79292      0              5016.4925      31.007999      21.374731      32.778792      21725.378      3911.7892      4681.0019      6456.6865      3.3423415      680.64443     -958.33959    
  96122000   271.7312      -401.87573     -310.86941     -401.7675       0              5506.6358      31.007999      21.374731      32.842491      21767.597      4404.6524      5398.3288      6716.9262      417.56655      548.48093     -1214.5957    
  96124000   263.44436     -402.349       -314.11806     -402.22719      0              6060.6232      31.007999      21.374731      32.772621      21721.288      6278.2928      5647.8482      6255.7285     -1464.2448     -1294.6247      91.74063     
  96126000   274.82324     -402.93579     -310.89391     -402.81179      0              3134.449       31.007999      21.374731      32.924389      21821.878      2613.2611      2299.9825      4490.1035     -1632.3605      817.19921      597.18323    
  96128000   276.33887     -405.30964     -312.76015     -405.17321      0              6916.8053      31.007999      21.374731      32.742989      21701.648      8507.7527      7315.7794      4926.8839     -827.26957     -618.93694      1005.0486    
  96130000   272.9016      -401.15224     -309.75394     -401.02402      0              7308.7154      31.007999      21.374731      32.693974      21669.162      6114.0595      8594.3129      7217.7739      1004.809      -1618.1509     -592.66254    
  96132000   273.44578     -398.25294     -306.67239     -398.15025      0              5201.222       31.007999      21.374731      32.812206      21747.524      5857.4077      4721.9592      5024.2992      739.07695     -2593.0074     -136.86802    
  96134000   281.19455     -399.12488     -304.94916     -399.08529      0              7556.803       31.007999      21.374731      32.695374      21670.09       9018.3711      6057.7078      7594.3302     -1058.9176     -174.90372      80.645239    
  96136000   280.16078     -403.22509     -309.39559     -403.1256       0              7662.5454      31.007999      21.374731      32.44047       21501.142      7551.6995      7295.2842      8140.6525      676.99083     -534.8269      -1344.6727    
  96138000   279.66967     -401.55708     -307.89207     -401.40374      0              7667.7521      31.007999      21.374731      32.523216      21555.986      7866.4573      5017.4012      10119.398      535.32092     -310.18835      369.68553    
  96140000   269.96255     -403.86608     -313.4521      -403.76343      0              5431.1886      31.007999      21.374731      32.697979      21671.816      7543.2124      6051.735       2698.6184     -296.62805     -2462.9569     -62.106792    
  96142000   269.69438     -400.52344     -310.19928     -400.43858      0              7724.7673      31.007999      21.374731      32.704601      21676.205      8374.9134      7513.0909      7286.2977      208.55434     -79.564653      1288.7422    
  96144000   270.90452     -402.43444     -311.70498     -402.30545      0              7947.272       31.007999      21.374731      32.570109      21587.066      7408.5204      7661.4408      8771.855       199.77893     -570.72584     -742.41562    
  96146000   280.39761     -400.94512     -307.03631     -400.86125      0              6692.6378      31.007999      21.374731      32.516048      21551.235      7209.9988      6910.9381      5956.9765      1536.4191     -240.05379     -341.84255    
  96148000   274.39649     -406.54253     -314.64357     -406.38645      0              8317.8747      31.007999      21.374731      32.388978      21467.015      10679.813      7212.4189      7061.3925     -49.110194      291.40141      459.77843    
  96150000   273.06657     -402.3989      -310.94535     -402.29528      0              7369.3238      31.007999      21.374731      32.606677      21611.302      7003.9615      8929.6956      6174.3143     -804.10031     -270.34397     -760.67024    
  96152000   273.40756     -405.23848     -313.67073     -405.09115      0              6587.0401      31.007999      21.374731      32.565712      21584.151      5839.0438      8048.4612      5873.6153      1076.0461     -598.01696     -699.44508    
  96154000   276.09031     -405.92764     -313.4614      -405.77183      0              4840.9075      31.007999      21.374731      32.535842      21564.354      5019.0288      6415.2784      3088.4153     -548.56282      505.78368     -302.16186    
  96156000   267.38977     -401.56379     -312.01147     -401.50412      0              5509.6399      31.007999      21.374731      32.591116      21600.989      5551.4702      6469.5597      4507.8899     -794.80189     -1503.1614      733.72111    
  96158000   280.17659     -403.87986     -310.04506     -403.79642      0              5639.2873      31.007999      21.374731      32.643426      21635.659      3775.5241      7310.5861      5831.7516     -80.217478     -1695.8958     -427.037      
  96160000   270.19361     -403.98683     -313.49546     -403.87272      0              9284.5355      31.007999      21.374731      32.510907      21547.828      7429.1562      7855.5964      12568.854      59.70841      -1170.2831      955.19003    
  96162000   265.87889     -402.83235     -313.78605     -402.70527      0              5834.3744      31.007999      21.374731      32.698732      21672.315      5039.78        6419.3568      6043.9864      330.91173     -645.70978     -1548.156     
  96164000   274.00986     -404.15442     -312.38494     -404.04631      0              6573.1236      31.007999      21.374731      32.713036      21681.796      7548.6034      6683.3077      5487.4598      837.69993      797.42288     -1710.4586    
  96166000   275.82867     -401.66868     -309.29006     -401.59007      0              5962.8239      31.007999      21.374731      32.711608      21680.849      6421.1905      3804.8269      7662.4544      1350.7719      1280.2182      84.947768    
  96168000   273.27949     -401.03316     -309.5083      -400.968        0              6594.3502      31.007999      21.374731      32.590702      21600.715      6629.8285      7272.8793      5880.3429     -668.9715       69.448301      231.91379    
  96170000   274.75645     -402.09318     -310.07367     -402.04892      0              5327.9996      31.007999      21.374731      32.469939      21520.674      5083.3407      4723.5043      6177.1539      977.19228     -179.02523      822.52385    
  96172000   265.92774     -403.30293     -314.24026     -403.18638      0              9108.7347      31.007999      21.374731      32.56403       21583.037      7923.1665      9007.978       10395.06      -859.86496      763.8394      -389.13561    
  96174000   277.59767     -403.82433     -310.85326     -403.68743      0              4676.8599      31.007999      21.374731      32.675582      21656.972      6764.2729      2324.263       4942.0439      1407.4818     -502.65305      1982.2536    
  96176000   272.24099     -400.03182     -308.85476     -399.96759      0              6137.4573      31.007999      21.374731      32.727681      21691.502      7188.0354      4588.52        6635.8165     -652.93849      2087.1511      998.14036    
  96178000   277.1166      -405.08374     -312.27378     -404.94098      0              4420.2972      31.007999      21.374731      32.495856      21537.851      5782.5155      1991.7338      5486.6422      18.57003       907.83768      2402.7864    
  96180000   269.77368     -402.15833     -311.80761     -402.03785      0              7618.142       31.007999      21.374731      32.686757      21664.379      7347.102       7300.6812      8206.6427     -1572.006      -1455.4555     -529.94043    
  96182000   271.96883     -402.66537     -311.57947     -402.54473      0              8133.9438      31.007999      21.374731      32.496813      21538.486      7470.8709      7757.4223      9173.5381      590.04398     -677.22221     -329.17163    
  96184000   269.96532     -400.81413     -310.39922     -400.71774      0              7534.1034      31.007999      21.374731      32.671436      21654.224      5511.8936      7375.8489      9714.5677      1413.7832     -223.16023      52.237323    
  96186000   276.03042     -403.45102     -311.00484     -403.31215      0              6807.2945      31.007999      21.374731      32.629173      21626.212      4173.2077      8217.9568      8030.7189      422.55422      1596.478      -436.58368    
  96188000   270.11782     -400.93636     -310.47038     -400.86499      0              5696.4547      31.007999      21.374731      32.859246      21778.702      5550.8516      5644.286       5894.2263      126.49355     -1282.7516     -706.38045    
  96190000   270.42947     -400.31319     -309.74284     -400.17335      0              3527.2824      31.007999      21.374731      32.755696      21710.07       3510.8348      5101.5379      1969.4746     -1059.7563     -51.461609      982.71997    
  96192000   276.90309     -400.8423      -308.10385     -400.68533      0              7922.2669      31.007999      21.374731      32.781897      21727.436      8595.0183      7448.6822      7723.1002      956.56825     -756.05506      893.1788     
  96194000   281.18027     -403.65856     -309.48762     -403.51836      0              4486.5602      31.007999      21.374731      32.68131       21660.768      4704.2853      4931.5648      3823.8305     -1620.696       966.49598     -550.92784    
  96196000   281.77343     -403.9264      -309.5568      -403.78576      0              7180.1964      31.007999      21.374731      32.447855      21506.037      7403.7577      6085.7358      8051.0959     -300.20994     -636.98158     -1006.1654    
  96198000   273.8115      -399.82269     -308.11965     -399.67786      0              7180.3886      31.007999      21.374731      32.457237      21512.256      7626.8901      5898.2227      8016.053      -193.65118      1624.0303     -692.79078    
  96200000   276.48222     -404.46201     -311.86451     -404.3108       0              6004.1525      31.007999      21.374731      32.548725      21572.893      6897.5953      7475.354       3639.5083     -595.81974     -1620.6275     -659.17558    
  96202000   282.47046     -402.55387     -307.95083     -402.43202      0              7679.1418      31.007999      21.374731      32.554329      21576.607      6996.4118      8628.2263      7412.7873     -407.90857     -1217.7312     -465.20164    
  96204000   276.5924      -403.61987     -310.98547     -403.47725      0              4625.2679      31.007999      21.374731      32.612423      21615.111      5291.5388      2467.3136      6116.9513     -392.87316      636.9962      -243.51412    
  96206000   277.60106     -405.61405     -312.64184     -405.48823      0              5233.0977      31.007999      21.374731      32.616023      21617.497      6174.7009      4278.8132      5245.779      -426.06333     -638.56668     -330.56194    
  96208000   272.61218     -397.59512     -306.29375     -397.46628      0              4916.8133      31.007999      21.374731      32.764267      21715.751      4512.3102      4452.9108      5785.2189     -485.37464      16.128789     -1171.112     
  96210000   270.14        -402.32451     -311.8511      -402.18424      0              4769.0456      31.007999      21.374731      32.642335      21634.936      4966.0806      5177.3968      4163.6594     -1011.0196      240.70909      1160.7263    
  96212000   274.2127      -401.8976      -310.06019     -401.73434      0              4499.1617      31.007999      21.374731      32.56009       21580.425      4209.9165      4307.0977      4980.4709     -620.19945      715.15803     -739.70733    
  96214000   264.77394     -403.49848     -314.82223     -403.37419      0              4158.4101      31.007999      21.374731      32.803833      21741.975      4194.2353      4706.1844      3574.8104     -1240.2632     -1983.7556     -21.540148    
  96216000   281.58604     -401.24055     -306.93372     -401.15088      0              5644.6052      31.007999      21.374731      32.798033      21738.131      4491.4275      5564.2016      6878.1865     -928.61717      981.80996     -591.69363    
  96218000   270.75375     -403.08605     -312.40709     -402.97319      0              5303.4112      31.007999      21.374731      32.77654       21723.886      4350.0621      5338.6477      6221.5238      637.08921     -149.3576       1322.8846    
  96220000   276.12114     -401.68736     -309.21079     -401.57475      0              6493.7789      31.007999      21.374731      32.718307      21685.289      7578.2343      5736.3211      6166.7812      102.987       -988.49187     -848.87059    
  96222000   267.425       -406.23548     -316.67136     -406.08554      0              7642.2537      31.007999      21.374731      32.770737      21720.039      8614.6053      7310.2196      7001.9363     -630.65746     -981.7377       1420.9722    
  96224000   277.81318     -403.29199     -310.24874     -403.16911      0              6518.9622      31.007999      21.374731      32.674441      21656.216      7521.4135      4792.8574      7242.6158      352.35829      128.26279     -339.60951    
  96226000   276.11529     -401.88929     -309.41468     -401.80439      0              5315.0101      31.007999      21.374731      32.529684      21560.272      6234.3286      4660.487       5050.2148     -712.90185      2421.9287      625.75493    
  96228000   276.14834     -402.82817     -310.34249     -402.72487      0              6127.3298      31.007999      21.374731      32.487949      21532.611      5916.5169      5296.0512      7169.4213      1493.9031      370.05172      677.22006    
  96230000   277.26906     -404.44348     -311.58246     -404.30994      0              6651.1604      31.007999      21.374731      32.574931      21590.262      8242.7178      5047.7268      6663.0367      548.4507      -682.08297      416.36067    
  96232000   283.43023     -401.92305     -306.99857     -401.81181      0              5238.4365      31.007999      21.374731      32.697158      21671.272      5312.3531      5067.5162      5335.4402     -1242.0742      453.28996      1139.065     
  96234000   271.61619     -402.20434     -311.23654     -402.02252      0              5870.2274      31.007999      21.374731      32.434746      21497.349      2315.7232      7560.7816      7734.1774      68.732666     -287.88625     -950.52882    
  96236000   267.75167     -401.92961     -312.25608     -401.79066      0              8084.8528      31.007999      21.374731      32.490027      21533.989      8515.4399      7391.8204      8347.298      -861.29345      1126.3695     -896.08424    
  96238000   274.93962     -402.62096     -310.54009     -402.49351      0              6103.4911      31.007999      21.374731      32.600755      21607.378      6496.209       5247.5548      6566.7096     -436.50985      588.39647     -2351.135     
  96240000   270.63928     -404.29555     -313.65493     -404.15989      0              5787.9578      31.007999      21.374731      32.712467      21681.419      5400.2941      5429.0345      6534.5449      1234.8308      394.99192     -117.65579    
  96242000   277.35652     -403.10303     -310.21272     -402.90868      0              5866.1214      31.007999      21.374731      32.583878      21596.191      6042.7842      6634.3553      4921.2248     -241.75483     -692.07648      1383.1996    
  96244000   277.558       -406.11031     -313.15251     -405.93534      0              5969.4866      31.007999      21.374731      32.501952      21541.892      5487.6256      6005.6457      6415.1885     -364.93628      1838.3084     -1218.9186    
  96246000   269.09615     -402.06623     -311.94242     -401.918        0              6922.2606      31.007999      21.374731      32.434464      21497.162      8567.0072      6326.925       5872.8496     -684.80912     -7.9172191     -1267.5867    
  96248000   275.58316     -402.47015     -310.17376     -402.25533      0              5838.7392      31.007999      21.374731      32.496391      21538.206      6706.305       4852.7203      5957.1922     -456.14536      1165.9221      84.560398    
  96250000   267.39765     -405.87396     -316.319       -405.64097      0              6769.3067      31.007999      21.374731      32.226366      21359.237      6708.6948      6092.6019      7506.6235     -2091.9878      368.70091      992.60821    
  96252000   272.56262     -403.7256      -312.44083     -403.52533      0              5309.5078      31.007999      21.374731      32.516642      21551.628      3982.1693      6141.8184      5804.5357      151.18352      768.86314      1309.1657    
  96254000   270.80858     -405.3857      -314.68837     -405.15184      0              6311.4253      31.007999      21.374731      32.459664      21513.864      5862.4974      6059.9381      7011.8403     -1602.9776     -262.56898      859.68653    
  96256000   280.48171     -404.71151     -310.77453     -404.51504      0              5507.4293      31.007999      21.374731      32.565529      21584.03       6911.8953      3976.2076      5634.185      -74.999006     -1566.1348      1149.1101    
  96258000   273.00028     -403.50101     -312.06966     -403.27701      0              6050.5372      31.007999      21.374731      32.48217       21528.781      6830.9887      5439.2806      5881.3423     -1923.7514     -2759.5399      953.37274    
  96260000   265.52021     -404.37615     -315.44997     -404.20935      0              5639.6083      31.007999      21.374731      32.734354      21695.925      5283.1208      6120.585       5515.1189      1538.6603     -1662.344       696.13337    
  96262000   269.27513     -405.4389      -315.25515     -405.24588      0              7387.9102      31.007999      21.374731      32.683648      21662.318      8018.4554      6465.2807      7679.9947      1090.801      -539.43084      702.62407    
  96264000   272.53387     -406.85607     -315.58093     -406.62224      0              5194.0258      31.007999      21.374731      32.523975      21556.489      4911.9526      4585.4213      6084.7034      741.67452     -40.068359     -1070.7111    
  96266000   273.61687     -403.94682     -312.30896     -403.71683      0              5814.3457      31.007999      21.374731      32.689653      21666.298      5443.1058      4893.0235      7106.9078     -79.077942     -341.72884      373.17078    
  96268000   273.79771     -405.63629     -313.93787     -405.40007      0              6540.1383      31.007999      21.374731      32.483869      21529.907      6572.0094      6771.314       6277.0915     -843.24753     -794.23816     -622.0158     
  96270000   274.83757     -405.51083     -313.46414     -405.31922      0              7954.8903      31.007999      21.374731      32.338779      21433.743      7849.1329      9229.9162      6785.6217     -925.76274      787.96774     -1660.2351    
  96272000   270.11091     -405.856       -315.39234     -405.64935      0              4876.2168      31.007999      21.374731      32.532903      21562.406      5862.7912      5009.9498      3755.9093      26.399215     -399.84441      718.55587    
  96274000   273.34156     -400.95422     -309.40857     -400.77225      0              5372.0342      31.007999      21.374731      32.656005      21643.996      5092.9904      5078.2344      5944.8778      1531.628       421.40545     -1217.3055    
  96276000   277.39685     -405.04071     -312.13689     -404.8087       0              7103.9388      31.007999      21.374731      32.452522      21509.13       7953.2848      5829.8684      7528.6632      24.875481     -875.68906      1472.1051    
  96278000   273.82698     -403.17221     -311.46398     -403.00306      0              7670.3479      31.007999      21.374731      32.390568      21468.068      7957.5349      8283.1711      6770.3376     -384.02194     -373.85293      701.25205    
  96280000   279.17819     -405.70679     -312.20637     -405.47051      0              6783.8492      31.007999      21.374731      32.571771      21588.167      7485.5116      5112.8016      7753.2345     -2071.3664     -622.28236      1314.891     
  96282000   277.32689     -403.34299     -310.4626      -403.14508      0              2554.1334      31.007999      21.374731      32.784287      21729.02       3630.9537      3041.303       990.14347     -1121.9429      322.31014      27.21603     
  96284000   271.26719     -402.4081      -311.55718     -402.22818      0              4237.0023      31.007999      21.374731      32.656929      21644.609      5591.3027      3824.1139      3295.5904     -1109.8235     -462.86944      1384.0793    
  96286000   268.87622     -406.43613     -316.38598     -406.23074      0              4407.8559      31.007999      21.374731      32.507734      21545.724      3812.869       5363.9035      4046.7952      989.16497      1904.9202      93.033777    
  96288000   270.14379     -405.06792     -314.59324     -404.87682      0              5879.8858      31.007999      21.374731      32.418624      21486.663      6712.698       7733.9923      3192.9672      1545.1289     -1310.6901     -328.67846    
  96290000   282.9144      -407.57814     -312.82642     -407.35143      0              5282.9521      31.007999      21.374731      32.6651        21650.024      5931.7851      5788.819       4128.2521      1130.7563     -1004.2085     -19.266768    
  96292000   275.97776     -405.46955     -313.041       -405.27679      0              7362.845       31.007999      21.374731      32.616443      21617.775      8754.0406      8722.0706      4612.4238      458.07572     -398.71806     -712.57474    
  96294000   272.26583     -403.37281     -312.18743     -403.13697      0              8129.4645      31.007999      21.374731      32.527915      21559.1        8722.9137      6894.9558      8770.5241      2651.5958      1166.5595      872.04435    
  96296000   271.98253     -400.37378     -309.28329     -400.14272      0              6529.3474      31.007999      21.374731      32.475274      21524.21       7070.3715      5862.1317      6655.5391      919.66349     -778.08355      1412.0252    
  96298000   270.85131     -407.21027     -316.49864     -406.97973      0              4659.083       31.007999      21.374731      32.519146      21553.288      4663.7218      3289.6223      6023.905       11.731         1991.7729      1120.1769    
  96300000   279.7303      -402.71128     -309.02596     -402.47736      0              5561.744       31.007999      21.374731      32.648009      21638.697      5311.7892      4632.4216      6741.0211      546.31359      1313.5143      1673.5142    
  96302000   278.70449     -406.75424     -313.41247     -406.53044      0              6353.0936      31.007999      21.374731      32.815363      21749.617      6892.1907      6720.1562      5446.9339      1733.7554      1292.2663     -1083.2958    
  96304000   273.77274     -404.22808     -312.53802     -404.03183      0              4002.9682      31.007999      21.374731      32.829498      21758.986      3920.4592      3725.4185      4363.027      -278.92388     -1172.2736      405.37162    
  96306000   279.28156     -405.25388     -311.71884     -405.01751      0              4789.8325      31.007999      21.374731      32.851559      21773.607      6364.4925      3451.4142      4553.5907      228.42965     -299.43253      578.73109    
  96308000   272.81475     -403.77007     -312.40086     -403.54799      0              4983.3506      31.007999      21.374731      32.834078      21762.021      4802.5748      5988.7915      4158.6855      817.61096     -838.41197     -680.73937    
  96310000   270.21887     -402.01492     -311.5151      -401.87139      0              6547.7846      31.007999      21.374731      32.927866      21824.183      6757.1954      7175.5898      5710.5686      1671.6349     -700.6785       1743.9748    
  96312000   278.16129     -403.87808     -310.71824     -403.68166      0              4672.5922      31.007999      21.374731      32.835728      21763.115      4410.2956      6758.7271      2848.7539      1014.4645     -262.21139     -946.54505    
  96314000   282.40804     -403.48826     -308.90613     -403.2966       0              6286.9512      31.007999      21.374731      32.813029      21748.07       6276.2639      7232.0068      5352.5829      202.49798      886.89127     -1093.6883    
  96316000   279.82595     -405.09886     -311.38151     -404.87465      0              6745.5996      31.007999      21.374731      32.624902      21623.382      6440.6937      6691.3025      7104.8026      1732.1163     -327.76724     -1295.5024    
  96318000   271.18533     -405.86008     -315.03658     -405.62377      0              5034.6131      31.007999      21.374731      32.799881      21739.356      5624.5721      5172.4965      4306.7707     -816.13398     -147.49903     -22.679341    
  96320000   267.47379     -403.26241     -313.68195     -403.13365      0              5651.6787      31.007999      21.374731      32.769881      21719.472      5811.1921      6399.3861      4744.4578      623.53976      630.94951     -506.1844     
  96322000   275.45552     -406.54327     -314.28963     -406.3506       0              6427.6049      31.007999      21.374731      32.463722      21516.554      6540.1184      5654.5028      7088.1934     -1486.6109      35.719636     -117.42615    
  96324000   276.4999      -404.14191     -311.53849     -403.96482      0              6490.5654      31.007999      21.374731      32.673314      21655.468      8028.5171      5842.8769      5600.3023      1779.5908     -160.41518      346.87919    
  96326000   278.93432     -402.41359     -308.99485     -402.18355      0              5424.9761      31.007999      21.374731      32.636617      21631.146      6499.7658      4955.3716      4819.791       656.86291      1121.7281     -945.78573    
  96328000   283.17107     -402.97257     -308.13489     -402.82309      0              6315.3399      31.007999      21.374731      32.683323      21662.102      8408.2329      5655.266       4882.5207      441.35207     -779.4436       187.94154    
  96330000   276.60923     -402.72369     -310.08365     -402.49372      0              6192.0372      31.007999      21.374731      32.506695      21545.035      6507.4177      7620.5542      4448.1398     -340.54519     -519.46778     -1950.3011    
  96332000   277.88682     -407.12454     -314.05662     -406.90564      0              5595.9901      31.007999      21.374731      32.576592      21591.363      6479.6475      4874.9317      5433.391      -1303.3309     -990.87174      1645.4673    
  96334000   276.7         -402.20068     -309.53025     -402.00433      0              6706.7565      31.007999      21.374731      32.57249       21588.644      4788.3532      8171.7108      7160.2053      670.32556     -235.96077     -119.12338    
  96336000   276.67817     -406.4836      -313.82048     -406.26279      0              5036.2744      31.007999      21.374731      32.60622       21610.999      4970.5257      6613.6358      3524.6618      686.66547     -868.85896      115.88839    
  96338000   279.84        -406.44587     -312.7238      -406.24513      0              5536.5576      31.007999      21.374731      32.554965      21577.028      5858.0641      3697.4256      7054.1831      1175.5664      16.170111     -1026.1508    
  96340000   274.35342     -405.13306     -313.24852     -404.93763      0              6274.1843      31.007999      21.374731      32.584902      21596.87       6085.117       6553.0753      6184.3606      1123.7031     -1636.4063     -1014.4445    
  96342000   273.39334     -405.64816     -314.08517     -405.44593      0              4577.9703      31.007999      21.374731      32.42594       21491.512      5118.1405      5151.6632      3464.1072      36.232913     -1393.1481      638.92321    
  96344000   273.41013     -404.0712      -312.50258     -403.84368      0              6292.2624      31.007999      21.374731      32.509279      21546.748      6554.1611      5458.3879      6864.2383     -139.51771      990.88611      871.81278    
  96346000   283.10865     -402.99568     -308.1789      -402.76354      0              7033.6888      31.007999      21.374731      32.5345        21563.464      7073.8865      5903.9741      8123.2058      476.00308      1001.0424      1547.0244    
  96348000   280.45013     -407.66061     -313.7342      -407.42419      0              6426.9419      31.007999      21.374731      32.425069      21490.935      6295.332       7195.0129      5790.4807      1661.0178     -1693.688      -738.64615    
  96350000   282.08852     -403.20551     -308.73039     -403.00927      0              6434.0273      31.007999      21.374731      32.45929       21513.616      5612.9264      8182.3245      5506.831      -1489.1461     -713.23192     -415.73471    
  96352000   268.5365      -404.68205     -314.74567     -404.44908      0              7171.2643      31.007999      21.374731      32.496602      21538.346      6498.3682      8069.6739      6945.7508      1366.9572     -1053.7316     -1524.4763    
  96354000   271.33254     -404.95822     -314.08541     -404.7218       0              9269.7609      31.007999      21.374731      32.522459      21555.484      7721.684       11507.954      8579.6451      1075.8374     -904.40407     -56.79551     
  96356000   276.83651     -403.64491     -310.92876     -403.4329       0              5924.6204      31.007999      21.374731      32.592105      21601.644      6355.2343      5603.7262      5814.9008      1154.6532      60.840758      154.30306    
  96358000   280.16813     -403.87809     -310.04613     -403.68167      0              9554.7201      31.007999      21.374731      32.571018      21587.668      7918.1394      9710.1483      11035.872     -392.0031      -167.71259     -744.92634    
  96360000   279.39803     -403.75328     -310.17924     -403.56078      0              8501.9366      31.007999      21.374731      32.475721      21524.506      7400.0237      9299.2404      8806.5457      15.170389      731.08239      103.05784    
  96362000   278.19623     -402.23624     -309.0647      -402.04173      0              5950.4428      31.007999      21.374731      32.568515      21586.009      5327.3378      6187.3115      6336.6792      626.74798      442.1859      -613.00347    
  96364000   276.87244     -402.46815     -309.73996     -402.27623      0              6247.3807      31.007999      21.374731      32.552099      21575.129      6715.1014      7672.316       4354.7248     -420.36519     -1534.3097     -998.81511    
  96366000   271.76937     -400.68763     -309.66853     -400.56513      0              4769.6511      31.007999      21.374731      32.723342      21688.627      3183.4074      5259.8016      5865.7444      61.068994      1594.8631      784.90308    
  96368000   270.46519     -400.72025     -310.13793     -400.60207      0              5804.1957      31.007999      21.374731      32.725937      21690.346      6536.1124      5771.2856      5105.1891      520.00212     -628.67213     -308.96599    
  96370000   266.68825     -402.46804     -313.15067     -402.3111       0              5047.1958      31.007999      21.374731      32.948008      21837.532      3559.2773      5057.2632      6525.047      -251.89616      485.52819      1342.8809    
  96372000   284.8261      -403.18947     -307.7975      -403.07304      0              5026.9073      31.007999      21.374731      32.763081      21714.965      4405.2037      5711.9848      4963.5335      821.83178      918.61329      803.83342    
  96374000   277.84095     -398.77488     -305.72233     -398.6585       0              4952.2188      31.007999      21.374731      32.566285      21584.531      5453.7099      4941.7258      4461.2205      459.46575      494.68397     -2137.6952    
  96376000   271.18764     -405.05593     -314.23166     -404.90957      0              8302.9603      31.007999      21.374731      32.620562      21620.505      7827.0015      8422.7857      8659.0936      387.5461       1760.3225      438.48018    
  96378000   279.41316     -400.71779     -307.13868     -400.57803      0              5685.1816      31.007999      21.374731      32.513791      21549.739      7067.9824      4668.6787      5318.8837      444.60766      645.72805      217.92162    
  96380000   270.23529     -403.4718      -312.96648     -403.29048      0              6629.1988      31.007999      21.374731      32.499493      21540.262      5606.5791      6626.1461      7654.8711      1814.2632      1275.429      -596.57089    
  96382000   264.43144     -401.92198     -313.36045     -401.72616      0              5869.2711      31.007999      21.374731      32.604175      21609.644      6510.4397      5645.2078      5452.1658      1413.6678     -6.5733173     -461.82439    
  96384000   272.2764      -401.99022     -310.8013      -401.853        0              4809.6593      31.007999      21.374731      32.60527       21610.37       4088.8974      5357.2266      4982.8541     -506.8952       49.99479       165.96267    
  96386000   276.72622     -404.73449     -312.05527     -404.60136      0              6553.0988      31.007999      21.374731      32.496247      21538.111      5912.618       7752.6101      5994.0684     -1327.1559      1165.4917      600.21217    
  96388000   271.66768     -402.52216     -311.53711     -402.43017      0              4835.5927      31.007999      21.374731      32.590332      21600.469      4607.6551      3702.7186      6196.4044      126.08174      773.54689      181.8565     
  96390000   280.31004     -403.75171     -309.87222     -403.62998      0              3581.137       31.007999      21.374731      32.789096      21732.207      3934.43        4032.5581      2776.423       2119.1765      321.19889      259.67678    
  96392000   272.67418     -403.18984     -311.8677      -403.09984      0              6553.8722      31.007999      21.374731      32.682638      21661.648      6234.4194      6908.3439      6518.8534      259.74264      1333.6749      1985.7412    
  96394000   281.88244     -405.02374     -310.61764     -404.82735      0              8323.0692      31.007999      21.374731      32.42704       21492.241      8055.0828      7029.5859      9884.539       980.2427       327.98271      204.59534    
  96396000   271.88844     -405.31787     -314.25889     -405.20978      0              6282.9994      31.007999      21.374731      32.376983      21459.064      5448.0793      7356.2248      6044.694      -612.82596     -207.14292      147.76445    
  96398000   278.31012     -405.0101      -311.80041     -404.8597       0              8357.3345      31.007999      21.374731      32.510087      21547.284      6630.7958      7590.445       10850.763      310.79739      1464.5328      3012.9031    
  96400000   275.31941     -405.61182     -313.40376     -405.47701      0              4512.3653      31.007999      21.374731      32.668177      21652.064      4556.2955      4257.273       4723.5273      374.52094     -85.007884      65.08826     
  96402000   278.58019     -403.67152     -310.37138     -403.5085       0              4921.5412      31.007999      21.374731      32.396362      21471.908      3203.4093      4596.2435      6964.9708      817.6395      -809.91149     -450.66515    
  96404000   275.36936     -407.7679      -315.54311     -407.55796      0              6232.5186      31.007999      21.374731      32.442265      21502.332      5499.2582      7523.808       5674.4896     -131.18609      410.23742     -378.72765    
  96406000   275.8621      -403.72281     -311.33299     -403.59263      0              8107.2497      31.007999      21.374731      32.455886      21511.36       7704.5503      7834.5392      8782.6594     -550.84535      2889.7274     -918.05817    
  96408000   279.29509     -404.03303     -310.49347     -403.89333      0              4476.9897      31.007999      21.374731      32.572001      21588.319      3921.9547      4948.0186      4560.9958     -535.80653     -380.72776      1089.1819    
  96410000   269.88845     -404.13553     -313.74637     -404.01487      0              6584.9161      31.007999      21.374731      32.490298      21534.168      4085.7906      8874.6551      6794.3026     -86.157521     -325.27144     -996.86077    
  96412000   274.36373     -404.48225     -312.59426     -404.37426      0              5183.7079      31.007999      21.374731      32.597091      21604.949      6572.0862      5342.8023      3636.2353     -761.07554     -398.48894     -548.51652    
  96414000   271.65641     -404.80194     -313.82066     -404.66203      0              6103.2129      31.007999      21.374731      32.591687      21601.367      7259.9896      6019.7014      5029.9476     -1621.3727     -434.21355      392.78639    
  96416000   272.98952     -401.63898     -310.21123     -401.51989      0              5716.8301      31.007999      21.374731      32.729851      21692.941      7857.5046      5980.0154      3312.9704     -2206.4321     -829.901       -1591.1473    
  96418000   267.83967     -405.97385     -316.27085     -405.83671      0              5587.6796      31.007999      21.374731      32.604549      21609.892      4084.6569      7890.0536      4788.3282     -206.03505     -2246.7048      100.77764    
  96420000   275.07313     -404.50005     -312.37448     -404.30425      0              7648.973       31.007999      21.374731      32.500382      21540.851      7416.1692      8103.0557      7427.6943     -573.72708      883.42857     -1370.9388    
  96422000   280.91296     -404.89417     -310.81276     -404.73757      0              4418.4058      31.007999      21.374731      32.781779      21727.358      5332.8062      3145.4099      4777.0013      1393.4206      199.84199      425.5893     
  96424000   275.44939     -404.44584     -312.19425     -404.2929       0              5562.0107      31.007999      21.374731      32.746597      21704.04       6235.8642      5436.1013      5014.0667     -477.21208      941.36413      719.97102    
  96426000   275.26649     -405.86609     -313.67576     -405.72598      0              3869.4375      31.007999      21.374731      32.748051      21705.004      4215.6703      2616.3842      4776.2579      2012.9517     -62.801591      482.44058    
  96428000   267.56663     -401.7943      -312.18275     -401.68179      0              5176.6344      31.007999      21.374731      32.696913      21671.11       6010.1584      4695.5809      4824.1639     -816.42013      54.467228      315.02477    
  96430000   272.20087     -404.26837     -313.10475     -404.13335      0              5403.5048      31.007999      21.374731      32.698361      21672.07       5044.8027      6078.0661      5087.6455      927.53007      104.45758     -1717.0494    
  96432000   278.3697      -408.29228     -315.06264     -408.13563      0              5663.5286      31.007999      21.374731      32.522633      21555.599      5841.9907      5423.2545      5725.3404     -142.25638      2053.3222     -85.896155    
  96434000   275.56262     -403.35287     -311.06335     -403.2172       0              7275.4991      31.007999      21.374731      32.504323      21543.463      5992.3782      8772.3308      7061.7885      452.55539     -960.40295     -694.03033    
  96436000   265.02837     -405.42435     -316.6629      -405.29202      0              6910.28        31.007999      21.374731      32.534411      21563.405      6407.6559      8048.632       6274.5522      2584.2207      18.339015     -2435.6413    
  96438000   272.01885     -402.03487     -310.93221     -401.87836      0              6705.3856      31.007999      21.374731      32.625644      21623.874      6720.3308      7844.8055      5551.0205      1150.5258     -331.69641     -2157.1556    
  96440000   273.93013     -403.44203     -311.69926     -403.29872      0              5902.8912      31.007999      21.374731      32.690218      21666.672      4993.9529      6698.4107      6016.3101     -971.89564      1005.0155      901.18187    
  96442000   276.14711     -402.33841     -309.85314     -402.23812      0              4853.3786      31.007999      21.374731      32.617828      21618.693      4194.0124      5182.6007      5183.5229      546.13696     -299.52447     -698.92259    
  96444000   280.0132      -402.89875     -309.11868     -402.7904       0              7310.4331      31.007999      21.374731      32.75943       21712.545      7980.4544      7329.6905      6621.1543      529.33184     -1481.9047     -771.04182    
  96446000   277.27384     -401.72963     -308.86701     -401.60755      0              5757.9663      31.007999      21.374731      32.640858      21633.957      3544.5347      7688.9425      6040.4217      200.85047      1154.2327      860.63037    
  96448000   278.03761     -400.82348     -307.70506     -400.71395      0              8620.4888      31.007999      21.374731      32.477197      21525.485      10623.323      7582.1283      7656.0153      567.80152     -760.36833      1567.6428    
  96450000   269.42077     -402.02037     -311.78784     -401.90344      0              5578.5235      31.007999      21.374731      32.736732      21697.502      5672.2131      5535.4182      5527.9391      1877.6944     -568.82509     -3.7149188    
  96452000   276.58147     -402.64142     -310.01068     -402.53171      0              5209.9166      31.007999      21.374731      32.746922      21704.255      5893.4343      4397.912       5338.4034     -893.94045     -711.371       -783.74484    
  96454000   272.01752     -405.86796     -314.76575     -405.7111       0              6429.6871      31.007999      21.374731      32.689268      21666.043      6666.6348      7565.0005      5057.4259      672.87145      649.88123     -340.56538    
  96456000   271.27693     -407.87283     -317.01865     -407.70221      0              8007.7974      31.007999      21.374731      32.573308      21589.186      9521.1143      9309.454       5192.8238      315.10846     -1249.6567     -1262.5698    
  96458000   270.97412     -400.45819     -309.70542     -400.38415      0              4633.32        31.007999      21.374731      32.720463      21686.718      6277.2829      2745.804       4876.8731     -425.74865      94.157248     -351.03777    
  96460000   271.23404     -403.66676     -312.82694     -403.56289      0              5355.6716      31.007999      21.374731      32.724621      21689.474      6269.1036      4626.6018      5171.3092     -382.2116       541.72546      1019.0835    
  96462000   275.65795     -403.47568     -311.15424     -403.38278      0              6062.2288      31.007999      21.374731      32.778158      21724.958      5463.1539      5473.0151      7250.5174     -831.24537      726.97447      3034.5468    
  96464000   278.6273      -405.36829     -312.05237     -405.24423      0              5825.2308      31.007999      21.374731      32.825992      21756.662      4326.2426      6581.82        6567.6299      486.25377      1183.4264      997.52157    
  96466000   283.51808     -403.61015     -308.65625     -403.50172      0              6898.0461      31.007999      21.374731      32.874412      21788.754      7303.2715      6801.8732      6588.9937      1081.8321     -1935.1876      424.83542    
  96468000   268.51527     -404.836       -314.90673     -404.75011      0              5118.3075      31.007999      21.374731      32.782356      21727.74       5175.2382      5290.4549      4889.2292     -85.591312     -605.0537       1245.005     
  96470000   275.86424     -404.47163     -312.0811      -404.35378      0              5518.869       31.007999      21.374731      32.927961      21824.245      6488.4977      5776.002       4292.1074     -413.85291      1399.9807     -790.8408     
  96472000   265.9744      -403.9731      -314.89481     -403.84364      0              6162.354       31.007999      21.374731      32.785369      21729.738      4977.5367      7447.6505      6061.8748     -2164.9347     -263.55498     -1295.0255    
  96474000   273.50405     -403.87997     -312.27989     -403.77412      0              5660.641       31.007999      21.374731      32.765107      21716.308      5657.7119      7186.7434      4137.4677     -604.68271     -16.459699      972.68375    
  96476000   274.3958      -402.17961     -310.28088     -402.03998      0              5576.1112      31.007999      21.374731      32.607082      21611.571      5313.3741      6649.5208      4765.4388     -185.59653      2287.0823      546.58334    
  96478000   272.32313     -403.79577     -312.5912      -403.65852      0              5240.4348      31.007999      21.374731      32.612215      21614.973      7072.0252      3262.1261      5387.1531     -1804.7707     -839.89938      193.33439    
  96480000   272.76964     -405.1915      -313.83739     -405.05343      0              4458.0383      31.007999      21.374731      32.699351      21672.725      6613.3766      3942.5924      2818.1458      419.81974      186.28202      125.94163    
  96482000   265.49543     -406.23476     -317.31688     -406.08837      0              6163.4598      31.007999      21.374731      32.375518      21458.093      5672.4206      6484.5942      6333.3646      1328.0848      1148.785      -1854.4775    
  96484000   277.2334      -404.01764     -311.16856     -403.86084      0              8101.1698      31.007999      21.374731      32.472701      21522.505      7498.8848      9640.4195      7164.2052      1148.1205      52.512073      889.37175    
  96486000   277.54499     -405.88845     -312.93502     -405.75671      0              6384.2404      31.007999      21.374731      32.748357      21705.206      4156.5531      6383.2853      8612.883      -1519.2193     -208.16363     -572.19737    
  96488000   268.66037     -402.79136     -312.81349     -402.64227      0              6330.8247      31.007999      21.374731      32.625786      21623.968      6621.109       6506.8131      5864.5521     -331.97293     -1615.5437     -660.49033    
  96490000   272.50403     -404.11956     -312.85441     -403.9272       0              7175.0037      31.007999      21.374731      32.728911      21692.318      5866.5131      6375.0414      9283.4566      430.55813     -1011.1412      985.96654    
  96492000   280.9246      -401.78656     -307.70124     -401.6583       0              6607.7141      31.007999      21.374731      32.697892      21671.759      6011.2861      6574.953       7236.9031     -1755.1527     -387.85422      478.25799    
  96494000   277.30935     -400.64958     -307.77506     -400.50419      0              6103.8961      31.007999      21.374731      32.717131      21684.51       6937.2773      5783.6718      5590.7391     -1482.5942     -2110.728       1404.7403    
  96496000   266.80866     -405.01761     -315.65991     -404.91669      0              3815.5633      31.007999      21.374731      32.949858      21838.758      4748.3213      3589.9869      3108.3815      40.241515     -1152.405       783.02998    
  96498000   277.33274     -405.47523     -312.59288     -405.35037      0              4822.8367      31.007999      21.374731      32.976808      21856.621      4254.4208      3329.3023      6884.7869     -711.89453     -1156.2652     -60.123057    
  96500000   273.15583     -402.38082     -310.89737     -402.26874      0              3808.9581      31.007999      21.374731      32.987812      21863.914      3477.8157      2787.6926      5161.3661      881.19106      511.81272      312.03009    
  96502000   275.9503      -400.88984     -308.47049     -400.88943      0              4095.2736      31.007999      21.374731      32.930679      21826.047      5801.9021      2655.5866      3828.3321      235.91991      184.53511      1878.7038    
  96504000   272.09311     -400.48846     -309.36093     -400.37513      0              7924.5793      31.007999      21.374731      32.599872      21606.792      6831.8547      8912.7624      8029.121      -1678.9219     -3.0869162     -187.00396    
  96506000   278.63441     -402.85256     -309.53427     -402.74788      0              6451.888       31.007999      21.374731      32.812886      21747.975      6360.6572      7969.0353      5025.9713     -1354.3716      778.74299     -194.53667    
  96508000   279.39811     -403.52079     -309.94672     -403.40623      0              7542.0179      31.007999      21.374731      32.71469       21682.892      7373.9865      7409.9044      7842.1628     -408.96711     -576.44586     -1113.532     
  96510000   272.64366     -404.22136     -312.90944     -404.08629      0              5535.479       31.007999      21.374731      32.689369      21666.11       3132.4333      6959.1643      6514.8395      90.536226      3239.8165      419.15492    
  96512000   276.0752      -403.72579     -311.26461     -403.63451      0              6595.4065      31.007999      21.374731      32.732263      21694.539      6530.9908      5507.0202      7748.2085     -1449.3305      1972.2743      107.543      
  96514000   268.99253     -401.95544     -311.86633     -401.85728      0              7519.3617      31.007999      21.374731      32.569911      21586.935      5405.8483      8091.5611      9060.6756      918.33414     -637.47841      1279.0215    
  96516000   275.25998     -402.55728     -310.36913     -402.37595      0              5195.6783      31.007999      21.374731      32.479296      21526.876      6743.4003      4603.0065      4240.628       114.95023     -663.51935     -535.3299     
  96518000   265.88227     -401.74358     -312.69615     -401.60474      0              5924.5732      31.007999      21.374731      32.865085      21782.572      4545.3499      6378.3173      6850.0525      1028.1129      6.1123507     -707.85522    
  96520000   276.29043     -404.45729     -311.92403     -404.29723      0              7269.9742      31.007999      21.374731      32.745057      21703.019      7733.9386      7933.3367      6142.6474      11.793727      1000.8794      116.8632     
  96522000   280.29955     -401.60599     -307.73002     -401.48192      0              5103.0661      31.007999      21.374731      32.577929      21592.248      4580.7152      6268.9597      4459.5235      810.86253     -230.17213     -166.86311    
  96524000   272.72781     -405.90008     -314.55998     -405.70496      0              6296.3849      31.007999      21.374731      32.331597      21428.983      4777.2591      7469.0177      6642.8778      2010.6603      193.99461      1327.2357    
  96526000   278.59454     -402.3722      -309.06725     -402.21531      0              6585.5962      31.007999      21.374731      32.470443      21521.008      5662.2412      6904.1421      7190.4052      790.03159     -235.81182      125.75068    
  96528000   267.02389     -402.28726     -312.85748     -402.13252      0              4983.4944      31.007999      21.374731      32.723462      21688.706      4127.0908      5230.4561      5592.9363     -445.95074      58.027039     -1084.8216    
  96530000   277.84351     -402.03301     -308.97959     -401.87611      0              7920.9309      31.007999      21.374731      32.554099      21576.454      6146.8614      8808.7048      8807.2265      1127.4329      1209.9673     -840.0827     
  96532000   273.98237     -404.5         -312.73973     -404.28051      0              5241.6587      31.007999      21.374731      32.599034      21606.237      3678.4233      6164.0727      5882.48        2828.8864      630.37485     -515.07844    
  96534000   268.37823     -403.94685     -314.06348     -403.81896      0              6414.0998      31.007999      21.374731      32.653174      21642.12       5967.1727      5071.1562      8203.9705      75.20444      -469.89628     -337.9522     
  96536000   275.44404     -403.76409     -311.51429     -403.63149      0              4046.421       31.007999      21.374731      32.617785      21618.664      5079.9294      2602.4774      4456.8563      484.6588      -500.21098      932.59145    
  96538000   281.78687     -400.70253     -306.32843     -400.58308      0              5995.5256      31.007999      21.374731      32.649295      21639.549      6191.45        4800.2961      6994.8308      279.46672      907.75223     -923.07903    
  96540000   275.25482     -404.89588     -312.70945     -404.7532       0              5573.5491      31.007999      21.374731      32.851698      21773.7        4157.2378      6809.0865      5754.3231     -247.14387      2068.245      -665.15111    
  96542000   273.81827     -404.15699     -312.45168     -404.05704      0              6876.019       31.007999      21.374731      32.57064       21587.417      6106.3406      6093.1386      8428.5779      438.4797      -665.24706      628.26988    
  96544000   269.40891     -400.65845     -310.42989     -400.58618      0              4380.9303      31.007999      21.374731      32.837755      21764.458      2968.292       5959.5513      4214.9477      300.15774      535.42412      843.23195    
  96546000   273.51891     -400.33953     -308.73448     -400.26662      0              5837.8179      31.007999      21.374731      32.790311      21733.013      3720.2423      6331.6697      7461.5418     -1019.6359     -31.417809     -67.179733    
  96548000   275.59809     -402.40729     -310.1059      -402.29703      0              4955.4951      31.007999      21.374731      32.918653      21818.076      2387.8067      7274.4829      5204.1958      759.24256      1737.9055      1655.6149    
  96550000   283.84973     -400.65931     -305.59434     -400.55589      0              7135.6096      31.007999      21.374731      32.820247      21752.854      9588.2148      6693.6886      5124.9255     -783.32763     -28.839825     -107.86606    
  96552000   280.56268     -402.5832      -308.6191      -402.50496      0              6344.7107      31.007999      21.374731      32.929872      21825.512      7611.0835      5318.9254      6104.1232     -996.30868     -838.32351      1065.5036    
  96554000   272.24554     -399.25046     -308.07188     -399.1638       0              4780.2327      31.007999      21.374731      32.8337        21761.771      2743.1996      6394.4565      5203.0421     -1003.3955     -397.07428     -727.68558    
  96556000   273.24737     -402.94362     -311.42951     -402.81769      0              6066.3763      31.007999      21.374731      32.82208       21754.069      6960.3888      5910.1324      5328.6078      637.73494     -1665.2525     -423.47968    
  96558000   276.15343     -402.81594     -310.32855     -402.67746      0              4921.005       31.007999      21.374731      32.899012      21805.058      5517.0747      4008.9699      5236.9704     -1003.4353      220.26719     -1461.9416    
  96560000   264.14735     -399.19061     -310.72422     -399.0726       0              4705.4595      31.007999      21.374731      32.776921      21724.138      4452.8583      4431.3369      5232.1833     -64.665121     -45.972226      499.22459    
  96562000   274.69409     -405.18043     -313.1818      -405.05041      0              6356.384       31.007999      21.374731      32.754295      21709.142      4881.8045      4942.0882      9245.2593      67.232114     -444.14061      213.14516    
  96564000   273.14987     -405.42028     -313.93883     -405.27828      0              5916.5853      31.007999      21.374731      32.861913      21780.47       5777.1121      7220.782       4751.8617      793.8861       745.18878     -256.68037    
  96566000   273.39344     -404.4319      -312.86888     -404.24883      0              5831.6661      31.007999      21.374731      32.771383      21720.467      7668.0808      6172.3586      3654.5588     -1001.559      -899.32968     -577.28911    
  96568000   278.37785     -401.31692     -308.08455     -401.1264       0              4286.9354      31.007999      21.374731      32.515749      21551.036      4689.6184      1806.5667      6364.6211      607.31042      1418.1663     -82.219847    
  96570000   273.78687     -404.97567     -313.28088     -404.81289      0              8114.1655      31.007999      21.374731      32.552521      21575.408      9283.9821      6217.039       8841.4753      1179.1842      1196.939      -332.80304    
  96572000   273.58444     -403.65389     -312.02689     -403.49769      0              3636.3241      31.007999      21.374731      32.673881      21655.844      4187.5991      3225.4169      3495.9561      696.68457      263.75998      924.14752    
  96574000   275.45419     -400.21483     -307.96163     -400.09242      0              7726.5803      31.007999      21.374731      32.526016      21557.842      8079.6495      7252.5754      7847.516      -117.90444      239.88853     -194.63352    
  96576000   274.48575     -405.55302     -313.62417     -405.36018      0              5135.4534      31.007999      21.374731      32.436082      21498.234      6048.5817      4600.3158      4757.4627     -1537.2038      509.43731     -64.271411    
  96578000   274.84427     -402.3531      -310.30417     -402.15712      0              6423.8908      31.007999      21.374731      32.289408      21401.02       7875.5442      7051.4708      4344.6574      976.08316     -449.02977     -363.81103    
  96580000   273.41731     -407.58175     -316.01073     -407.40169      0              5636.5302      31.007999      21.374731      32.535791      21564.32       5310.6883      5880.7359      5718.1665      1969.5828     -456.09481     -1766.3201    
  96582000   282.7409      -405.9212      -311.22759     -405.72486      0              8905.737       31.007999      21.374731      32.344836      21437.757      9786.7171      7799.8259      9130.668       1236.1561      182.83809      875.91969    
  96584000   271.71535     -401.94822     -310.9472      -401.79288      0              4357.5153      31.007999      21.374731      32.575093      21590.369      3654.1954      6091.8787      3326.4717      309.26174      1587.9612      462.88263    
  96586000   274.41872     -406.16355     -314.25715     -405.92918      0              6034.8726      31.007999      21.374731      32.629818      21626.64       4509.4069      6970.7128      6624.4983     -6.9639675      262.70867     -468.58616    
  96588000   273.85428     -405.42607     -313.7087      -405.23168      0              4650.5918      31.007999      21.374731      32.62555       21623.811      2965.3121      4796.6434      6189.82       -626.03049      461.37157     -12.899426    
  96590000   276.98165     -408.01909     -315.25432     -407.8604       0              6348.7274      31.007999      21.374731      32.634207      21629.549      6867.9574      5554.8382      6623.3867      1086.9102     -243.34842      386.57832    
  96592000   278.51865     -403.24146     -309.96194     -403.07621      0              5348.3735      31.007999      21.374731      32.684187      21662.675      6285.6209      5999.7202      3759.7794      388.94561      2032.3112     -31.421492    
  96594000   277.93282     -405.55703     -312.47371     -405.36156      0              6577.5569      31.007999      21.374731      32.679187      21659.361      5586.1276      5825.6707      8320.8724     -1246.0852     -96.103597      720.39538    
  96596000   275.05847     -404.40733     -312.28666     -404.26831      0              6307.2749      31.007999      21.374731      32.769849      21719.451      5793.5184      6970.6439      6157.6623      838.79748     -302.98551      751.45437    
  96598000   263.88168     -402.39852     -314.0211      -402.23206      0              6452.0585      31.007999      21.374731      32.704728      21676.289      7842.9201      4902.1622      6611.0932     -217.97655      273.89028      1762.3717    
  96600000   276.31766     -401.19994     -308.65755     -401.02808      0              3798.6343      31.007999      21.374731      32.683309      21662.093      3646.3299      4627.6478      3121.9251     -374.4207      -1521.6096      1085.3626    
  96602000   273.04565     -402.54601     -311.09947     -402.38291      0              5676.2313      31.007999      21.374731      32.618289      21618.998      6918.8507      6540.6253      3569.2179      915.81401      266.79168      270.14293    
  96604000   274.59213     -402.51264     -310.54815     -402.37136      0              7590.932       31.007999      21.374731      32.772199      21721.009      6707.3693      6918.656       9146.7707      1702.7122      469.75021     -950.3604     
  96606000   272.66598     -402.31818     -310.99879     -402.16133      0              6982.5009      31.007999      21.374731      32.642729      21635.197      7816.7148      6024.074       7106.7139     -1495.5241      845.90492     -1392.0866    
  96608000   268.92415     -403.99011     -313.9239      -403.88007      0              4027.4476      31.007999      21.374731      32.76563       21716.654      4120.9307      4513.5053      3447.9069      571.64257      556.28018     -1401.1327    
  96610000   279.59448     -403.74217     -310.10234     -403.63945      0              7273.0976      31.007999      21.374731      32.717534      21684.777      7045.4553      7237.9349      7535.9026     -291.8695      -749.48928     -332.63931    
  96612000   274.88348     -404.19593     -312.13387     -404.08451      0              6857.037       31.007999      21.374731      32.493274      21536.14       7076.0065      6804.907       6690.1975     -1721.5527      279.79229     -2326.833     
  96614000   277.40999     -403.17741     -310.26918     -403.03509      0              4739.7299      31.007999      21.374731      32.723954      21689.032      4286.6841      4345.2524      5587.2532      808.63496     -558.29822      2130.5941    
  96616000   270.57687     -407.22864     -316.60892     -407.04899      0              3672.6882      31.007999      21.374731      32.736855      21697.582      4733.6971      4184.1605      2100.2071     -1250.5157      652.81798      500.35558    
  96618000   266.41737     -402.4949      -313.26825     -402.37547      0              5880.3897      31.007999      21.374731      32.847664      21771.026      6473.2038      5082.4751      6085.4902      148.51002     -690.31038      1656.2923    
  96620000   279.63317     -401.46673     -307.81393     -401.32879      0              6669.3345      31.007999      21.374731      32.707486      21678.117      7031.5412      5742.2471      7234.215      -1395.4848      1364.0746      1067.812     
  96622000   275.64474     -399.17272     -306.85571     -399.06222      0              6022.3696      31.007999      21.374731      32.761408      21713.856      4977.8963      6395.8853      6693.3271      1785.8957      845.50989      204.45085    
  96624000   276.63938     -400.45294     -307.80281     -400.34233      0              4997.7236      31.007999      21.374731      32.694526      21669.528      5394.2935      4635.0668      4963.8105      140.19481      1510.6729     -155.96859    
  96626000   271.13357     -404.90916     -314.103       -404.81601      0              4351.3692      31.007999      21.374731      32.842654      21767.705      4746.3859      3276.3754      5031.3464      882.42319      735.56322     -458.37269    
  96628000   272.53234     -399.21699     -307.94236     -399.09765      0              6338.2205      31.007999      21.374731      32.734161      21695.797      4459.5374      7610.0248      6945.0992      1686.3286     -608.50374      1120.5126    
  96630000   275.67098     -401.7184      -309.39259     -401.62645      0              7532.4861      31.007999      21.374731      32.812306      21747.59       7635.9432      6754.6136      8206.9014     -567.01855      1041.8404      100.33091    
  96632000   278.05609     -401.5971      -308.47249     -401.53904      0              5641.0821      31.007999      21.374731      32.895173      21802.514      6355.2542      4211.7984      6356.1938      681.06124     -767.75343     -1099.9606    
  96634000   275.94736     -402.89954     -310.48118     -402.80898      0              6480.7222      31.007999      21.374731      32.741757      21700.832      7607.9624      4788.8395      7045.3646      806.84117     -201.29145      385.61965    
  96636000   276.4189      -405.0696      -312.4933      -404.95296      0              5573.8204      31.007999      21.374731      32.778228      21725.004      6501.8239      5806.6222      4413.015       1299.2281      869.11872      64.516204    
  96638000   272.74743     -401.43046     -310.08379     -401.3659       0              5975.3313      31.007999      21.374731      33.072872      21920.291      6177.8886      5948.7827      5799.3227      1490.138      -704.48821      877.17652    
  96640000   273.30498     -399.58472     -308.05133     -399.4878       0              6600.8091      31.007999      21.374731      32.758409      21711.869      6386.1636      6466.7649      6949.4989      458.07157      283.72805      1476.5906    
  96642000   266.15995     -402.30115     -313.16071     -402.16431      0              6544.3657      31.007999      21.374731      32.657328      21644.874      7643.4751      4513.3246      7476.2973      833.21227      206.62847     -330.67532    
  96644000   281.28883     -402.823       -308.6157      -402.76437      0              5583.5374      31.007999      21.374731      32.746676      21704.092      5230.4032      5677.2364      5842.9727      216.75683     -211.36252     -1099.6767    
  96646000   281.33332     -402.38817     -308.16597     -402.25019      0              6110.4239      31.007999      21.374731      32.739208      21699.143      4986.2905      7691.5018      5653.4793     -224.72726     -550.58953      744.29284    
  96648000   274.22368     -400.76594     -308.92485     -400.58334      0              6134.186       31.007999      21.374731      32.861645      21780.292      5724.8071      6510.9641      6166.7869      1511.111      -322.06729      1361.2525    
  96650000   274.80384     -401.77364     -309.73825     -401.64714      0              4994.0984      31.007999      21.374731      32.638231      21632.216      4436.2422      5361.7704      5184.2825      216.23481      1139.9934     -1206.2937    
[...]
 103136000   280.44        -404.9119      -310.98889     -404.8482       0              8455.8566      31.007999      21.374731      32.546252      21571.253      8272.8561      7910.6496      9184.0642      164.10047     -881.4112       495.09473    
 103138000   271.40078     -402.75166     -311.856       -402.73901      0              6274.5931      31.007999      21.374731      32.53928       21566.632      3613.1148      7787.832       7422.8323      265.25425     -183.47307     -1767.1681    
 103140000   277.5691      -402.06322     -309.10171     -402.05641      0              6620.9496      31.007999      21.374731      32.521954      21555.149      7114.3061      5992.697       6755.8458      316.34212      1510.2929     -1079.233     
 103142000   276.7748      -403.35642     -310.66093     -403.32285      0              8070.2803      31.007999      21.374731      32.470015      21520.724      9076.54        6258.7333      8875.5678     -708.26477     -1042.1528     -1288.7067    
 103144000   272.50021     -404.15216     -312.88829     -404.12457      0              5661.6016      31.007999      21.374731      32.506388      21544.832      4986.2217      5488.1107      6510.4724      4.8400902      673.05476      819.97606    
 103146000   278.67294     -400.93645     -307.60525     -400.90629      0              7145.3931      31.007999      21.374731      32.581645      21594.712      7772.5016      6749.4856      6914.1922      433.46404     -80.160284      1256.8229    
 103148000   284.49471     -403.20502     -307.92403     -403.187        0              7214.1929      31.007999      21.374731      32.60132       21607.752      6918.9332      6740.1302      7983.5153      656.16029      223.61621      935.16885    
 103150000   267.52421     -404.47983     -314.88248     -404.47756      0              6821.0831      31.007999      21.374731      32.754717      21709.421      9763.2668      5326.6227      5373.3599     -160.03921     -267.47581     -2211.6818    
 103152000   274.79142     -404.37363     -312.3424      -404.3473       0              5585.1244      31.007999      21.374731      32.750333      21706.516      7364.8226      3846.7745      5543.776      -584.90802     -593.59469     -786.80566    
 103154000   280.83147     -401.90756     -307.85344     -401.90203      0              6525.9173      31.007999      21.374731      32.714264      21682.61       5225.6237      7250.1632      7101.9651     -343.76975      974.3595       1329.3881    
 103156000   266.43626     -401.25953     -312.02656     -401.24205      0              7334.1087      31.007999      21.374731      32.66868       21652.397      6735.615       7428.4519      7838.2591      800.72061     -614.55131     -221.73504    
 103158000   273.96908     -403.04349     -311.28767     -402.98147      0              8540.002       31.007999      21.374731      32.736608      21697.419      8834.5586      8329.3032      8456.1441      381.84551     -2672.1907      774.68247    
 103160000   273.9464      -403.11508     -311.36686     -403.0305       0              5089.0548      31.007999      21.374731      32.648638      21639.114      4902.5086      5844.5876      4520.0681     -3419.4429      632.51662      291.9954     
 103162000   270.28106     -401.87868     -311.35803     -401.8794       0              5384.3063      31.007999      21.374731      32.728279      21691.899      3293.2164      8031.3873      4828.315      -88.471387     -645.82225      323.82666    
 103164000   272.04343     -399.69835     -308.58746     -399.72199      0              5218.1501      31.007999      21.374731      32.725264      21689.901      5437.0983      6104.0209      4113.331       1410.7214      423.70287      798.78628    
 103166000   271.81776     -399.99379     -308.95848     -400.00078      0              5131.2862      31.007999      21.374731      32.607546      21611.879      5540.0951      5673.7995      4179.9639     -1304.0771      207.54871     -711.09571    
 103168000   267.74788     -401.98571     -312.31345     -401.92447      0              5165.3869      31.007999      21.374731      32.590533      21600.602      6742.5866      4331.6686      4421.9054      605.97287     -1599.3242     -1715.5466    
 103170000   279.37981     -398.8176      -305.24966     -398.83708      0              9360.729       31.007999      21.374731      32.632925      21628.7        9247.1923      10034.61       8800.3844      566.80476      413.3934      -84.852985    
 103172000   276.76827     -402.63659     -309.94329     -402.63205      0              6576.9435      31.007999      21.374731      32.431274      21495.047      8036.2486      5722.4785      5972.1033      1940.4214     -1279.9184      2279.442     
 103174000   275.46866     -401.24606     -308.98802     -401.21493      0              7993.155       31.007999      21.374731      32.595498      21603.893      7248.8807      6748.7212      9981.8631      90.674974     -1165.7441      1047.2946    
 103176000   275.92521     -402.71668     -310.30573     -402.66646      0              5479.2265      31.007999      21.374731      32.444067      21503.527      6712.4167      5370.5884      4354.6745      1033.7173     -285.8444       824.02001    
 103178000   273.07678     -401.66268     -310.20571     -401.65996      0              7329.5771      31.007999      21.374731      32.403933      21476.926      7421.8611      6748.5638      7818.3066     -507.95791     -284.83424      149.5387     
 103180000   280.02619     -401.06817     -307.28375     -401.05444      0              7347.954       31.007999      21.374731      32.51626       21551.375      4967.3839      7794.7418      9281.7363      69.226601     -666.98853     -599.20048    
 103182000   275.61444     -400.80461     -308.49774     -400.82505      0              5740.1352      31.007999      21.374731      32.45788       21512.682      4703.9756      6124.0853      6392.3446     -1341.412      -153.4545       770.49757    
 103184000   280.45727     -403.99111     -310.06231     -404.03058      0              6024.5655      31.007999      21.374731      32.603278      21609.05       7622.6805      6175.9539      4275.0623      8.8139181      1290.4665     -994.11953    
 103186000   277.53875     -401.63055     -308.67921     -401.63204      0              5937.0466      31.007999      21.374731      32.748685      21705.424      6823.9647      6589.781       4397.3943      495.63086      408.43482     -470.48489    
 103188000   274.38821     -404.37472     -312.47853     -404.36385      0              6109.6473      31.007999      21.374731      32.715364      21683.339      5717.1572      6174.7156      6437.0691     -6.4413405     -1461.8841     -835.10588    
 103190000   275.69731     -400.94218     -308.60755     -400.94686      0              5212.1391      31.007999      21.374731      32.72693       21691.005      4672.2548      5443.9094      5520.2532      470.55651      797.7598       712.65241    
 103192000   282.82695     -400.07735     -305.35492     -400.08033      0              5632.4889      31.007999      21.374731      32.725781      21690.243      5677.2604      5023.2488      6196.9575      231.2918       431.70328     -521.58612    
 103194000   273.08765     -401.76862     -310.308       -401.79599      0              6221.3735      31.007999      21.374731      32.757681      21711.386      5366.5632      6386.3008      6911.2565      428.74115      924.27027     -1631.5735    
 103196000   273.38089     -396.93203     -305.37321     -396.94887      0              5512.0185      31.007999      21.374731      32.758074      21711.646      4873.7105      5499.3032      6163.0419     -598.33007      1085.0175      250.26576    
 103198000   277.58065     -405.29604     -312.33067     -405.33386      0              7416.7734      31.007999      21.374731      32.759759      21712.763      7151.8424      6980.2777      8118.2001     -745.48709      1028.2444      930.40187    
 103200000   273.79425     -399.06223     -307.36496     -399.10287      0              5454.0541      31.007999      21.374731      32.685241      21663.374      3831.3225      7205.6045      5325.2352      1079.5413      59.490797     -387.61292    
 103202000   265.02358     -402.22553     -313.46568     -402.23578      0              5873.2983      31.007999      21.374731      32.655355      21643.565      9470.6972      3779.7094      4369.4884     -709.7764      -1064.9608      874.26821    
 103204000   276.50034     -402.3889      -309.78533     -402.39343      0              6819.9817      31.007999      21.374731      32.672216      21654.741      6285.4726      8219.491       5954.9815     -917.02938      93.379481      721.01915    
 103206000   281.62638     -401.56215     -307.24181     -401.58277      0              6181.3621      31.007999      21.374731      32.784657      21729.265      7605.5226      7410.1553      3528.4083      447.48099      277.84817     -247.78943    
 103208000   271.7229      -401.0469      -310.04336     -401.07415      0              6485.021       31.007999      21.374731      32.631782      21627.942      5925.4612      6618.3622      6911.2395      1131.3576     -1255.6578      1023.7924    
 103210000   274.19395     -397.83626     -306.00513     -397.86286      0              5194.3632      31.007999      21.374731      32.663102      21648.7        6162.0803      4010.468       5410.5413     -2.5980623     -1059.4703     -1998.1439    
 103212000   274.79653     -401.79079     -309.75785     -401.84048      0              4500.1722      31.007999      21.374731      32.603907      21609.466      3009.8921      4490.6041      6000.0203     -490.5201       623.45597     -325.1254     
 103214000   270.01172     -402.79109     -312.36065     -402.88466      0              5248.6499      31.007999      21.374731      32.645631      21637.121      4966.1302      5093.7235      5686.096       621.44963      224.29703     -507.4902     
 103216000   280.15838     -399.56567     -305.73698     -399.58894      0              5570.9652      31.007999      21.374731      32.551667      21574.842      6971.2802      4596.8281      5144.7874     -1006.673      -981.69391     -601.32926    
 103218000   275.9283      -399.22883     -306.81684     -399.26186      0              4981.3703      31.007999      21.374731      32.495694      21537.744      4857.9003      6525.4034      3560.8073      229.39335      1134.7855     -1780.1162    
 103220000   275.70518     -399.06393     -306.72667     -399.1218       0              7676.1972      31.007999      21.374731      32.499978      21540.584      8241.7657      6720.285       8066.5409      3589.665      -104.9175      -580.12898    
 103222000   268.51758     -401.88921     -311.95918     -401.88011      0              6366.3812      31.007999      21.374731      32.558491      21579.365      7184.2288      5215.3346      6699.5803      1567.4368     -1225.4389     -961.1861     
 103224000   269.74687     -401.58652     -311.24477     -401.56435      0              7671.6958      31.007999      21.374731      32.576997      21591.631      8534.059       6065.0941      8415.9343     -1688.9842      1178.2326     -101.11966    
 103226000   272.89731     -401.03931     -309.64244     -401.05766      0              5409.8796      31.007999      21.374731      32.539871      21567.024      5714.3922      4333.4341      6181.8123     -329.8807      -104.62943     -1864.2403    
 103228000   277.86922     -398.71692     -305.6549      -398.72094      0              4907.542       31.007999      21.374731      32.589636      21600.008      5032.4976      5174.4635      4515.665      -130.55866      543.15694     -2036.7876    
 103230000   280.93608     -402.631       -308.54184     -402.70904      0              3971.3504      31.007999      21.374731      32.611204      21614.303      5865.1444      2171.6291      3877.2778     -602.63238     -333.87642     -33.992403    
 103232000   277.15125     -402.42531     -309.60374     -402.44095      0              6413.9159      31.007999      21.374731      32.79443       21735.743      6845.8615      6684.3812      5711.505       410.81365      306.039       -365.18961    
 103234000   267.83925     -403.89291     -314.19005     -403.92031      0              5105.2551      31.007999      21.374731      32.598575      21605.933      5835.4669      3151.1337      6329.1648     -967.64048     -1491.226       416.5319     
 103236000   272.17609     -402.66037     -311.50505     -402.6769       0              5074.7483      31.007999      21.374731      32.824597      21755.737      4808.2278      5097.6225      5318.3945     -1126.9319     -735.2865      -1090.2547    
 103238000   270.24674     -403.96981     -313.46065     -403.95113      0              7205.0149      31.007999      21.374731      32.661586      21647.695      7244.7464      6923.2637      7447.0347      1371.2424     -944.26907     -91.810059    
 103240000   273.46647     -402.96848     -311.38099     -403.0084       0              6920.172       31.007999      21.374731      32.576609      21591.374      7040.422       7481.2118      6238.8822     -678.28617     -359.78641     -357.47948    
 103242000   271.97012     -403.08957     -312.00323     -403.12086      0              6964.8349      31.007999      21.374731      32.627568      21625.149      5613.4618      7388.7871      7892.2558      349.24136     -849.40162      150.73672    
 103244000   272.78071     -401.06198     -309.70417     -401.08706      0              4890.5866      31.007999      21.374731      32.677437      21658.201      5534.1208      2387.2784      6750.3606      353.08778     -2280.1753      2619.487     
 103246000   279.3237      -400.87978     -307.33063     -400.83268      0              6253.2763      31.007999      21.374731      32.54185       21568.336      6316.2361      6697.1384      5746.4545      1091.761       680.36026     -1151.4443    
 103248000   277.6564      -400.03561     -307.04486     -400.06095      0              5086.0487      31.007999      21.374731      32.775365      21723.107      4712.1949      3565.2807      6980.6705     -225.94926      358.35389      1151.8065    
 103250000   284.53537     -400.13379     -304.83919     -400.12198      0              6559.3615      31.007999      21.374731      32.679653      21659.67       6103.0012      5453.2466      8121.8367      332.91611     -865.37527      1079.0697    
 103252000   277.29357     -400.13455     -307.26532     -400.13841      0              5895.5016      31.007999      21.374731      32.706733      21677.618      6259.7693      4269.4023      7157.3332      151.42908     -169.60268      801.04873    
 103254000   270.03468     -405.07913     -314.641       -405.07291      0              5395.34        31.007999      21.374731      32.718155      21685.189      5355.0109      6887.7993      3943.2098      2030.7904     -1204.4161     -498.5779     
 103256000   277.9789      -402.55171     -309.45295     -402.58264      0              7404.0097      31.007999      21.374731      32.608509      21612.517      6829.0065      5567.3084      9815.7142     -2281.6782      2077.6359      864.04007    
 103258000   277.09219     -400.47776     -307.67597     -400.46834      0              4610.3695      31.007999      21.374731      32.828084      21758.048      4620.9872      2348.7948      6861.3265     -29.414791      972.09279      217.22917    
 103260000   277.91292     -401.08631     -308.00965     -401.07103      0              6974.2643      31.007999      21.374731      32.87064       21786.254      8217.8499      6666.945       6037.998      -167.14277      1006.7023      551.77591    
 103262000   270.41408     -399.34389     -308.77869     -399.33179      0              5638.7826      31.007999      21.374731      32.794704      21735.924      7596.98        3088.5524      6230.8154      107.87716      119.17919      1066.8995    
 103264000   276.03993     -398.37954     -305.93017     -398.37836      0              7067.0885      31.007999      21.374731      32.746391      21703.903      6219.882       8285.0431      6696.3404      1159.1437      567.45708     -777.37864    
 103266000   275.42039     -403.05969     -310.81781     -403.08724      0              6395.6896      31.007999      21.374731      32.683374      21662.136      7013.1945      6325.7069      5848.1675     -546.85751     -584.03257     -204.79009    
 103268000   274.11615     -402.32591     -310.52083     -402.32918      0              3980.0147      31.007999      21.374731      32.830746      21759.813      4149.3409      4463.2571      3327.4459     -1821.4325      1589.5786      840.66612    
 103270000   279.18319     -403.28557     -309.78348     -403.27809      0              4422.5844      31.007999      21.374731      32.77149       21720.539      1694.6184      7199.111       4374.0237      680.68387      2058.2465      1928.3028    
 103272000   278.62545     -405.8395      -312.52421     -405.84677      0              4463.7446      31.007999      21.374731      32.91356       21814.701      4701.6509      3963.5157      4726.0671     -33.561591      1433.8887      317.58514    
 103274000   279.09491     -400.42601     -306.95348     -400.42326      0              5362.9964      31.007999      21.374731      32.703463      21675.451      6568.7214      4365.3643      5154.9035      1357.0925     -498.21119      799.61174    
 103276000   283.85221     -402.29822     -307.23242     -402.35741      0              4664.3746      31.007999      21.374731      32.529336      21560.042      7042.2741      3048.6977      3902.1519     -868.33409      524.62521      801.86007    
 103278000   274.60602     -399.83025     -307.86112     -399.83148      0              6337.5041      31.007999      21.374731      32.759298      21712.458      5470.6729      6750.0027      6791.8368     -205.02095     -222.85813      853.01707    
WARNING: Wall time limit reached (../timer.cpp:193)
Loop time of 85805.5 on 4 procs for 7195000 steps with 2592 atoms

Performance: 3.622 ns/day, 6.625 hours/ns, 83.852 timesteps/s
1401.7% CPU use with 4 MPI tasks x no OpenMP threads

MPI task timing breakdown:
Section |  min time  |  avg time  |  max time  |%varavg| %total
---------------------------------------------------------------
Pair    | 20154      | 20202      | 20283      |  35.3 | 23.54
Bond    | 0.71319    | 0.72384    | 0.73709    |   1.1 |  0.00
Neigh   | 616.3      | 621.55     | 628.72     |  19.2 |  0.72
Comm    | 2272.8     | 2346.2     | 2385.2     |  94.4 |  2.73
Output  | 8756.9     | 8756.9     | 8757       |   0.1 | 10.21
Modify  | 53853      | 53858      | 53861      |   1.3 | 62.77
Other   |            | 20.11      |            |       |  0.02

Nlocal:            648 ave         661 max         638 min
Histogram: 1 0 0 2 0 0 0 0 0 1
Nghost:         4228.5 ave        4240 max        4209 min
Histogram: 1 0 0 0 0 0 1 0 1 1
Neighs:              0 ave           0 max           0 min
Histogram: 4 0 0 0 0 0 0 0 0 0
FullNghs:       165488 ave      170645 max      161850 min
Histogram: 1 0 1 0 1 0 0 0 0 1

Total # of neighbors = 661950
Ave neighs/atom = 255.38194
Ave special neighs/atom = 0
Neighbor list builds = 143900
Dangerous builds not checked
unfix 3
unfix 1
unfix 2


# Finalize simulation
write_restart	restart.lmp.${pid}
write_restart	restart.lmp.0
System init for write_restart ...
Generated 0 of 1 mixed pair_coeff terms from geometric mixing rule
write_data	data.final.${pid} nocoeff
write_data	data.final.0 nocoeff
System init for write_data ...
Generated 0 of 1 mixed pair_coeff terms from geometric mixing rule
Total wall time: 23:50:21
