LAMMPS (23 Jun 2022)
units           metal
atom_style	full
box tilt large
read_data	water.data
Reading data file ...
  triclinic box = (0 0 0) to (31.007999 21.374731 30.960459) with tilt (-9.165637 0.962672 -10.296764)
  2 by 1 by 2 MPI processor grid
  reading atoms ...
  2592 atoms
  reading velocities ...
  2592 velocities
Finding 1-2 1-3 1-4 neighbors ...
  special bond factors lj:    0        0        0       
  special bond factors coul:  0        0        0       
     0 = max # of 1-2 neighbors
     0 = max # of 1-3 neighbors
     0 = max # of 1-4 neighbors
     1 = max # of special neighbors
  special bonds CPU = 0.000 seconds
  read_data CPU = 0.039 seconds
write_restart   restart.lmp.0
System init for write_restart ...
Neighbor list info ...
  update every 1 steps, delay 10 steps, check yes
  max neighbors/atom: 2000, page size: 100000
  master list distance cutoff = 0
  ghost atom cutoff = 0
  binsize = 41.136308, bins = 1 1 1
  0 neighbor lists, perpetual/occasional/extra = 0 0 0
WARNING: Communication cutoff is 0.0. No ghost atoms will be generated. Atoms may get lost. (../comm_brick.cpp:210)
clear
include procedure.lmp
echo both
include		in.partitions
variable        pid world 0
include		in.temp
variable	temperature equal 275
variable        tempDamp equal 0.100 # this is 0.1 ps
include		in.pressure
variable        pressure equal 6079.5
variable        pressureDamp equal 1.0 #this is 1ps

variable	barostat string	   tri
variable	direction string   z
variable	direction_x_bool equal 0
variable	direction_y_bool equal 0
variable	direction_z_bool equal 1

include		in.seed
variable        seed world 745823

units           metal
atom_style	full
box tilt large
read_restart 	restart.lmp.${pid}
read_restart 	restart.lmp.0
Reading restart file ...
  restart file = 23 Jun 2022, LAMMPS = 23 Jun 2022
  restoring atom style full from restart
  triclinic box = (0 0 0) to (31.007999 21.374731 30.960459) with tilt (-9.165637 0.962672 -10.296764)
  2 by 1 by 2 MPI processor grid
  2592 atoms
Finding 1-2 1-3 1-4 neighbors ...
  special bond factors lj:    0        0        0       
  special bond factors coul:  0        0        0       
     0 = max # of 1-2 neighbors
     0 = max # of 1-3 neighbors
     0 = max # of 1-4 neighbors
     1 = max # of special neighbors
  special bonds CPU = 0.000 seconds
  read_restart CPU = 0.002 seconds
include 	in.setup
variable	out_freq equal 2000
variable	out_freq2 equal 2000

timestep        0.0005

neigh_modify    delay 7 every 1

include         in.deepmd
# This is deepMD model

# create groups ###
#group ox type 2
#group hy type 1

mass 2 15.999
mass 1 1.008

pair_style      deepmd ../graph.pb
Summary of lammps deepmd module ...
  >>> Info of deepmd-kit:
  installed to:       /u/sigbjobo/software/DEEPMD_FROM_SOURCE/deepmd-kit/install
  source:             v2.1.3
  source branch:       master
  source commit:      5a32c49
  source commit at:   2022-07-01 09:52:58 +0800
  surpport model ver.:1.1 
  build float prec:   double
  build with tf inc:  /u/sigbjobo/software/DEEPMD_FROM_SOURCE/tensorflow/install/include;/u/sigbjobo/software/DEEPMD_FROM_SOURCE/tensorflow/install/include
  build with tf lib:  /u/sigbjobo/software/DEEPMD_FROM_SOURCE/tensorflow/install/lib/libtensorflow_cc.so;/u/sigbjobo/software/DEEPMD_FROM_SOURCE/tensorflow/install/lib/libtensorflow_framework.so
  set tf intra_op_parallelism_threads: 1
  set tf inter_op_parallelism_threads: 3
  >>> Info of lammps module:
  use deepmd-kit at:  /u/sigbjobo/software/DEEPMD_FROM_SOURCE/deepmd-kit/install
  source:             v2.1.3
  source branch:      master
  source commit:      5a32c49
  source commit at:   2022-07-01 09:52:58 +0800
  build float prec:   double
  build with tf inc:  /u/sigbjobo/software/DEEPMD_FROM_SOURCE/tensorflow/install/include;/u/sigbjobo/software/DEEPMD_FROM_SOURCE/tensorflow/install/include
  build with tf lib:  /u/sigbjobo/software/DEEPMD_FROM_SOURCE/tensorflow/install/lib/libtensorflow_cc.so;/u/sigbjobo/software/DEEPMD_FROM_SOURCE/tensorflow/install/lib/libtensorflow_framework.so
pair_coeff      * *

bond_style      none
angle_style     none
dihedral_style  none
improper_style  none
neigh_modify exclude none


neighbor        2.0 bin
neigh_modify    every 50 delay 0 check no

thermo          ${out_freq}
thermo          2000
thermo_style 	custom step temp pe etotal epair emol press lx ly lz vol pxx pyy pzz pxy pxz pyz

restart 	${out_freq} restart.lmp.${pid} restart2.lmp.${pid}
restart 	2000 restart.lmp.${pid} restart2.lmp.${pid}
restart 	2000 restart.lmp.0 restart2.lmp.${pid}
restart 	2000 restart.lmp.0 restart2.lmp.0


timer           timeout 23:50:00 every 1000
New timer settings: style=normal  mode=nosync  timeout=23:50:00


# Set number of time steps
variable 	nsteps_wall		equal	 6000000
variable 	nsteps_enhanced_coex    equal	20000000

variable     nsteps_enhanced_coex_upto equal (${nsteps_wall}+${nsteps_enhanced_coex})
variable     nsteps_enhanced_coex_upto equal (6000000+${nsteps_enhanced_coex})
variable     nsteps_enhanced_coex_upto equal (6000000+20000000)


# Set temperature for first step
if "$(step) < 1  " then    "velocity 	all create ${temperature} ${seed} dist gaussian"
velocity 	all create ${temperature} ${seed} dist gaussian
velocity 	all create 275 ${seed} dist gaussian
velocity 	all create 275 745823 dist gaussian


# Always run thermo and barostat


######################################
# Run simulation with wall potential #
######################################
if " $(step) < ${nsteps_wall} " then    "fix             3 all plumed plumedfile plumed.equil.dat outfile plumed.equil.out"   "fix             1 all nph ${direction} ${pressure} ${pressure} ${pressureDamp}"   "fix             2 all temp/csvr ${temperature} ${temperature} ${tempDamp} ${seed}"   "run             ${nsteps_wall} upto"
fix             3 all plumed plumedfile plumed.equil.dat outfile plumed.equil.out
fix             1 all nph ${direction} ${pressure} ${pressure} ${pressureDamp}
fix             1 all nph z ${pressure} ${pressure} ${pressureDamp}
fix             1 all nph z 6079.5 ${pressure} ${pressureDamp}
fix             1 all nph z 6079.5 6079.5 ${pressureDamp}
fix             1 all nph z 6079.5 6079.5 1
fix             2 all temp/csvr ${temperature} ${temperature} ${tempDamp} ${seed}
fix             2 all temp/csvr 275 ${temperature} ${tempDamp} ${seed}
fix             2 all temp/csvr 275 275 ${tempDamp} ${seed}
fix             2 all temp/csvr 275 275 0.1 ${seed}
fix             2 all temp/csvr 275 275 0.1 745823
run             ${nsteps_wall} upto
run             6000000 upto

CITE-CITE-CITE-CITE-CITE-CITE-CITE-CITE-CITE-CITE-CITE-CITE-CITE

Your simulation uses code contributions which should be cited:

- USER-DEEPMD package:

@article{Wang_ComputPhysCommun_2018_v228_p178,
  author = {Wang, Han and Zhang, Linfeng and Han, Jiequn and E, Weinan},
  doi = {10.1016/j.cpc.2018.03.016},
  url = {https://doi.org/10.1016/j.cpc.2018.03.016},
  year = 2018,
  month = {jul},
  publisher = {Elsevier {BV}},
  volume = 228,
  journal = {Comput. Phys. Commun.},
  title = {{DeePMD-kit: A deep learning package for many-body potential energy representation and molecular dynamics}},
  pages = {178--184}
}

CITE-CITE-CITE-CITE-CITE-CITE-CITE-CITE-CITE-CITE-CITE-CITE-CITE

Generated 0 of 1 mixed pair_coeff terms from geometric mixing rule
Neighbor list info ...
  update every 50 steps, delay 0 steps, check no
  max neighbors/atom: 2000, page size: 100000
  master list distance cutoff = 8
  ghost atom cutoff = 8
  binsize = 4, bins = 11 8 8
  1 neighbor lists, perpetual/occasional/extra = 1 0 0
  (1) pair deepmd, perpetual
      attributes: full, newton on
      pair build: full/bin
      stencil: full/bin/3d
      bin: standard
Per MPI rank memory allocation (min/avg/max) = 6.207 | 6.207 | 6.208 Mbytes
   Step          Temp          PotEng         TotEng         E_pair         E_mol          Press            Lx             Ly             Lz           Volume          Pxx            Pyy            Pzz            Pxy            Pxz            Pyz      
         0   275           -336.51661     -244.41553     -336.51661      0              15823.524      31.007999      21.374731      30.960459      20520.209      10330.744      13245.555      23894.272     -1017.5869     -163.48123     -568.05893    
      2000   282.61611     -391.3787      -296.72688     -391.41525      0              5649.808       31.007999      21.374731      32.580898      21594.217      7418.4251      5314.0545      4216.9444      690.82885      1726.173       191.7192     
      4000   276.80665     -394.9544      -302.24824     -395.02415      0              5407.7918      31.007999      21.374731      32.763911      21715.515      4986.9643      4772.6918      6463.7193     -370.59704     -167.05195      585.89109    
      6000   272.423       -392.50991     -301.2719      -392.50991      0              7863.8715      31.007999      21.374731      32.794294      21735.653      10964.86       6297.9828      6328.7713      102.36262      299.17437     -911.224      
      8000   273.36043     -394.94071     -303.38874     -394.94071      0              5607.7981      31.007999      21.374731      32.585157      21597.039      4914.2017      4599.1285      7310.0641     -888.61642      349.94685      1442.6251    
     10000   276.85388     -392.27387     -299.5519      -392.28938      0              7053.6305      31.007999      21.374731      32.942283      21833.738      8524.1507      5909.8362      6726.9045      1445.9118     -693.61044     -1105.8284    
     12000   281.12059     -395.25011     -301.09916     -395.25011      0              6579.4992      31.007999      21.374731      32.688794      21665.729      7379.0624      7792.8396      4566.5957      512.35531      557.51495     -426.06036    
     14000   270.73632     -396.34816     -305.67504     -396.34816      0              8094.5469      31.007999      21.374731      32.916906      21816.918      7124.7557      9442.996       7715.8889      522.15165      1010.1313     -815.55527    
     16000   273.90545     -394.75139     -303.01688     -394.76127      0              5900.3818      31.007999      21.374731      32.76812       21718.305      6851.1294      4863.7821      5986.2337     -97.073218     -1257.7992      1273.7363    
     18000   275.17603     -398.55975     -306.39971     -398.56688      0              5485.4685      31.007999      21.374731      32.891088      21799.806      3365.9072      7536.8268      5553.6714     -1605.9993      163.12672      28.313832    
     20000   275.21056     -396.66613     -304.49453     -396.67086      0              5564.0985      31.007999      21.374731      32.530429      21560.766      5345.6271      6849.8123      4496.8562      541.72406      2067.1152     -511.02516    
     22000   270.39785     -394.28336     -303.72359     -394.3075       0              5932.4273      31.007999      21.374731      32.630917      21627.368      5934.3959      4316.5821      7546.3037      1398.0893     -1714.535       1955.181     
     24000   278.45823     -393.7655      -300.50621     -393.76552      0              5701.5784      31.007999      21.374731      32.796177      21736.9        5270.8492      6239.9008      5593.9853      2608.7011      1395.8422      648.05101    
     26000   281.72516     -394.48231     -300.12889     -394.49668      0              7443.3786      31.007999      21.374731      32.892996      21801.071      8633.1687      6825.3553      6871.6117     -119.18899      1091.9597      899.92101    
     28000   274.53902     -396.67624     -304.72955     -396.67624      0              6866.8573      31.007999      21.374731      32.801758      21740.6        6061.0572      7122.4259      7417.0887      535.06282     -2568.3926     -347.92644    
     30000   287.21197     -395.10541     -298.91438     -395.10541      0              7416.6499      31.007999      21.374731      32.727085      21691.107      6248.9179      5996.3196      10004.712      1048.6969      331.64761     -139.72802    
     32000   277.16574     -397.85581     -305.02939     -397.85581      0              3848.304       31.007999      21.374731      32.714688      21682.891      2641.3488      5105.8122      3797.7511      413.63755     -565.98865     -1316.2858    
     34000   274.137       -398.53201     -306.71996     -398.53201      0              6835.2491      31.007999      21.374731      32.845784      21769.779      7534.0838      6891.183       6080.4807     -999.48104     -415.227        193.48832    
     36000   271.00511     -395.80435     -305.0412      -395.80435      0              6118.6168      31.007999      21.374731      32.803414      21741.697      4339.8138      7928.9995      6087.0372     -578.60245      1533.3934     -1107.7617    
     38000   278.07919     -395.07904     -301.9467      -395.07904      0              5984.3692      31.007999      21.374731      32.863523      21781.537      5041.5734      7460.5317      5451.0025      235.80296      1241.4637     -292.48772    
     40000   273.31768     -397.71843     -306.18078     -397.71843      0              2863.6003      31.007999      21.374731      32.869745      21785.661      5279.091       1015.258       2296.4517     -507.32719     -1466.7799     -739.71816    
     42000   274.85293     -398.09946     -306.04763     -398.09946      0              8092.1698      31.007999      21.374731      33.000301      21872.192      7484.4921      8043.323       8748.6944     -2620.4073      711.45675     -401.86969    
     44000   273.59237     -399.21714     -307.58749     -399.21714      0              6106.3503      31.007999      21.374731      32.725734      21690.212      7050.4219      4809.0347      6459.5942      1575.8391     -192.00737      671.40665    
     46000   269.46081     -397.38065     -307.13471     -397.38065      0              5849.109       31.007999      21.374731      32.68922       21666.011      7224.0421      4940.2673      5383.0177     -79.945984      58.413677     -872.39668    
     48000   268.19754     -397.08688     -307.26403     -397.08688      0              4613.8607      31.007999      21.374731      32.906775      21810.203      4787.9132      5178.9833      3874.6857      1377.1946      1198.6095     -573.35954    
     50000   280.23139     -396.78488     -302.93174     -396.87269      0              2120.2004      31.007999      21.374731      32.990543      21865.724      3733.8068      259.4998       2367.2945     -26.73561      -2249.3967      670.17276    
     52000   270.36928     -398.8589      -308.3087      -398.8589       0              6409.2175      31.007999      21.374731      33.000781      21872.51       8657.6301      3693.6397      6876.3826      233.97284      607.11982      817.90898    
     54000   277.4644      -395.67491     -302.74847     -395.68015      0              5119.3511      31.007999      21.374731      33.00949       21878.282      4788.6016      6224.5689      4344.8827     -746.86863      634.98078     -965.90443    
     56000   274.18603     -395.32527     -303.49679     -395.35505      0              4950.5961      31.007999      21.374731      32.915994      21816.314      2653.0783      6857.441       5341.2689     -1021.6001     -887.1711       1161.0648    
     58000   277.45519     -399.35719     -306.43383     -399.35719      0              6117.1497      31.007999      21.374731      32.868604      21784.904      6066.1786      8261.0799      4024.1907     -1949.2818     -1021.3371      586.78043    
     60000   271.83737     -397.54341     -306.50153     -397.54341      0              8398.3962      31.007999      21.374731      32.716984      21684.413      6492.8624      10302.71       8399.6165     -393.59275     -703.6709      -942.0268     
     62000   278.57219     -398.871       -305.57354     -398.871        0              4543.0201      31.007999      21.374731      32.828821      21758.537      4147.8167      5242.5046      4238.7389     -591.70973     -1614.5063     -321.00571    
     64000   279.45086     -397.56125     -303.96951     -397.58017      0              4734.9328      31.007999      21.374731      32.859752      21779.037      5517.7233      3867.3506      4819.7246      35.230954     -371.75415     -147.3988     
     66000   281.46994     -397.54515     -303.2772      -397.54515      0              6571.8897      31.007999      21.374731      32.846761      21770.427      6065.2621      7238.3884      6412.0185     -733.75631     -726.87589     -78.823533    
     68000   268.45035     -399.34784     -309.44032     -399.34784      0              6713.4181      31.007999      21.374731      33.009713      21878.43       7828.1797      6979.6634      5332.4112      740.22057     -1044.6979     -848.21288    
     70000   274.69364     -400.44397     -308.44549     -400.44397      0              6154.09        31.007999      21.374731      32.972952      21854.065      6718.9289      5564.0462      6179.295       1122.6968      264.29537      744.61392    
     72000   290.13557     -399.31765     -302.14747     -399.31765      0              8059.1223      31.007999      21.374731      32.810319      21746.274      8601.1705      9810.4333      5765.7631      509.61802      1089.1597      1557.5927    
     74000   277.43733     -398.73806     -305.82069     -398.74104      0              4240.5775      31.007999      21.374731      32.68576       21663.718      4649.0739      2822.9189      5249.7396      261.41271      1148.8612      73.520866    
     76000   270.45374     -398.96426     -308.38578     -398.96426      0              4825.2962      31.007999      21.374731      32.957309      21843.697      6374.8833      3648.7544      4452.251       675.64087      1878.289       1369.2974    
     78000   274.62199     -395.57567     -303.60118     -395.57567      0              5352.3769      31.007999      21.374731      32.732814      21694.905      5556.1567      6291.2159      4209.7583      167.51983      442.83324     -738.96106    
     80000   277.42055     -399.20129     -306.28953     -399.20974      0              6220.1282      31.007999      21.374731      32.806998      21744.072      6393.4551      6182.1182      6084.8114     -828.10758      1013.3781     -663.71796    
     82000   268.10403     -399.85066     -310.05912     -399.85066      0              4084.2067      31.007999      21.374731      32.91138       21813.256      5523.1375      1992.7133      4736.7692     -416.56092      653.49237      3.9955985    
     84000   275.53242     -396.71775     -304.43835     -396.71913      0              6844.6554      31.007999      21.374731      32.780709      21726.649      8724.8832      4882.2271      6926.8558      603.68422     -1655.1241     -1087.2378    
     86000   272.82147     -398.92819     -307.55673     -398.92819      0              5210.5201      31.007999      21.374731      32.991312      21866.234      4539.5991      3547.7177      7544.2434     -252.0158       1064.2793     -77.347936    
     88000   278.44279     -399.77072     -306.5166      -399.77072      0              5119.0713      31.007999      21.374731      33.159107      21977.446      3371.4563      6984.9972      5000.7604     -507.75121     -1350.0766      1343.8623    
     90000   273.53691     -403.77525     -312.16418     -403.77525      0              6236.1713      31.007999      21.374731      32.899486      21805.372      4130.5519      7208.9269      7369.035      -238.16936     -458.64537     -313.17999    
     92000   274.7625      -398.44        -306.41845     -398.52875      0              6164.5407      31.007999      21.374731      32.899078      21805.102      6754.5928      5419.9355      6319.0936     -138.31201     -810.14734      1090.778     
     94000   271.58605     -399.45177     -308.49406     -399.45177      0              5115.1958      31.007999      21.374731      32.741395      21700.592      5057.1765      5650.5689      4637.8421      1185.7566     -43.352925     -437.79637    
     96000   277.78215     -402.71573     -309.68286     -402.71573      0              7828.3389      31.007999      21.374731      32.693903      21669.115      6895.9655      8546.2538      8042.7975      1221.8024      216.2582       334.33177    
     98000   275.69626     -402.05901     -309.72474     -402.05901      0              6509.7982      31.007999      21.374731      32.726147      21690.486      6100.0622      9180.0392      4249.2931      231.69723      971.12922     -792.74531    
    100000   280.68332     -399.65563     -305.65113     -399.65563      0              6901.879       31.007999      21.374731      32.669723      21653.089      7648.2595      6508.9678      6548.4095     -1087.4309      440.61834      606.67145    
    102000   277.65924     -400.13694     -307.14524     -400.13694      0              5678.4352      31.007999      21.374731      32.760759      21713.426      6197.2723      5210.867       5627.1664     -708.38325      580.74111      276.08964    
    104000   272.82112     -398.18064     -306.80929     -398.18064      0              9022.5941      31.007999      21.374731      32.669433      21652.896      9834.2698      7023.377       10210.136     -1757.7368      1324.2618      499.85435    
    106000   277.2748      -398.50511     -305.64216     -398.50512      0              6196.6947      31.007999      21.374731      32.882693      21794.243      5776.9393      6099.9182      6713.2267     -940.30156      93.276825      565.96447    
    108000   279.52271     -398.35424     -304.73844     -398.35424      0              4619.0971      31.007999      21.374731      32.779204      21725.651      4367.2537      5222.1219      4267.9158      919.04571     -1028.6958      567.74951    
    110000   280.85207     -399.7618      -305.70078     -399.7618       0              5616.3059      31.007999      21.374731      32.825911      21756.608      8003.5062      2447.46        6397.9513     -878.61901      1301.2792      1719.5589    
    112000   266.54869     -397.25864     -307.98801     -397.25891      0              3220.988       31.007999      21.374731      33.079756      21924.853      2569.0944      4775.8352      2318.0344     -964.64703     -266.52316      474.88165    
    114000   276.52708     -398.63775     -306.02522     -398.63775      0              7448.6596      31.007999      21.374731      33.073338      21920.599      7235.529       7307.1686      7803.2813      1490.1856     -1123.8191      1816.4124    
    116000   275.71755     -400.7656      -308.4242      -400.7656       0              5635.3594      31.007999      21.374731      32.849205      21772.047      5617.8082      5632.8891      5655.3808     -602.41547      1269.8259      1001.3879    
    118000   273.88552     -400.41958     -308.69175     -400.41958      0              6566.0564      31.007999      21.374731      32.746812      21704.182      7156.0248      6712.3978      5829.7467     -264.78485     -695.28165     -490.4499     
    120000   274.54419     -401.00184     -309.05341     -401.00184      0              5364.6571      31.007999      21.374731      32.995172      21868.792      7026.4198      5472.4978      3595.0537     -275.04858     -959.80845     -176.65748    
    122000   275.30839     -400.09521     -307.89084     -400.09521      0              5573.8212      31.007999      21.374731      33.009996      21878.617      6549.8653      6100.2328      4071.3654      1603.3482     -732.94836     -1700.7115    
    124000   277.28024     -399.38558     -306.52081     -399.38558      0              6954.5754      31.007999      21.374731      32.750597      21706.691      7131.2496      7268.5406      6463.9361      2311.6444      824.04474      1677.0507    
    126000   280.01108     -399.92474     -306.14538     -399.92474      0              5861.6982      31.007999      21.374731      32.869966      21785.807      5911.4828      4780.5378      6893.0741      1455.5631     -997.08454      338.78108    
    128000   275.03085     -400.1574      -308.04598     -400.1574       0              4638.554       31.007999      21.374731      32.793165      21734.904      5678.0825      5072.4057      3165.1739     -77.972257     -31.909834      147.09418    
    130000   271.86528     -397.98775     -306.93652     -397.98775      0              6470.2298      31.007999      21.374731      32.534803      21563.665      7899.9817      6263.1914      5247.5163     -1278.8049      61.856181     -372.37888    
    132000   277.01991     -402.15988     -309.3823      -402.15988      0              7091.2618      31.007999      21.374731      32.427904      21492.814      6428.8369      8528.2844      6316.6642      502.71423     -128.73832     -107.69808    
    134000   269.45192     -398.94817     -308.70521     -398.94817      0              5800.2545      31.007999      21.374731      32.625033      21623.469      6184.8391      6160.4526      5055.4718      356.2599      -941.79556     -81.637994    
    136000   271.64848     -400.68847     -309.70985     -400.68847      0              5544.7873      31.007999      21.374731      32.554502      21576.721      6800.5083      4969.6814      4864.1722      679.25811     -1401.2205      1669.6954    
    138000   276.82462     -399.32039     -306.60822     -399.32039      0              7545.2886      31.007999      21.374731      32.526523      21558.178      7076.2928      8717.7326      6841.8404     -138.42161      682.43869     -945.71925    
    140000   279.40261     -398.55807     -304.98249     -398.55807      0              6866.828       31.007999      21.374731      32.53566       21564.233      8871.2473      7047.1417      4682.095      -3676.4783      222.29757      33.130496    
    142000   278.1749      -401.24688     -308.08247     -401.24688      0              6621.8137      31.007999      21.374731      32.45884       21513.318      8098.2723      6421.2331      5345.9357     -984.13781     -894.24027      342.4858     
    144000   274.8739      -399.01915     -306.9603      -399.01915      0              7568.8976      31.007999      21.374731      32.658104      21645.387      6392.055       7672.8256      8641.8122      1342.5414      137.59604     -788.44195    
    146000   274.31527     -401.45949     -309.58774     -401.45949      0              6577.1515      31.007999      21.374731      32.560991      21581.022      7322.4328      6509.2192      5899.8026      115.59676      447.94164      217.57436    
    148000   271.5711      -400.69157     -309.73886     -400.69157      0              6284.7551      31.007999      21.374731      32.518863      21553.101      6582.7749      5407.0025      6864.4879     -1204.1532      362.97994     -1784.2295    
    150000   273.24684     -402.0688      -310.55487     -402.0688       0              6897.5162      31.007999      21.374731      32.50732       21545.45       8434.9226      6703.6556      5553.9704     -173.5689      -1710.695       1658.8896    
    152000   272.38321     -399.35847     -308.13378     -399.35847      0              6312.9569      31.007999      21.374731      32.750381      21706.548      4451.868       8540.165       5946.8378     -484.82043     -350.81883      486.47991    
    154000   274.57106     -398.60666     -306.64924     -398.60666      0              5337.8673      31.007999      21.374731      32.614574      21616.536      5949.5612      7086.6143      2977.4263      1362.323      -749.47703      435.27268    
    156000   270.54227     -402.7008      -312.09266     -402.7008       0              4316.35        31.007999      21.374731      32.72407       21689.109      3657.8752      6304.7367      2986.4381      641.5701       1058.6662     -977.0783     
    158000   270.69559     -401.36425     -310.70477     -401.36425      0              7043.0169      31.007999      21.374731      32.651667      21641.121      8711.4437      8513.2787      3904.3284      12.312588     -334.09194     -2347.2744    
    160000   269.89464     -397.26344     -306.87221     -397.26344      0              5925.6062      31.007999      21.374731      32.837598      21764.354      6097.5066      4115.8415      7563.4704      224.8535       912.34686     -1596.6119    
    162000   275.58201     -400.31289     -308.01688     -400.31289      0              8081.6714      31.007999      21.374731      32.859615      21778.947      8188.4528      7754.2604      8302.301       950.9225       112.88081     -1815.4823    
    164000   275.66577     -399.72699     -307.40293     -399.72699      0              5498.4647      31.007999      21.374731      32.975278      21855.607      6786.7908      7290.537       2418.0663      889.35582      267.11234     -763.13826    
    166000   274.2147      -398.28264     -306.44456     -398.28769      0              5086.8054      31.007999      21.374731      32.793032      21734.816      4398.9933      5328.2546      5533.1682     -398.30273      359.65826      189.96925    
    168000   270.13699     -397.84817     -307.37578     -397.84817      0              6031.9142      31.007999      21.374731      32.587648      21598.69       5592.4587      6886.3749      5616.9089      2099.8442     -292.37127      1019.9093    
    170000   277.096       -399.24932     -306.44625     -399.24932      0              5070.8725      31.007999      21.374731      32.712562      21681.482      2990.6401      5948.4087      6273.5686     -51.354871     -645.61812      2567.2071    
    172000   273.40367     -400.17211     -308.60566     -400.17211      0              6096.1385      31.007999      21.374731      32.628844      21625.995      5422.1018      6752.6702      6113.6435     -802.4651       2553.3999      844.22543    
    174000   266.16063     -399.05179     -309.91113     -399.05179      0              5299.1685      31.007999      21.374731      32.693505      21668.851      3780.8145      6212.7007      5903.9904      1437.7923      423.12531     -826.20048    
    176000   264.83447     -400.45244     -311.75592     -400.45244      0              6156.5301      31.007999      21.374731      32.585685      21597.389      7473.949       4708.022       6287.6193      478.89537     -2178.3887      828.60355    
    178000   277.6402      -399.32166     -306.33633     -399.32166      0              6673.3249      31.007999      21.374731      32.631109      21627.496      5230.9487      9435.5973      5353.4288      249.89286     -803.77662      440.90664    
    180000   278.73729     -401.14783     -307.79507     -401.14783      0              6395.8764      31.007999      21.374731      32.609544      21613.203      5889.1677      4994.303       8304.1587     -749.70735      603.07023      889.69855    
    182000   275.78248     -400.63693     -308.27379     -400.63693      0              6797.2065      31.007999      21.374731      32.815888      21749.965      6141.7056      6461.6228      7788.2911     -253.11709     -609.96599      1154.9509    
    184000   276.02302     -398.63341     -306.1897      -398.63341      0              3719.2049      31.007999      21.374731      33.01739       21883.518      3196.8798      4950.3261      3010.4088      526.03026      1030.3967     -760.44543    
    186000   277.61401     -396.77777     -303.80122     -396.77777      0              7641.267       31.007999      21.374731      32.793406      21735.064      7014.151       7897.2016      8012.4485     -1115.4449      305.58473      214.5956     
    188000   277.78688     -398.10869     -305.07424     -398.10869      0              4205.8782      31.007999      21.374731      32.879193      21791.923      3440.9201      6857.4663      2319.2482      318.81353      448.96285      582.76186    
    190000   282.22301     -397.48274     -302.96257     -397.48274      0              6192.6646      31.007999      21.374731      32.677602      21658.31       6166.6141      7194.0743      5217.3054      576.827       -276.31065     -263.29958    
    192000   273.46007     -396.77603     -305.19069     -396.77603      0              4143.3983      31.007999      21.374731      32.883758      21794.948      3864.5957      4179.4556      4386.1437     -174.1643      -1650.7238      856.12297    
    194000   273.11419     -397.40566     -305.93616     -397.40566      0              5960.3752      31.007999      21.374731      32.799425      21739.054      6518.3809      6570.9488      4791.7959     -1462.4864     -406.83367      445.46599    
    196000   282.59317     -396.89858     -302.25445     -396.89858      0              4568.2097      31.007999      21.374731      32.72202       21687.75       2583.9001      4683.9992      6436.73        526.05796      1175.1637      1276.6357    
    198000   279.6816      -398.1727      -304.50369     -398.1727       0              6303.4152      31.007999      21.374731      32.714118      21682.513      7514.0662      4775.036       6621.1433     -321.59787     -152.51661      596.16524    
    200000   278.39653     -398.30784     -305.06921     -398.30784      0              7813.4029      31.007999      21.374731      32.513085      21549.271      7195.6417      5356.926       10887.641      667.97386     -924.42439     -1381.6572    
    202000   275.59233     -397.30823     -305.00876     -397.31366      0              4079.1411      31.007999      21.374731      32.88498       21795.758      4768.9605      4028.3654      3440.0976     -362.39452      59.204297     -93.69284     
    204000   275.13048     -399.63529     -307.4905      -399.63529      0              5463.4487      31.007999      21.374731      33.086245      21929.154      6627.7543      4423.4622      5339.1296     -417.68326     -803.00001      1081.4758    
    206000   269.89101     -399.63129     -309.24127     -399.63207      0              4525.3227      31.007999      21.374731      32.809388      21745.657      5006.203       4235.3148      4334.4502      1180.8914      1056.401      -1122.2133    
    208000   280.74554     -400.06423     -306.03889     -400.06423      0              4727.7131      31.007999      21.374731      32.828047      21758.024      4007.7522      6870.8691      3304.518      -1026.493      -1269.7935     -316.76313    
    210000   280.31885     -398.90275     -305.02031     -398.90329      0              5044.4066      31.007999      21.374731      32.677431      21658.197      5213.5556      3344.4107      6575.2536     -574.06466      1135.6246      522.611      
    212000   274.39109     -398.75        -306.85285     -398.75         0              5771.7738      31.007999      21.374731      32.754015      21708.956      6145.7703      5003.7615      6165.7896     -626.8004       111.65318     -303.28628    
    214000   273.3618      -396.22276     -304.67033     -396.22276      0              3701.0795      31.007999      21.374731      32.842814      21767.811      4288.407       1766.2377      5048.5938      888.69338     -182.88517      360.01195    
    216000   270.07919     -398.49335     -308.04031     -398.49335      0              4818.0217      31.007999      21.374731      32.610739      21613.995      4210.9881      7302.042       2941.0352     -43.334834      82.970964     -573.07869    
    218000   282.00325     -399.95934     -305.51277     -399.95934      0              7381.6601      31.007999      21.374731      32.641838      21634.607      6232.2584      8720.3791      7192.3427      1027.6452      1277.2577     -1600.2379    
    220000   267.5907      -398.57497     -308.95536     -398.57497      0              5631.8614      31.007999      21.374731      32.705434      21676.757      5101.9823      6267.1093      5526.4924      802.97908     -261.75243     -1111.7548    
    222000   268.54898     -401.40449     -311.46394     -401.40449      0              6422.7952      31.007999      21.374731      32.735476      21696.669      5739.2083      5773.905       7755.2723     -439.37357      574.63244     -163.19305    
    224000   283.07752     -400.33263     -305.52628     -400.33263      0              3762.5083      31.007999      21.374731      32.884929      21795.725      2068.8852      4175.7887      5042.8509      1707.0082      736.39945     -63.882792    
    226000   274.82501     -401.76566     -309.72318     -401.76566      0              6995.7031      31.007999      21.374731      32.800117      21739.512      6036.4953      8019.8105      6930.8034      1088.1543      566.80295      1025.35      
    228000   276.25983     -397.82292     -305.2999      -397.82292      0              6482.0378      31.007999      21.374731      32.793776      21735.309      8673.6269      5437.4086      5335.0778      23.83185       590.202       -102.96817    
    230000   270.74095     -398.12528     -307.4506      -398.12528      0              5014.9546      31.007999      21.374731      32.779935      21726.135      5146.786       7804.8251      2093.2526     -656.89778     -53.857604     -2282.3042    
    232000   271.51224     -398.37595     -307.44297     -398.37595      0              5715.5426      31.007999      21.374731      32.741654      21700.763      5461.0427      6647.2361      5038.349       1096.5333      768.17375      781.8381     
    234000   280.61588     -400.96407     -306.98216     -400.96407      0              5302.4599      31.007999      21.374731      32.429581      21493.925      4609.7522      5091.3576      6206.2698      934.36026      828.62287      461.16208    
    236000   267.64273     -399.03752     -309.40048     -399.03752      0              6780.8125      31.007999      21.374731      32.723948      21689.028      6126.5897      7185.1262      7030.7216     -932.24342     -2117.2955     -2157.0237    
    238000   277.87561     -398.85829     -305.79413     -398.85829      0              6341.9775      31.007999      21.374731      32.735579      21696.737      5818.7187      8347.6218      4859.592       165.27482     -1079.8414      1380.2999    
    240000   275.62253     -401.79976     -309.49018     -401.79976      0              7199.9465      31.007999      21.374731      32.848656      21771.683      8640.7124      6238.1978      6720.9294      316.32638     -1442.5559     -761.57801    
    242000   271.24288     -395.74609     -304.90331     -395.77672      0              4132.615       31.007999      21.374731      32.734677      21696.139      4719.3745      3298.9413      4379.5292      78.30555       1416.0927      457.72452    
    244000   272.608       -400.70294     -309.40296     -400.70294      0              5217.703       31.007999      21.374731      32.898299      21804.586      5066.9422      5320.3134      5265.8534     -821.24848      1818.7809      173.76927    
    246000   274.44671     -398.56102     -306.64524     -398.56102      0              3796.9246      31.007999      21.374731      32.813213      21748.192      3620.2827      4303.3361      3467.1551      369.83738      1454.0845     -738.38305    
    248000   275.34522     -401.48563     -309.26893     -401.48563      0              4247.3511      31.007999      21.374731      32.810049      21746.095      5645.6343      3051.6538      4044.765       24.336531     -963.1745      -499.00446    
    250000   280.65037     -395.97614     -301.98267     -395.97614      0              8078.0518      31.007999      21.374731      32.719305      21685.951      7335.3944      7384.8509      9513.9102      590.05555     -915.08145      486.18346    
    252000   268.15428     -398.58672     -308.77836     -398.58672      0              7981.2972      31.007999      21.374731      32.659679      21646.432      8442.0887      7476.5144      8025.2884      1478.834      -812.43463      185.18616    
    254000   271.11227     -396.69163     -305.8926      -396.69163      0              6083.5182      31.007999      21.374731      32.713302      21681.972      5617.9679      6845.8025      5786.7843      274.08842      1617.0224     -557.29081    
    256000   280.16399     -398.14965     -304.31908     -398.16796      0              5420.1004      31.007999      21.374731      32.82086       21753.26       4737.6331      6595.2812      4927.3871      761.31648     -238.43536      583.01376    
    258000   279.26852     -401.73164     -308.20098     -401.73164      0              9532.3283      31.007999      21.374731      32.669459      21652.913      8702.7514      8254.0814      11640.152     -1209.1552     -610.83387     -1448.1841    
    260000   272.15025     -401.80156     -310.65489     -401.80156      0              6055.8509      31.007999      21.374731      32.971063      21852.813      6203.0102      6068.9866      5895.5557     -1342.2712      2146.2896      472.5035     
    262000   280.18393     -400.86513     -307.02788     -400.86513      0              7999.6737      31.007999      21.374731      32.862334      21780.749      7573.587       7448.4627      8976.9714     -525.7679       1109.5659     -1092.0145    
    264000   269.38191     -397.93015     -307.71064     -397.93015      0              5555.7554      31.007999      21.374731      32.944667      21835.318      6275.3892      2132.9991      8258.8779      805.05744      1315.8509      1727.5724    
    266000   269.80487     -400.63017     -310.269       -400.63017      0              4233.2864      31.007999      21.374731      32.807267      21744.251      3620.92        5201.6345      3877.3046     -1397.6064      1339.5319     -664.36469    
    268000   275.46334     -400.80798     -308.55172     -400.85024      0              6387.658       31.007999      21.374731      32.802182      21740.881      6585.2756      5402.5515      7175.1469     -868.39314     -332.03777      467.54793    
    270000   269.20567     -397.22688     -307.0664      -397.22807      0              4286.708       31.007999      21.374731      32.828969      21758.635      2037.9234      5556.3857      5265.8149     -1351.4181      292.26103     -749.11917    
    272000   279.60794     -398.69936     -305.05501     -398.69936      0              6852.9008      31.007999      21.374731      33.071079      21919.102      8312.1022      7000.8979      5245.7023     -1295.1497      398.3974       2248.5285    
    274000   278.57611     -396.2026      -302.90383     -396.21862      0              4974.8123      31.007999      21.374731      32.829735      21759.143      2638.6774      7149.3235      5136.4359      629.39104      1941.8613     -2925.1332    
    276000   277.86452     -398.64539     -305.58494     -398.64539      0              8983.7484      31.007999      21.374731      32.588764      21599.43       9906.8112      9001.0749      8043.3592     -852.62837      80.672244     -1264.0644    
    278000   273.81028     -398.90256     -307.19993     -398.90256      0              4467.6609      31.007999      21.374731      32.7235        21688.731      4359.5634      3605.9176      5437.5017     -1211.5425      1374.4072     -1010.8972    
    280000   282.68043     -398.21617     -303.54281     -398.21653      0              5927.9765      31.007999      21.374731      32.606597      21611.25       5198.8354      5310.8397      7274.2544      339.73922      358.93781     -46.166501    
    282000   281.6252      -399.41599     -305.09604     -399.41599      0              6685.104       31.007999      21.374731      32.823081      21754.732      5830.0583      7535.0989      6690.1549     -1052.739      -891.9415       258.07763    
    284000   280.47068     -398.10307     -304.16978     -398.10307      0              7007.8869      31.007999      21.374731      32.78542       21729.771      7116.2234      6328.1561      7579.2813     -557.53713     -478.2564       3147.0119    
    286000   266.46987     -400.48466     -311.24043     -400.48466      0              3861.6378      31.007999      21.374731      32.896336      21803.285      3021.272       4132.1173      4431.5241      536.45153      61.280578     -468.90545    
    288000   269.66666     -402.20779     -311.89291     -402.20779      0              5478.894       31.007999      21.374731      32.651305      21640.881      5991.6451      5796.1265      4648.9104     -138.9046      -327.34016     -851.15983    
    290000   275.1398      -398.29904     -306.15113     -398.29904      0              7817.1545      31.007999      21.374731      32.861608      21780.267      6663.822       8295.3038      8492.3376      1467.724      -156.31659      116.21665    
    292000   278.35828     -400.31535     -307.08954     -400.31535      0              7275.1133      31.007999      21.374731      32.816247      21750.203      7543.7404      7104.2445      7177.355       1770.4738      81.072251      18.883206    
    294000   275.86719     -399.60638     -307.21486     -399.60638      0              5498.6363      31.007999      21.374731      32.823791      21755.203      5942.8312      5997.716       4555.3617      681.72732     -397.06667     -724.81692    
    296000   279.21592     -399.1042      -305.59115     -399.1042       0              7951.992       31.007999      21.374731      32.70909       21679.18       6471.4628      8814.0585      8570.4549      1104.434       1245.3606      456.8547     
    298000   268.24824     -398.99035     -309.15052     -398.99035      0              6702.6876      31.007999      21.374731      32.926968      21823.587      6600.7678      7730.3672      5776.9277      339.54317     -58.319322     -558.33466    
    300000   281.32732     -400.89759     -306.6774      -400.89759      0              5517.0133      31.007999      21.374731      32.953819      21841.384      5603.2057      5432.0131      5515.8211     -595.53355      1459.6159      496.32973    
    302000   272.01087     -398.58417     -307.48419     -398.58417      0              7624.8859      31.007999      21.374731      32.735565      21696.728      7737.4012      5181.8624      9955.3941      307.53936      964.78869      394.61427    
    304000   274.71293     -401.78693     -309.78199     -401.78693      0              5177.935       31.007999      21.374731      32.979834      21858.626      6311.9453      4813.1831      4408.6767     -1000.7219     -383.25709     -433.5165     
    306000   277.87206     -401.03681     -307.97383     -401.03681      0              6648.5196      31.007999      21.374731      32.938652      21831.331      4706.6435      7920.8958      7318.0195     -813.75963     -493.8727       56.625343    
    308000   277.78608     -401.39871     -308.36453     -401.39871      0              5912.0198      31.007999      21.374731      32.855084      21775.944      6156.253       5585.0383      5994.7681      284.02054     -1027.0775     -2.7344018    
    310000   274.92713     -397.96315     -305.88647     -397.96315      0              8923.8688      31.007999      21.374731      32.874701      21788.946      8103.0874      10282.525      8385.9935      963.48519      2055.1843      710.91741    
    312000   277.76011     -400.36235     -307.33687     -400.36235      0              5477.6143      31.007999      21.374731      32.70634       21677.358      4675.7539      5510.0579      6247.0311      1970.0588     -809.10889     -55.120232    
    314000   286.08869     -399.18211     -303.36727     -399.18211      0              7835.5987      31.007999      21.374731      32.453236      21509.603      6808.7494      7967.3082      8730.7384     -1556.7344      210.18013      749.84512    
    316000   276.42993     -397.81685     -305.23686     -397.81685      0              6776.6563      31.007999      21.374731      32.580863      21594.193      7134.8761      7439.5203      5755.5725     -388.2342      -200.09561      59.054445    
    318000   275.27886     -400.43713     -308.24265     -400.43713      0              6259.2417      31.007999      21.374731      32.774304      21722.403      5208.1967      7934.1697      5635.3586     -1632.4761      1422.5132     -658.46472    
    320000   276.32547     -397.59192     -305.04692     -397.59192      0              5836.7131      31.007999      21.374731      32.851965      21773.876      6722.3027      5518.4208      5269.4158     -52.499193      596.32697      461.34811    
    322000   272.34859     -398.14993     -306.93683     -398.14993      0              6361.4214      31.007999      21.374731      32.903015      21807.711      8762.3855      6242.7885      4079.0903     -1132.9412     -657.46222     -1508.8819    
    324000   271.49078     -397.96566     -307.03986     -397.96566      0              6600.8926      31.007999      21.374731      32.636504      21631.071      5421.5364      6620.2174      7760.924       31.569621     -886.9586       186.83896    
    326000   276.14408     -399.99194     -307.50769     -399.99194      0              7957.1238      31.007999      21.374731      32.815509      21749.714      7675.3244      6537.3936      9658.6535     -767.69683      1537.2609      145.46586    
    328000   275.56129     -398.65703     -306.36796     -398.65703      0              5370.3696      31.007999      21.374731      32.569384      21586.585      5165.7474      6366.3977      4578.9637      2627.4986      763.80238     -1555.7522    
    330000   279.81817     -396.91557     -303.20082     -396.91557      0              7160.7422      31.007999      21.374731      32.363675      21450.243      7484.756       6579.731       7417.7394     -1550.3301      139.78951     -1404.9397    
    332000   280.08189     -397.73822     -303.93515     -397.73822      0              5901.6667      31.007999      21.374731      32.515876      21551.121      7743.1929      3115.0557      6846.7514     -697.31487     -1560.4267     -416.44396    
    334000   279.34393     -398.77562     -305.2197      -398.77562      0              6655.4475      31.007999      21.374731      32.586364      21597.839      6124.9812      7292.4816      6548.8798      229.94192     -270.30448     -485.48987    
    336000   276.95165     -397.9663      -305.21158     -397.9663       0              8059.863       31.007999      21.374731      32.725496      21690.054      8605.8568      9914.1466      5659.5858     -1579.0444     -316.93442      314.75986    
    338000   273.0715      -402.15861     -310.7034      -402.19407      0              5133.3215      31.007999      21.374731      32.821175      21753.469      5252.9642      6267.837       3879.1631      1551.3771      1619.1856     -573.39104    
    340000   283.93498     -400.52988     -305.43635     -400.52988      0              6178.4092      31.007999      21.374731      32.764762      21716.079      6563.0174      7516.4581      4455.7522     -595.49844      303.86322     -2801.4099    
    342000   277.30262     -401.43562     -308.56336     -401.43562      0              6142.0778      31.007999      21.374731      32.639355      21632.961      4234.7298      6968.1794      7223.3242     -1796.3912      994.76044     -830.61412    
    344000   273.13773     -402.82116     -311.34377     -402.82116      0              6804.9698      31.007999      21.374731      32.697944      21671.793      5254.7159      8470.5485      6689.6448      1708.936      -125.01097      161.35703    
    346000   273.2409      -401.41732     -309.90539     -401.43025      0              4324.6707      31.007999      21.374731      32.667076      21651.334      3421.9752      5174.95        4377.0868      1872.1222     -349.82934     -598.32604    
    348000   269.86304     -402.27659     -311.89594     -402.32034      0              5892.7362      31.007999      21.374731      32.66647       21650.933      7146.4732      3631.3584      6900.3772     -791.48862     -1229.9939      135.62623    
    350000   272.72036     -399.70718     -308.36957     -399.70755      0              6652.1262      31.007999      21.374731      32.697394      21671.429      5744.7306      7202.5472      7009.1008      1178.7251      36.601076     -2453.5914    
    352000   272.5917      -396.96014     -305.66562     -396.96014      0              6801.9472      31.007999      21.374731      32.702688      21674.937      8014.9475      6947.1617      5443.7324     -912.09608     -206.58759     -124.2445     
    354000   275.38657     -398.27575     -306.04519     -398.27575      0              6624.7838      31.007999      21.374731      32.46957       21520.43       5989.3492      8116.304       5768.6982      121.97923      271.74536      1072.2304    
    356000   278.20376     -399.46866     -306.29459     -399.46867      0              5132.8894      31.007999      21.374731      32.449339      21507.021      6088.2163      4842.3153      4468.1368     -861.31742      376.67885     -844.77213    
    358000   274.84786     -399.03891     -306.98878     -399.03891      0              7250.5409      31.007999      21.374731      32.537695      21565.582      6773.3521      8771.5185      6206.7521      27.91109      -492.95223     -992.3645     
    360000   277.05151     -397.97865     -305.19049     -397.97865      0              9082.2401      31.007999      21.374731      32.557521      21578.723      11444.334      7160.5783      8641.8081     -1130.4328     -661.47862     -107.86097    
    362000   274.56852     -400.76047     -308.80389     -400.77114      0              5565.3349      31.007999      21.374731      32.584312      21596.479      5212.0523      6565.929       4918.0234      661.37223     -470.72638      425.18447    
    364000   279.81186     -399.10489     -305.39224     -399.10489      0              5682.2705      31.007999      21.374731      32.666695      21651.081      4788.4905      8169.3882      4088.9329      1064.9281     -1874.761      -790.07315    
    366000   278.85484     -397.84633     -304.45421     -397.84633      0              5545.8512      31.007999      21.374731      32.816909      21750.642      5301.9159      6291.4696      5044.1681      305.33793      356.34253     -296.13739    
    368000   272.47391     -398.20456     -306.9495      -398.20456      0              6937.653       31.007999      21.374731      32.756828      21710.82       6658.3481      8044.8549      6109.7561      2588.5055      745.35608     -1998.4201    
    370000   284.38919     -401.1537      -305.90805     -401.1537       0              5864.5299      31.007999      21.374731      32.933669      21828.029      7862.7626      6036.5935      3694.2335     -37.216782     -329.94331     -846.48611    
    372000   275.59234     -398.55772     -306.25825     -398.55772      0              5305.7676      31.007999      21.374731      32.961612      21846.549      5269.5126      6113.7638      4534.0263      1111.0743     -229.21853     -1313.7683    
    374000   277.34011     -398.68175     -305.79693     -398.68175      0              8496.0159      31.007999      21.374731      32.794846      21736.019      10206.099      7883.2351      7398.7137     -219.50942      45.000558     -1424.2132    
    376000   279.07443     -397.30253     -303.83687     -397.30253      0              8392.5412      31.007999      21.374731      32.788957      21732.115      8014.31        6895.8759      10267.438      839.78575     -664.7554       189.13603    
    378000   272.11214     -397.75791     -306.62401     -397.75791      0              7044.1238      31.007999      21.374731      32.73272       21694.842      6804.3072      6271.4596      8056.6048      2040.1394     -27.266046     -13.018392    
    380000   269.02264     -402.09348     -311.99429     -402.09947      0              4410.3647      31.007999      21.374731      32.854349      21775.456      5246.7138      4488.7959      3495.5844     -744.95647     -121.08577      1194.9913    
    382000   273.62086     -398.28573     -306.64653     -398.28573      0              5192.4632      31.007999      21.374731      32.825601      21756.403      4842.1439      4952.1356      5783.1102      372.49638     -421.40015      119.96106    
    384000   277.20863     -402.68404     -309.84325     -402.68404      0              4691.7098      31.007999      21.374731      32.987715      21863.85       4652.3696      5066.2253      4356.5345      589.05882     -221.64738      130.41648    
    386000   269.905       -397.823       -307.4283      -397.823        0              6203.0173      31.007999      21.374731      32.976421      21856.364      5070.161       6585.7301      6953.1609      1605.1807      1475.4323      26.7001      
    388000   267.58274     -401.35897     -311.74202     -401.35897      0              6215.1576      31.007999      21.374731      32.965675      21849.242      5348.2797      5340.733       7956.46        390.90072      23.607822      1502.7672    
    390000   267.09108     -402.54624     -313.09396     -402.54624      0              5010.8225      31.007999      21.374731      32.911194      21813.133      7206.5041      3878.1263      3947.8371      201.62334     -543.07586      111.98712    
    392000   274.5778      -402.24413     -310.28444     -402.24413      0              5881.7334      31.007999      21.374731      33.141486      21965.767      5990.395       4331.9261      7322.8789      1268.3694      1229.0407      950.01054    
    394000   269.49118     -399.63484     -309.37873     -399.63484      0              5827.7386      31.007999      21.374731      32.964682      21848.583      4639.1958      6940.0342      5903.9858     -286.44499      480.33962     -1208.49      
    396000   276.38493     -403.03951     -310.4746      -403.03951      0              7942.5888      31.007999      21.374731      32.767027      21717.58       7834.3975      8277.5876      7715.7811      1591.0107      1190.2977      592.16656    
    398000   275.57808     -400.50163     -308.20694     -400.50163      0              6513.5955      31.007999      21.374731      32.867223      21783.989      4635.9206      8601.3165      6303.5493      1466.1382      667.90389      1364.9633    
    400000   272.63471     -402.35998     -311.05106     -402.35998      0              6348.2173      31.007999      21.374731      32.622875      21622.038      6426.2142      6215.1346      6403.3031      1547.8915      2023.7195     -846.59815    
    402000   269.47604     -398.63588     -308.38484     -398.63588      0              6381.0801      31.007999      21.374731      32.685835      21663.768      6131.6634      5683.3787      7328.1981     -274.35102      2041.7807     -408.80979    
    404000   267.61407     -399.6355      -310.00806     -399.6355       0              7124.2942      31.007999      21.374731      32.658745      21645.813      4772.1187      9440.3739      7160.3901     -27.004091      1751.1036      592.48983    
    406000   274.61431     -396.54697     -304.57506     -396.54697      0              5833.3469      31.007999      21.374731      32.813444      21748.345      3499.9753      5258.5171      8741.5484      1605.8387     -151.67361      1518.751     
    408000   276.85694     -398.58287     -305.85987     -398.58411      0              5358.6824      31.007999      21.374731      32.808806      21745.271      5937.6209      3615.4117      6523.0145      243.26611      952.78769      1804.1155    
    410000   275.14091     -398.74202     -306.59375     -398.74202      0              4780.9033      31.007999      21.374731      32.921152      21819.733      3643.7865      4403.2043      6295.7191     -931.46547     -1265.301      -1072.7161    
    412000   274.50038     -397.75583     -305.82207     -397.75583      0              5161.247       31.007999      21.374731      32.809259      21745.571      5441.4377      5165.6298      4876.6733     -433.49998     -217.57087     -1267.6002    
    414000   270.8898      -397.61531     -306.89078     -397.61531      0              5642.5105      31.007999      21.374731      32.68494       21663.174      6561.7088      5959.5082      4406.3144      66.965663     -512.81584     -96.553241    
    416000   276.76462     -398.41028     -305.7182      -398.42126      0              3331.4032      31.007999      21.374731      32.729941      21693.001      2619.966       3348.3636      4025.8799     -1203.7261     -218.0667       1434.641     
    418000   269.91743     -397.34604     -306.94717     -397.34604      0              8132.5803      31.007999      21.374731      32.715653      21683.531      7361.0746      9489.3319      7547.3345     -1591.152       2185.8887      1005.1569    
    420000   277.74038     -400.0698      -307.05093     -400.0698       0              5190.1406      31.007999      21.374731      32.6793        21659.436      5214.7703      5424.1415      4931.5102     -979.40414      1259.7687      118.61628    
    422000   272.86932     -394.92021     -303.53272     -394.92021      0              5389.9275      31.007999      21.374731      32.62364       21622.546      5356.7498      7244.5485      3568.4844     -296.01055     -711.39723     -46.306752    
    424000   273.33116     -399.49595     -307.95379     -399.49595      0              5216.1629      31.007999      21.374731      32.524537      21556.861      6140.7945      3797.7177      5709.9764     -382.50471     -569.87404      1536.7695    
    426000   276.44294     -398.15028     -305.56593     -398.15028      0              6927.0071      31.007999      21.374731      32.644418      21636.317      8850.4076      4788.2916      7142.3221     -3985.8357      305.59214     -158.51795    
    428000   269.94391     -395.89354     -305.48581     -395.89354      0              5001.1271      31.007999      21.374731      32.877449      21790.767      3965.2942      6791.7884      4246.2986      1863.0472     -824.72516     -1059.5022    
    430000   275.79577     -398.78102     -306.41343     -398.78102      0              7832.801       31.007999      21.374731      32.677276      21658.095      9473.0029      6264.6113      7760.7888      1298.1452     -3103.9881      1345.3757    
    432000   279.97933     -399.13851     -305.36979     -399.13851      0              6616.3817      31.007999      21.374731      32.78979       21732.667      6506.9018      5511.3524      7830.891       965.35425      376.09787     -314.98373    
    434000   280.38459     -400.51803     -306.61358     -400.51803      0              4917.3644      31.007999      21.374731      32.760077      21712.974      5598.5353      5924.846       3228.7119     -1764.0512      407.58971     -294.0467     
    436000   269.42985     -400.43893     -310.20336     -400.43893      0              7116.5928      31.007999      21.374731      32.744138      21702.41       5082.7735      6278.7399      9988.2649      815.94831      528.9043       1545.3471    
    438000   277.00769     -401.5041      -308.73061     -401.5041       0              7565.164       31.007999      21.374731      32.504134      21543.338      6826.6135      7238.4322      8630.4462      840.0511       103.66817      665.15186    
    440000   269.51238     -398.73119     -308.46797     -398.73119      0              6491.9517      31.007999      21.374731      32.397082      21472.386      7682.0117      5722.6033      6071.2401     -720.38254      1078.0527      257.2614     
    442000   276.7491      -400.42516     -307.73828     -400.42616      0              6886.2893      31.007999      21.374731      32.535318      21564.007      7326.6019      4803.8296      8528.4363     -1022.4946      857.25094     -573.45887    
    444000   273.54971     -399.81032     -308.19495     -399.81032      0              6063.7666      31.007999      21.374731      32.579263      21593.133      4674.7995      7260.0518      6256.4486     -237.50838      759.55384     -330.28916    
    446000   275.40929     -399.35737     -307.11921     -399.35737      0              5058.7515      31.007999      21.374731      32.819939      21752.65       6758.5534      2835.3104      5582.3907     -1174.9496     -563.96359      447.93587    
    448000   271.10741     -397.9381      -307.1407      -397.9381       0              7460.4417      31.007999      21.374731      32.527089      21558.552      7764.1937      5971.6777      8645.4538      1178.5348     -111.74587      5.4447157    
    450000   279.44404     -399.69993     -306.11047     -399.69993      0              7198.6287      31.007999      21.374731      32.68812       21665.282      8270.0043      8567.0072      4758.8747      1060.6965     -579.21598     -841.71013    
    452000   269.79749     -396.38282     -306.02412     -396.38282      0              5668.4809      31.007999      21.374731      32.745419      21703.259      6764.1125      4782.6846      5458.6456      1160.6263     -161.94618     -307.16197    
    454000   279.12044     -395.53655     -302.05547     -395.53655      0              5742.7534      31.007999      21.374731      32.685892      21663.805      6308.8269      4334.6998      6584.7336     -674.11384      1550.4088      548.77213    
    456000   274.60079     -398.4702      -306.50282     -398.4702       0              7411.0737      31.007999      21.374731      32.651405      21640.948      6911.592       8454.6789      6866.9502      639.8336       791.4008      -658.8815     
    458000   271.80655     -400.3982      -309.36665     -400.3982       0              9050.8483      31.007999      21.374731      32.678475      21658.889      9402.0102      8791.1948      8959.3398     -2319.2095      1710.9096      1210.7549    
    460000   273.49492     -396.75541     -305.1584      -396.75541      0              7612.512       31.007999      21.374731      32.508108      21545.972      9206.7445      7171.3949      6459.3966      850.83721      1311.5376      540.57911    
    462000   281.48232     -398.84136     -304.56926     -398.84136      0              5807.2774      31.007999      21.374731      32.4302        21494.336      3445.7168      4761.0384      9215.0771      653.97412     -1170.6105      2559.5488    
    464000   273.57341     -398.15204     -306.52874     -398.15986      0              8807.694       31.007999      21.374731      32.696154      21670.607      6232.5151      11995.203      8195.3643      474.91992      1579.1901      826.58262    
    466000   273.62074     -399.52172     -307.88257     -399.52172      0              5531.6182      31.007999      21.374731      32.703373      21675.391      6535.5908      4108.1738      5951.0899      1495.7714      489.58999     -297.88274    
    468000   276.6624      -399.23678     -306.57894     -399.23678      0              6086.4459      31.007999      21.374731      32.79156       21733.84       5889.9704      5614.9933      6754.374       790.96308      288.38555      557.78447    
    470000   272.27594     -398.59436     -307.40559     -398.59436      0              8196.2083      31.007999      21.374731      32.6682        21652.079      7729.1355      9171.8079      7687.6815      1401.9879     -1498.5188      2275.1233    
    472000   274.39895     -396.82938     -304.9296      -396.82938      0              6520.6788      31.007999      21.374731      32.647003      21638.03       7282.9886      6989.7511      5289.2967      1270.1332     -1067.5498      1414.4962    
    474000   270.63343     -399.35127     -308.71261     -399.35579      0              6354.7636      31.007999      21.374731      32.74947       21705.944      6065.9407      7742.144       5256.206      -597.11662     -840.9863      -188.84209    
    476000   273.26569     -396.84652     -305.32628     -396.86599      0              3302.204       31.007999      21.374731      32.867586      21784.23       4162.1815      1883.6597      3860.7708      1670.7632      743.70369     -690.30878    
    478000   277.90949     -400.52887     -307.45336     -400.52887      0              5473.6642      31.007999      21.374731      33.051843      21906.353      4032.951       6890.7881      5497.2536      151.54203      1248.6624      836.35392    
    480000   273.32188     -398.78297     -307.24391     -398.78297      0              4843.4326      31.007999      21.374731      32.603674      21609.312      3903.8737      4143.1083      6483.3158      827.82548      2115.3297      285.99777    
    482000   269.31034     -399.84356     -309.64802     -399.84356      0              5664.2576      31.007999      21.374731      32.613242      21615.653      3677.1413      6017.7155      7297.9161     -1080.5451     -687.20762      1148.9853    
    484000   277.64146     -401.1793      -308.19356     -401.1793       0              6376.7565      31.007999      21.374731      32.780824      21726.725      6968.8416      6100.7987      6060.6292      258.04755     -296.75473      1031.3514    
    486000   266.90078     -400.72664     -311.33809     -400.72664      0              5114.5715      31.007999      21.374731      32.735281      21696.54       3463.44        5977.5213      5902.753       1200.1503     -972.03803      1079.3714    
    488000   279.68543     -400.25146     -306.58116     -400.25146      0              6644.0445      31.007999      21.374731      32.775175      21722.981      5706.8962      9011.8563      5213.3809      980.17852     -1600.5715     -1050.42      
    490000   280.20092     -399.52177     -305.67883     -399.52177      0              6008.9358      31.007999      21.374731      33.07982       21924.896      6338.7708      7559.015       4129.0215      715.87201     -1722.0019     -843.72       
    492000   267.03714     -397.58792     -308.1537      -397.58792      0              5648.6809      31.007999      21.374731      32.955         21842.167      6796.8889      4503.481       5645.6728     -1468.5953     -272.19871     -958.82704    
    494000   279.51549     -400.88136     -307.26798     -400.88136      0              7206.2926      31.007999      21.374731      32.840987      21766.6        6124.633       8663.417       6830.8277      16.171795      233.89655     -1620.1253    
    496000   279.05448     -403.13597     -309.67699     -403.13597      0              7139.8093      31.007999      21.374731      32.591179      21601.03       5601.7895      8136.9227      7680.7157      365.47647     -1796.1712      249.76747    
    498000   263.73954     -399.83965     -311.50984     -399.83965      0              8034.4708      31.007999      21.374731      32.65951       21646.32       7851.2509      8716.2873      7535.8743     -108.65751      82.590337     -518.70882    
    500000   281.73059     -401.75619     -307.40094     -401.75619      0              4587.5571      31.007999      21.374731      32.742673      21701.439      3823.0898      4949.9658      4989.6155     -42.103533      1286.5611      501.28939    
    502000   272.99899     -400.25529     -308.82437     -400.25529      0              5064.577       31.007999      21.374731      32.751691      21707.416      4375.4809      5638.63        5179.6203     -580.84081     -716.60237     -989.62023    
    504000   269.85499     -401.87874     -311.50078     -401.8791       0              5671.5611      31.007999      21.374731      32.710834      21680.337      4527.0576      5423.5794      7064.0462      826.93031      263.84888      354.95669    
    506000   273.95762     -400.1542      -308.40223     -400.15485      0              8299.8404      31.007999      21.374731      32.685527      21663.563      6583.2921      9923.858       8392.3712      30.115881     -251.48327      269.28599    
    508000   286.1643      -400.7439      -304.90374     -400.7439       0              5914.9699      31.007999      21.374731      32.614509      21616.493      5518.243       6419.05        5807.6169     -1485.0438      513.24897      431.37854    
    510000   277.57269     -402.21084     -309.24812     -402.21084      0              5443.9476      31.007999      21.374731      32.844763      21769.103      6513.7339      6092.5228      3725.5862      1143.4484     -1124.0167     -245.6238     
    512000   278.84681     -401.09409     -307.70466     -401.09634      0              7026.3052      31.007999      21.374731      33.004562      21875.016      6061.0446      8975.8281      6042.0428     -828.75412      310.35089     -245.7801     
    514000   279.44536     -397.71186     -304.12196     -397.71186      0              7087.6361      31.007999      21.374731      32.941947      21833.516      6422.1661      8123.6823      6717.0599      2015.6901     -236.89018      1613.1242    
    516000   277.89786     -400.9117      -307.84008     -400.9117       0              5317.9955      31.007999      21.374731      32.818096      21751.428      5356.3433      4812.697       5784.9463     -1899.3567     -1502.864      -251.99052    
    518000   274.56655     -401.72861     -309.77269     -401.72861      0              6569.7442      31.007999      21.374731      32.813858      21748.62       6295.594       6877.4536      6536.1851     -245.59093      221.37966      212.35841    
    520000   279.67949     -399.95181     -306.2835      -399.95181      0              6954.2994      31.007999      21.374731      32.98899       21864.695      6299.8988      9065.1293      5497.8702      709.41834      210.57094     -781.47869    
    522000   272.79285     -399.89275     -308.53087     -399.89275      0              5824.4087      31.007999      21.374731      32.676565      21657.623      4669.1162      6295.3839      6508.7258      1816.4712      465.93288      362.95202    
    524000   282.00954     -400.28533     -305.83666     -400.28533      0              7344.5271      31.007999      21.374731      32.858237      21778.033      8014.2914      7408.525       6610.7648      1043.9645      136.31777     -1013.7822    
    526000   272.69351     -400.55375     -309.22514     -400.56587      0              5184.549       31.007999      21.374731      32.716511      21684.099      5187.7788      5292.0985      5073.7698     -1482.8811     -229.09242     -962.23265    
    528000   279.71605     -401.06106     -307.38051     -401.06106      0              7277.445       31.007999      21.374731      32.84433       21768.816      7364.1654      7529.2312      6938.9385      155.41182      1166.8538     -702.71253    
    530000   278.69156     -400.24002     -306.90259     -400.24002      0              4902.1076      31.007999      21.374731      32.837387      21764.214      5213.5012      4214.9324      5277.8893      1227.7023      307.54962     -520.23923    
    532000   281.27728     -398.023       -303.81957     -398.04089      0              7749.9397      31.007999      21.374731      32.795215      21736.263      7136.1594      7999.3201      8114.3396      1407.3772      475.03392      398.66446    
    534000   277.73223     -398.37694     -305.36079     -398.37694      0              3330.3375      31.007999      21.374731      32.824288      21755.532      3549.0867      2802.4442      3639.4816      1943.7933     -1567.9128     -698.91508    
    536000   269.64105     -399.68126     -309.37496     -399.68769      0              5333.83        31.007999      21.374731      32.876388      21790.063      6110.929       4812.9145      5077.6464     -1392.3252      1667.1402     -611.41118    
    538000   277.68101     -399.75222     -306.75323     -399.75222      0              4884.6835      31.007999      21.374731      33.120142      21951.621      5331.8418      5605.8719      3716.3369      1479.8845      1199.5334     -279.16761    
    540000   271.24277     -399.68129     -308.83855     -399.68129      0              7073.1255      31.007999      21.374731      32.848826      21771.796      6721.8937      8027.4783      6470.0045     -393.84424      1006.4731      889.42734    
    542000   271.2387      -401.03436     -310.19298     -401.03436      0              4177.9064      31.007999      21.374731      32.917125      21817.064      4403.7667      2462.1279      5667.8245     -136.23235      288.54089      1083.0203    
    544000   276.81344     -402.53633     -309.8279      -402.53633      0              5677.2391      31.007999      21.374731      32.957053      21843.527      4403.202       5695.8888      6932.6264     -255.28689     -891.36897     -1061.4779    
    546000   271.99515     -399.29941     -308.20469     -399.29941      0              3989.8661      31.007999      21.374731      33.035552      21895.556      7277.8624      3082.8697      1608.8662     -1276.286       543.74892      24.090806    
    548000   273.9784      -400.14153     -308.38259     -400.14153      0              5966.2016      31.007999      21.374731      32.894417      21802.013      5148.8928      8189.1353      4560.5767      728.25765     -1412.0163     -1182.9011    
    550000   280.10987     -401.66593     -307.85348     -401.66593      0              7250.7307      31.007999      21.374731      32.822359      21754.254      6958.9919      7103.7363      7689.4638      873.86258      604.89493     -1261.0464    
    552000   270.5171      -400.85725     -310.25755     -400.85725      0              6267.2645      31.007999      21.374731      32.707793      21678.321      5871.8445      6607.7615      6322.1874      249.98365     -48.915024      1980.1964    
    554000   277.58683     -397.9523      -304.98485     -397.9523       0              4636.7695      31.007999      21.374731      32.636043      21630.766      4545.0888      5113.3362      4251.8836     -1048.0278      1682.1865     -1290.7338    
    556000   272.37417     -400.27236     -309.0507      -400.27236      0              4966.4686      31.007999      21.374731      32.629003      21626.099      3978.2574      4767.751       6153.3974      582.21092     -1300.1979      2001.9944    
    558000   275.81461     -401.11814     -308.74423     -401.11814      0              5481.0837      31.007999      21.374731      32.900903      21806.312      4921.2477      5931.1395      5590.864      -162.45155      705.78744      828.45297    
    560000   277.20275     -398.12011     -305.28129     -398.12011      0              5049.4028      31.007999      21.374731      32.674527      21656.272      3952.1907      4219.6109      6976.4067     -1685.9457     -56.301148     -816.72893    
    562000   282.4521      -402.61113     -308.01424     -402.61113      0              8371.8955      31.007999      21.374731      32.886576      21796.816      8739.5702      8416.431       7959.6852      1023.0905      989.3129       1918.5283    
    564000   274.22835     -402.63996     -310.79731     -402.63996      0              3774.195       31.007999      21.374731      32.941567      21833.263      4583.3829      3745.9879      2993.2142     -1929.9944      1509.276       433.82077    
    566000   275.21454     -397.56        -305.38706     -397.56         0              8014.6296      31.007999      21.374731      32.750572      21706.674      7107.4622      7182.2872      9754.1394      841.44219      850.3425       814.63004    
    568000   278.79905     -399.41521     -306.04177     -399.41521      0              5858.4455      31.007999      21.374731      32.692855      21668.42       5078.0459      4536.9798      7960.3108     -242.9748       415.66737      963.62007    
[...]
   7788000   280.65449     -403.17842     -309.18358     -403.19308      0              5009.871       31.007999      21.374731      32.667356      21651.52       5827.6725      4965.9055      4236.035      -1208.1517      894.3035      -749.43278    
   7790000   280.47384     -402.21933     -308.28499     -402.17656      0              5920.423       31.007999      21.374731      32.443503      21503.153      5327.4702      6576.2583      5857.5407      1281.3379      1155.4811     -1615.3855    
   7792000   271.59147     -398.32308     -307.36355     -398.3789       0              7280.6347      31.007999      21.374731      32.679135      21659.327      9132.2532      6749.6821      5959.9688      202.83281     -658.69532     -2457.2117    
   7794000   273.03136     -402.28539     -310.84363     -402.31563      0              6320.3143      31.007999      21.374731      32.68823       21665.355      6229.1865      7434.27        5297.4864     -735.70906     -1314.6881     -1789.7202    
   7796000   271.96538     -401.9674      -310.88265     -401.98402      0              5390.0992      31.007999      21.374731      32.401396      21475.245      3942.2616      6202.6222      6025.414       472.46881     -313.44081     -1476.3602    
   7798000   275.36859     -400.15299     -307.92846     -400.16849      0              6126.1752      31.007999      21.374731      32.514285      21550.066      6613.1821      6451.2675      5314.0759     -288.51638     -2202.1864      689.27892    
   7800000   274.76095     -400.81707     -308.79604     -400.77985      0              6243.9088      31.007999      21.374731      32.611431      21614.454      6292.8615      6746.6161      5692.2489     -1170.5811     -358.03943     -1571.2065    
   7802000   275.65164     -402.93224     -310.61292     -402.92239      0              4637.9024      31.007999      21.374731      32.601044      21607.569      3941.3319      3893.5082      6078.8672     -200.23512     -651.34115      401.99475    
   7804000   277.83446     -399.72137     -306.67099     -399.7453       0              5807.5303      31.007999      21.374731      32.777188      21724.315      6512.7939      6281.4541      4628.3431     -403.22192     -904.31572     -448.6707     
   7806000   275.20635     -402.01165     -309.84146     -402.00044      0              6670.0126      31.007999      21.374731      32.631874      21628.003      5862.5574      6073.5651      8073.9152      384.67971      274.44936     -1976.2777    
   7808000   283.49252     -401.12073     -306.17539     -401.1531       0              6010.4364      31.007999      21.374731      32.818687      21751.82       5819.4628      7328.8716      4882.9747      1285.9142      1114.5714     -554.27642    
   7810000   271.46413     -402.79521     -311.87834     -402.77573      0              6332.9603      31.007999      21.374731      32.677107      21657.982      6474.685       4364.9722      8159.2238      935.78805     -80.120465      2432.118     
   7812000   278.1079      -400.84346     -307.7015      -400.85499      0              5137.7941      31.007999      21.374731      32.992185      21866.812      3174.0186      5714.3971      6524.9666     -999.60345     -575.65941     -738.07299    
   7814000   269.4257      -400.56095     -310.32677     -400.59229      0              6314.5299      31.007999      21.374731      32.785066      21729.537      6390.76        4726.8087      7826.0211      360.35029      405.60455      728.05887    
   7816000   279.88273     -401.96957     -308.2332      -401.98598      0              5377.9086      31.007999      21.374731      32.827057      21757.368      4718.5513      5446.5142      5968.6604      499.35725     -364.50487     -488.50277    
   7818000   282.12679     -402.0746      -307.58666     -402.05173      0              6087.0882      31.007999      21.374731      32.795138      21736.212      4606.8826      5563.9755      8090.4065      1915.2343      42.404206      894.25125    
   7820000   271.87223     -400.38845     -309.3349      -400.38753      0              6372.0381      31.007999      21.374731      32.817859      21751.271      6208.01        6592.1662      6315.9383      318.09331      545.73904      555.29591    
   7822000   276.17783     -402.82902     -310.33347     -402.85053      0              5345.5671      31.007999      21.374731      32.703861      21675.715      4869.6796      4960.808       6206.2137     -858.06031      196.868        1002.9499    
   7824000   278.1168      -400.6029      -307.45795     -400.57379      0              6485.1927      31.007999      21.374731      32.539248      21566.611      5602.5908      6952.9905      6899.9969     -792.09273      1582.4919      1538.4878    
   7826000   274.77161     -401.80955     -309.78495     -401.81071      0              6038.7542      31.007999      21.374731      32.582407      21595.217      4336.0856      5710.3548      8069.8221      1207.1285     -880.22899      574.26193    
   7828000   264.22008     -399.82745     -311.3367      -399.85835      0              7674.9998      31.007999      21.374731      32.517555      21552.233      8610.8608      6926.2143      7487.9243     -345.02592     -388.01236      1351.8171    
   7830000   276.83697     -401.40695     -308.69064     -401.40756      0              4632.77        31.007999      21.374731      32.467471      21519.039      4597.6646      2424.6538      6875.9917      1762.6249     -1361.8677      1480.6555    
   7832000   268.25515     -401.81654     -311.9744      -401.83883      0              4087.6676      31.007999      21.374731      32.652035      21641.365      4700.1639      5241.4498      2321.3892      1031.1315     -296.24866     -139.52948    
   7834000   277.10598     -399.0019      -306.1955      -399.00434      0              5906.083       31.007999      21.374731      32.732297      21694.562      5002.0906      7060.2245      5655.9339     -893.67806     -1122.4157     -292.05127    
   7836000   280.32285     -398.95713     -305.07335     -398.95519      0              5755.5653      31.007999      21.374731      32.764715      21716.048      5960.9199      5813.4852      5492.2907      1437.5961     -582.16066     -110.07978    
   7838000   282.33842     -398.04515     -303.48634     -398.04373      0              8104.484       31.007999      21.374731      32.706536      21677.488      8395.4443      8546.2964      7371.7114     -481.60503     -1769.621      -102.74914    
   7840000   276.98237     -400.10797     -307.34296     -400.12721      0              6676.7277      31.007999      21.374731      32.739992      21699.662      7809.4708      4616.1856      7604.5267      213.3356      -812.0314       1294.7905    
   7842000   280.51638     -400.29621     -306.34762     -400.31781      0              6678.7701      31.007999      21.374731      32.583594      21596.003      7449.6107      4895.3478      7691.3519      1010.2643      656.7169       1612.2251    
   7844000   276.06537     -401.18497     -308.72708     -401.20951      0              6133.151       31.007999      21.374731      32.844452      21768.897      5615.344       4803.9446      7980.1644      516.59829     -177.39076     -156.54039    
   7846000   269.04082     -402.06135     -311.95608     -402.04513      0              3719.1723      31.007999      21.374731      32.738077      21698.393      3039.0885      3121.9387      4996.4898     -308.68993      867.08343      1051.4616    
   7848000   273.24145     -398.63002     -307.1179      -398.61976      0              5769.3438      31.007999      21.374731      32.780212      21726.32       4953.0226      7974.3668      4380.642       1768.7942      724.21176      795.94576    
   7850000   267.39951     -400.04384     -310.48826     -400.07638      0              5542.8185      31.007999      21.374731      32.874631      21788.899      3330.3626      6708.312       6589.7809      1092.9677      15.652854     -222.15556    
   7852000   268.50986     -399.5975      -309.67005     -399.6176       0              3917.5792      31.007999      21.374731      32.666981      21651.271      4127.8845      4590.6076      3034.2454      1275.3796      610.56858     -907.97851    
   7854000   285.84774     -399.41324     -303.6791      -399.39861      0              6197.816       31.007999      21.374731      32.717553      21684.79       7415.2609      5823.4255      5354.7615     -1011.2831     -424.62914      871.61442    
   7856000   269.71914     -400.79829     -310.46584     -400.74544      0              6530.6507      31.007999      21.374731      32.59934       21606.44       6157.2835      8713.1789      4721.4896     -2514.027      -1248.477      -1222.4566    
   7858000   287.10376     -402.50566     -306.35087     -402.47804      0              6672.1405      31.007999      21.374731      32.721257      21687.244      6789.6949      6701.6404      6525.0861      141.61945      1014.4591     -1281.8778    
   7860000   272.03351     -400.92682     -309.81926     -400.84985      0              5244.3015      31.007999      21.374731      32.540674      21567.557      4191.3182      7366.6044      4174.9819     -422.09244      170.8228       218.44439    
   7862000   274.01402     -404.51317     -312.7423      -404.40867      0              6718.5341      31.007999      21.374731      32.569241      21586.49       8052.5762      6362.6197      5740.4063      1411.484      -2149.291      -870.48606    
   7864000   276.37502     -401.8834      -309.32181     -401.77525      0              6601.3928      31.007999      21.374731      32.567469      21585.316      6091.4385      6967.9107      6744.8292     -445.15194     -707.74172     -171.55524    
   7866000   276.91217     -401.73349     -308.99199     -401.6945       0              7036.2928      31.007999      21.374731      32.58458       21596.657      7283.9789      7916.3929      5908.5066     -217.12959     -1856.6102     -425.93676    
   7868000   269.34472     -404.64638     -314.43933     -404.6045       0              7385.2647      31.007999      21.374731      32.677866      21658.485      7657.0869      8020.1173      6478.5898     -1715.8242     -255.72668      85.027413    
   7870000   281.50388     -397.70711     -303.42779     -397.69267      0              7290.5924      31.007999      21.374731      32.537195      21565.251      6706.8432      8308.713       6856.221      -347.0036      -428.98968     -1038.8483    
   7872000   275.27784     -403.4212      -311.22706     -403.40807      0              7726.1342      31.007999      21.374731      32.573447      21589.278      7061.8495      8164.7314      7951.8217      2146.3623     -612.65034      401.15206    
   7874000   267.63213     -403.38065     -313.74716     -403.32534      0              8297.9374      31.007999      21.374731      32.568628      21586.084      7646.2203      10262.22       6985.3716      256.73126      2414.695       901.68376    
   7876000   267.70205     -405.66204     -316.00513     -405.62708      0              6541.3178      31.007999      21.374731      32.653488      21642.328      6762.3043      6981.5492      5880.0998     -977.06719      693.48647      1875.7897    
   7878000   271.74236     -405.31524     -314.30519     -405.26593      0              6671.2645      31.007999      21.374731      32.628568      21625.811      6609.5944      6838.8208      6565.3784     -71.712546     -1864.994      -23.629912    
   7880000   278.43125     -401.5122      -308.26195     -401.47002      0              4651.3237      31.007999      21.374731      32.601776      21608.054      6214.3299      3488.552       4251.0891      953.61468     -1362.3174      1378.7562    
   7882000   277.90649     -404.25851     -311.18401     -404.21061      0              5087.4748      31.007999      21.374731      32.586009      21597.604      4420.8273      6162.0761      4679.521       2276.9221      108.94755     -1037.9902    
   7884000   269.51297     -403.72327     -313.45986     -403.6567       0              6489.3392      31.007999      21.374731      32.523945      21556.468      6508.9379      7386.4386      5572.6412      1552.3472      630.25541     -1507.2997    
   7886000   279.06994     -406.9075      -313.44334     -406.81188      0              4242.1097      31.007999      21.374731      32.604362      21609.768      3955.8139      4240.6157      4529.8994      1170.345       289.58355     -538.35088    
   7888000   280.7111      -402.1394      -308.12559     -402.08217      0              4677.1393      31.007999      21.374731      32.570103      21587.062      6963.6628      3369.7887      3697.9663     -1094.9896      1862.5509      1028.9954    
   7890000   276.50889     -400.8027      -308.19627     -400.75928      0              6501.0562      31.007999      21.374731      32.731421      21693.981      4686.0282      6200.8047      8616.3357     -613.9351      -1175.9145      844.03099    
   7892000   277.57875     -399.80609     -306.84135     -399.78208      0              5829.9911      31.007999      21.374731      32.720697      21686.874      3840.2788      4752.8463      8896.8482     -210.93687      27.594075      2306.5913    
   7894000   277.98867     -402.0854      -308.98337     -402.0402       0              5671.7345      31.007999      21.374731      32.634076      21629.462      5852.6419      4177.0967      6985.4648      34.574708      799.57913      1421.5969    
   7896000   275.01619     -404.68002     -312.57351     -404.60757      0              6498.0975      31.007999      21.374731      32.5467        21571.55       7417.9331      5771.4137      6304.9457      665.36106      641.59511      1755.3608    
   7898000   270.29944     -405.6355      -315.10869     -405.60613      0              5363.6615      31.007999      21.374731      32.888877      21798.341      3927.5729      6883.5269      5279.8847      551.24679     -1420.5596     -438.72411    
   7900000   278.57515     -402.60762     -309.30917     -402.60675      0              7083.1511      31.007999      21.374731      32.688949      21665.832      8020.8638      5461.6893      7766.9002      808.42049     -755.62754      542.35237    
   7902000   274.89233     -402.7467      -310.68167     -402.69504      0              6619.7874      31.007999      21.374731      32.644994      21636.698      7296.8471      6151.0669      6411.4483     -449.01252     -1113.3595     -501.41713    
   7904000   273.86912     -402.37706     -310.65472     -402.34001      0              5106.9712      31.007999      21.374731      32.612275      21615.013      5488.6642      5155.3547      4676.8947      256.49539      263.07876     -186.15406    
   7906000   269.32059     -403.85313     -313.65415     -403.79353      0              8097.4703      31.007999      21.374731      32.677707      21658.38       6781.2349      8566.3471      8944.829      -195.60183      1333.8593      1731.7712    
   7908000   283.39591     -404.0541      -309.14112     -404.01027      0              6594.9316      31.007999      21.374731      32.552317      21575.273      8183.505       3476.8897      8124.4001     -356.9784      -771.89079     -1796.5851    
   7910000   273.55695     -402.8139      -311.19611     -402.71383      0              6600.1249      31.007999      21.374731      32.486006      21531.323      4669.6415      7268.0095      7862.7238      940.74596      285.72315      548.22913    
   7912000   278.34364     -404.47178     -311.25087     -404.40205      0              6936.2162      31.007999      21.374731      32.531203      21561.279      7326.2166      5992.8805      7489.5516     -987.51656     -212.44509     -1032.5917    
   7914000   278.44163     -401.56535     -308.31162     -401.45577      0              5876.4719      31.007999      21.374731      32.686736      21664.364      4895.7452      7369.4051      5364.2654      2322.5829     -1289.4216     -226.0525     
   7916000   270.78739     -401.20238     -310.51215     -401.16615      0              5051.4012      31.007999      21.374731      32.538109      21565.856      4789.8524      6202.2866      4162.0646      921.86415      1009.3406     -918.34304    
   7918000   266.03842     -401.79539     -312.69565     -401.77414      0              7661.4871      31.007999      21.374731      32.511729      21548.372      5017.7392      8761.0639      9205.6583      459.19492      1493.6537      2010.8007    
   7920000   275.69995     -400.93559     -308.60009     -400.83066      0              7189.7551      31.007999      21.374731      32.644335      21636.262      7445.0644      8512.5816      5611.6192      1552.3628      460.0227      -1572.6427    
   7922000   273.58034     -404.34819     -312.72257     -404.24472      0              7353.4292      31.007999      21.374731      32.577311      21591.839      8867.2176      6725.0636      6468.0065     -62.803023      157.78583     -1543.4421    
   7924000   273.68287     -401.39972     -309.73976     -401.30903      0              5616.7152      31.007999      21.374731      32.568854      21586.234      5172.0866      6539.4269      5138.6321      586.74211     -497.00801     -208.61205    
   7926000   278.80774     -400.60463     -307.22828     -400.52561      0              5769.4223      31.007999      21.374731      32.620194      21620.262      5184.332       6322.41        5801.525      -1735.963       2122.0987     -829.12662    
   7928000   276.09973     -404.50267     -312.03327     -404.34956      0              6725.7504      31.007999      21.374731      32.74565       21703.412      6734.3371      7812.5226      5630.3915     -882.56921      951.97538      310.56848    
   7930000   278.09899     -399.03233     -305.89335     -398.97012      0              5610.6065      31.007999      21.374731      32.894653      21802.169      6260.9964      6182.678       4388.1451     -644.62045     -1646.0168      1097.9042    
WARNING: Wall time limit reached (../timer.cpp:193)
Loop time of 21956.7 on 4 procs for 1931000 steps with 2592 atoms

Performance: 3.799 ns/day, 6.317 hours/ns, 87.946 timesteps/s
1465.4% CPU use with 4 MPI tasks x no OpenMP threads

MPI task timing breakdown:
Section |  min time  |  avg time  |  max time  |%varavg| %total
---------------------------------------------------------------
Pair    | 5409.8     | 5436.5     | 5462.1     |  31.8 | 24.76
Bond    | 0.20258    | 0.21111    | 0.21975    |   1.5 |  0.00
Neigh   | 162.94     | 165.3      | 168.49     |  18.4 |  0.75
Comm    | 598.13     | 626.7      | 652.97     |  96.4 |  2.85
Output  | 1342.6     | 1345.6     | 1354.8     |  14.4 |  6.13
Modify  | 14367      | 14368      | 14369      |   0.5 | 65.44
Other   |            | 14.56      |            |       |  0.07

Nlocal:            648 ave         656 max         636 min
Histogram: 1 0 0 0 0 0 1 0 1 1
Nghost:        4248.25 ave        4258 max        4243 min
Histogram: 2 0 0 1 0 0 0 0 0 1
Neighs:              0 ave           0 max           0 min
Histogram: 4 0 0 0 0 0 0 0 0 0
FullNghs:       165950 ave      170333 max      160569 min
Histogram: 1 0 0 0 1 0 0 1 0 1

Total # of neighbors = 663798
Ave neighs/atom = 256.09491
Ave special neighs/atom = 0
Neighbor list builds = 38620
Dangerous builds not checked
unfix 3
unfix 1
unfix 2


# Finalize simulation
write_restart	restart.lmp.${pid}
write_restart	restart.lmp.0
System init for write_restart ...
Generated 0 of 1 mixed pair_coeff terms from geometric mixing rule
write_data	data.final.${pid} nocoeff
write_data	data.final.0 nocoeff
System init for write_data ...
Generated 0 of 1 mixed pair_coeff terms from geometric mixing rule
Total wall time: 23:50:14
