LAMMPS data file via MDAnalysis

        2268  atoms
           0  bonds
           0  angles
           0  dihedrals
           0  impropers

           2  atom types
           0  bond types
           0  angle types
           0  dihedral types
           0  improper types

0.000000 47.450699 xlo xhi
0.000000 20.155001 ylo yhi
0.000000 20.523001 zlo zhi


Masses

1 15.999000
2 1.008000

Atoms

1 0 1 -1.179400 11.583746 6.653972 2.627724
2 0 2 0.589700 12.329391 6.665144 3.214301
3 0 2 0.589700 10.949882 7.254678 3.012527
4 0 1 -1.179400 4.484259 16.970068 11.760035
5 0 2 0.589700 4.693640 16.067795 12.002259
6 0 2 0.589700 5.335939 17.391273 11.643844
7 0 1 -1.179400 1.478729 0.467687 5.679348
8 0 2 0.589700 0.529794 0.593008 5.689149
9 0 2 0.589700 1.595892 19.742867 5.703967
10 0 1 -1.179400 3.399364 0.900452 19.674498
11 0 2 0.589700 2.989886 1.448765 0.027513
12 0 2 0.589700 2.783037 0.916151 18.958788
13 0 1 -1.179400 21.099794 14.019486 11.336885
14 0 2 0.589700 20.231569 13.717821 11.598720
15 0 2 0.589700 20.949574 14.483129 10.531123
16 0 1 -1.179400 6.921186 10.875440 3.898658
17 0 2 0.589700 6.862781 9.936409 3.717316
18 0 2 0.589700 6.335792 11.009735 4.627234
19 0 1 -1.179400 0.449966 6.212322 1.964726
20 0 2 0.589700 0.596579 7.145092 2.128307
21 0 2 0.589700 46.967514 6.149012 1.765697
22 0 1 -1.179400 1.193982 18.306145 18.211802
23 0 2 0.589700 1.604009 18.420773 19.049818
24 0 2 0.589700 1.863043 17.872265 17.693602
25 0 1 -1.179400 5.698201 16.270550 18.292704
26 0 2 0.589700 6.192771 15.739667 17.681589
27 0 2 0.589700 5.645506 15.726136 19.061251
28 0 1 -1.179400 1.362314 7.317206 17.849541
29 0 2 0.589700 2.142892 7.575945 17.370447
30 0 2 0.589700 1.528355 6.407903 18.098736
31 0 1 -1.179400 8.424205 6.611626 0.151179
32 0 2 0.589700 9.372510 6.566559 0.270553
33 0 2 0.589700 8.291435 6.406233 19.548521
34 0 1 -1.179400 5.675041 8.786083 18.659662
35 0 2 0.589700 4.822066 9.148683 18.424898
36 0 2 0.589700 5.561365 7.836294 18.592934
37 0 1 -1.179400 18.489784 11.143426 3.259210
38 0 2 0.589700 18.081770 11.424097 2.458351
39 0 2 0.589700 17.909410 11.478539 3.927565
40 0 1 -1.179400 2.131540 14.204817 18.545948
41 0 2 0.589700 1.195795 14.331956 18.698946
42 0 2 0.589700 2.464664 15.084051 18.362652
43 0 1 -1.179400 3.410706 13.009248 12.035474
44 0 2 0.589700 2.540740 13.403531 11.969756
45 0 2 0.589700 3.261375 12.168067 12.460484
46 0 1 -1.179400 1.927174 9.127515 6.793404
47 0 2 0.589700 2.359053 8.664906 7.495908
48 0 2 0.589700 1.743812 8.445067 6.160942
49 0 1 -1.179400 6.845541 18.293898 11.928600
50 0 2 0.589700 7.602418 18.626284 11.456467
51 0 2 0.589700 7.162846 18.182096 12.804569
52 0 1 -1.179400 7.346469 5.744771 9.749466
53 0 2 0.589700 7.118610 5.045247 9.149415
54 0 2 0.589700 6.521460 5.961356 10.174249
55 0 1 -1.179400 15.775193 13.158469 14.862046
56 0 2 0.589700 15.036905 12.577106 15.043517
57 0 2 0.589700 15.462904 14.031445 15.100546
58 0 1 -1.179400 22.918270 12.122625 12.607742
59 0 2 0.589700 23.230898 11.977420 11.734837
60 0 2 0.589700 22.187088 12.733754 12.512212
61 0 1 -1.179400 8.900243 18.627417 6.137166
62 0 2 0.589700 8.305621 18.823622 5.429390
63 0 2 0.589700 8.355514 18.169930 6.763820
64 0 1 -1.179400 18.611328 13.211377 9.310854
65 0 2 0.589700 18.832859 12.452274 9.840067
66 0 2 0.589700 19.307907 13.250000 8.670243
67 0 1 -1.179400 14.148820 13.352812 18.057913
68 0 2 0.589700 13.833363 12.463963 17.889498
69 0 2 0.589700 13.354081 13.867103 18.200012
70 0 1 -1.179400 20.500341 8.006821 2.294768
71 0 2 0.589700 20.863914 8.599892 2.938461
72 0 2 0.589700 19.591599 8.290389 2.195540
73 0 1 -1.179400 10.203015 4.225895 13.379249
74 0 2 0.589700 10.705557 3.789024 14.051900
75 0 2 0.589700 9.734801 3.515672 12.948140
76 0 1 -1.179400 8.636826 19.751060 2.951888
77 0 2 0.589700 9.565362 19.597641 3.122865
78 0 2 0.589700 8.560947 19.702454 2.020404
79 0 1 -1.179400 15.390670 19.189302 5.630259
80 0 2 0.589700 15.020576 18.545353 5.038763
81 0 2 0.589700 14.630289 19.575432 6.055789
82 0 1 -1.179400 8.399276 7.070199 5.939972
83 0 2 0.589700 8.968499 6.770282 6.632948
84 0 2 0.589700 8.147504 6.267879 5.490346
85 0 1 -1.179400 22.785646 1.836159 13.439578
86 0 2 0.589700 22.311138 1.334063 14.087913
87 0 2 0.589700 22.521753 2.745584 13.586851
88 0 1 -1.179400 22.200466 7.211951 10.067819
89 0 2 0.589700 23.117334 7.450309 9.933161
90 0 2 0.589700 21.954626 7.662758 10.857907
91 0 1 -1.179400 21.453449 18.124601 10.300917
92 0 2 0.589700 22.342619 17.824919 10.486728
93 0 2 0.589700 20.925488 17.780531 11.005479
94 0 1 -1.179400 14.394769 11.499437 4.312286
95 0 2 0.589700 14.192505 12.183499 3.687031
96 0 2 0.589700 14.075705 11.848924 5.125855
97 0 1 -1.179400 6.055311 13.678355 9.288804
98 0 2 0.589700 5.430187 13.280342 8.696130
99 0 2 0.589700 6.826432 13.862403 8.764373
100 0 1 -1.179400 11.321066 10.219383 3.986889
101 0 2 0.589700 10.861736 9.397650 3.810442
102 0 2 0.589700 11.759568 10.069256 4.805572
103 0 1 -1.179400 6.820887 4.649724 12.508609
104 0 2 0.589700 6.770111 4.725159 13.440024
105 0 2 0.589700 7.592098 5.164125 12.273482
106 0 1 -1.179400 5.618550 1.071692 6.137693
107 0 2 0.589700 4.701068 1.298517 5.988825
108 0 2 0.589700 5.722210 1.116632 7.066794
109 0 1 -1.179400 23.414932 2.234732 20.092382
110 0 2 0.589700 23.209755 3.144350 19.874046
111 0 2 0.589700 24.291073 2.274137 0.165210
112 0 1 -1.179400 24.706041 0.959374 2.862214
113 0 2 0.589700 24.545574 1.892574 2.714115
114 0 2 0.589700 25.362226 0.939070 3.543114
115 0 1 -1.179400 25.720758 4.146480 5.229983
116 0 2 0.589700 25.530914 5.030127 5.542689
117 0 2 0.589700 25.480343 3.569801 5.939673
118 0 1 -1.179400 18.875425 18.865124 4.154459
119 0 2 0.589700 19.737423 18.450871 4.108243
120 0 2 0.589700 19.003775 19.733942 3.778665
121 0 1 -1.179400 24.568062 5.681309 1.326175
122 0 2 0.589700 24.366993 4.961658 1.912568
123 0 2 0.589700 24.328163 6.473457 1.798589
124 0 1 -1.179400 24.035900 3.645490 3.060776
125 0 2 0.589700 23.170958 3.831461 3.418112
126 0 2 0.589700 24.649654 3.979420 3.700592
127 0 1 -1.179400 22.615461 15.762884 13.497667
128 0 2 0.589700 22.247452 15.317607 12.751141
129 0 2 0.589700 21.958225 15.645094 14.168106
130 0 1 -1.179400 19.370035 10.350605 19.098675
131 0 2 0.589700 20.078657 10.835270 18.683878
132 0 2 0.589700 18.717442 10.226829 18.424938
133 0 1 -1.179400 15.016898 18.180828 1.853842
134 0 2 0.589700 14.932873 19.110130 1.637749
135 0 2 0.589700 15.067069 17.735188 1.026807
136 0 1 -1.179400 26.562260 0.269251 4.763563
137 0 2 0.589700 26.446856 0.758934 5.560093
138 0 2 0.589700 26.194592 19.629948 4.943827
139 0 1 -1.179400 12.927126 15.369042 1.088165
140 0 2 0.589700 12.325226 14.670837 1.343657
141 0 2 0.589700 12.465575 16.180471 1.300758
142 0 1 -1.179400 26.061293 2.316235 0.365694
143 0 2 0.589700 26.453295 3.093024 -0.027087
144 0 2 0.589700 26.657602 2.087618 1.062774
145 0 1 -1.179400 29.570433 2.290378 20.265890
146 0 2 0.589700 29.266600 1.691804 19.597914
147 0 2 0.589700 29.428883 3.165677 19.909439
148 0 1 -1.179400 31.315201 1.328503 3.198109
149 0 2 0.589700 31.320930 2.247622 2.931043
150 0 2 0.589700 31.261524 0.833777 2.398291
151 0 1 -1.179400 32.749142 4.587384 5.607274
152 0 2 0.589700 32.233906 4.079629 6.220777
153 0 2 0.589700 32.745106 5.479990 5.949419
154 0 1 -1.179400 28.267511 3.930977 3.538757
155 0 2 0.589700 27.688581 3.831873 4.277564
156 0 2 0.589700 27.770517 4.472795 2.938759
157 0 1 -1.179400 31.567198 6.259304 1.348157
158 0 2 0.589700 32.524357 6.255436 1.355227
159 0 2 0.589700 31.319590 5.614660 1.997236
160 0 1 -1.179400 30.942274 4.234411 3.207708
161 0 2 0.589700 31.228256 4.222400 4.100532
162 0 2 0.589700 29.986340 4.245024 3.254575
163 0 1 -1.179400 27.386728 5.735942 1.651017
164 0 2 0.589700 26.572432 5.638072 1.168577
165 0 2 0.589700 27.358870 6.634292 1.977429
166 0 1 -1.179400 29.308811 0.644308 4.847550
167 0 2 0.589700 28.516148 0.369454 4.396798
168 0 2 0.589700 29.902693 0.932085 4.169606
169 0 1 -1.179400 29.170485 5.177516 6.564365
170 0 2 0.589700 29.839163 5.438914 7.183369
171 0 2 0.589700 29.251518 4.223573 6.509576
172 0 1 -1.179400 33.145821 0.657957 5.092186
173 0 2 0.589700 32.794674 20.024588 5.323684
174 0 2 0.589700 32.561047 0.975481 4.419340
175 0 1 -1.179400 27.925385 1.585078 2.097462
176 0 2 0.589700 28.511829 1.831874 1.398287
177 0 2 0.589700 28.043324 2.274536 2.737530
178 0 1 -1.179400 32.396881 2.462164 0.257607
179 0 2 0.589700 31.452133 2.335700 0.171561
180 0 2 0.589700 32.780090 1.854740 19.939995
181 0 1 -1.179400 36.179367 2.321306 20.229513
182 0 2 0.589700 35.698166 2.090076 0.704217
183 0 2 0.589700 37.081165 2.055010 0.103286
184 0 1 -1.179400 37.722458 1.293128 3.403397
185 0 2 0.589700 37.006218 1.079376 3.988015
186 0 2 0.589700 37.715496 0.584337 2.773159
187 0 1 -1.179400 39.196495 4.317050 5.694697
188 0 2 0.589700 38.489323 4.258828 5.066710
189 0 2 0.589700 39.154785 3.487415 6.162284
190 0 1 -1.179400 34.555187 4.155068 3.563332
191 0 2 0.589700 35.468319 4.263897 3.823076
192 0 2 0.589700 34.049232 4.393293 4.322812
193 0 1 -1.179400 37.768726 6.156053 1.696487
194 0 2 0.589700 37.598423 6.742866 2.417564
195 0 2 0.589700 38.720119 6.171653 1.594714
196 0 1 -1.179400 37.492229 4.090550 3.491512
197 0 2 0.589700 37.619583 3.198603 3.171044
198 0 2 0.589700 37.813171 4.654929 2.803158
199 0 1 -1.179400 34.230209 6.274263 1.850127
200 0 2 0.589700 34.712799 5.939987 1.110844
201 0 2 0.589700 34.395958 5.632741 2.526481
202 0 1 -1.179400 35.861614 0.978841 5.401648
203 0 2 0.589700 35.839397 0.214597 5.966472
204 0 2 0.589700 34.989933 1.006590 5.016040
205 0 1 -1.179400 35.795685 5.524728 6.419841
206 0 2 0.589700 36.403412 5.783087 7.097341
207 0 2 0.589700 35.691769 6.314185 5.898403
208 0 1 -1.179400 39.719826 0.445268 4.907510
209 0 2 0.589700 39.026901 0.715203 4.318185
210 0 2 0.589700 39.640633 1.047567 5.631489
211 0 1 -1.179400 34.432064 1.670865 2.066622
212 0 2 0.589700 34.501614 2.431883 2.631921
213 0 2 0.589700 33.568424 1.755307 1.671689
214 0 1 -1.179400 38.976337 2.098042 0.574449
215 0 2 0.589700 39.169102 2.909247 0.112306
216 0 2 0.589700 39.640770 2.057715 1.246799
217 0 1 -1.179400 42.787365 2.738445 0.453475
218 0 2 0.589700 43.696392 2.700752 0.744234
219 0 2 0.589700 42.676525 3.635343 0.140385
220 0 1 -1.179400 44.396259 1.095684 3.550673
221 0 2 0.589700 44.591690 0.514041 2.831698
222 0 2 0.589700 45.084492 0.912343 4.175858
223 0 1 -1.179400 45.999279 4.622593 5.846418
224 0 2 0.589700 46.618191 4.515357 5.140388
225 0 2 0.589700 46.026142 5.559541 6.044335
226 0 1 -1.179400 41.087154 4.422626 3.701595
227 0 2 0.589700 40.588184 4.432417 4.499996
228 0 2 0.589700 41.984627 4.226771 3.964881
229 0 1 -1.179400 44.847740 5.733068 1.923564
230 0 2 0.589700 44.549126 4.953413 2.383627
231 0 2 0.589700 44.255451 5.802839 1.191718
232 0 1 -1.179400 44.058121 3.993298 4.006493
233 0 2 0.589700 44.715786 4.256701 4.635874
234 0 2 0.589700 44.188988 3.049186 3.903185
235 0 1 -1.179400 40.689602 6.055735 1.638182
236 0 2 0.589700 40.939926 5.577175 2.411205
237 0 2 0.589700 41.044113 6.937195 1.763954
238 0 1 -1.179400 42.575428 0.076935 5.408827
239 0 2 0.589700 41.723930 0.213417 5.002713
240 0 2 0.589700 43.212135 0.312814 4.749193
241 0 1 -1.179400 42.774921 4.931695 6.933022
242 0 2 0.589700 43.576431 5.218775 7.361003
243 0 2 0.589700 42.807125 3.974118 6.973926
244 0 1 -1.179400 46.081841 0.474295 5.355562
245 0 2 0.589700 45.851849 1.034773 6.080741
246 0 2 0.589700 45.938515 19.807886 5.666442
247 0 1 -1.179400 40.905678 1.925030 2.352487
248 0 2 0.589700 40.910210 2.728983 2.862595
249 0 2 0.589700 41.554123 2.081850 1.681477
250 0 1 -1.179400 45.487434 2.644225 0.831457
251 0 2 0.589700 45.697838 3.577792 0.771602
252 0 2 0.589700 45.894787 2.254111 0.075139
253 0 1 -1.179400 13.053164 2.188116 2.028788
254 0 2 0.589700 13.869922 1.690094 2.073092
255 0 2 0.589700 13.250139 2.922099 1.458190
256 0 1 -1.179400 17.427498 14.375595 2.927006
257 0 2 0.589700 17.489559 15.311520 2.732052
258 0 2 0.589700 16.559677 14.119999 2.620959
259 0 1 -1.179400 14.765645 18.495024 14.127743
260 0 2 0.589700 15.037560 17.588558 14.278396
261 0 2 0.589700 14.735008 18.577505 13.196054
262 0 1 -1.179400 0.026119 16.035500 15.452234
263 0 2 0.589700 0.235166 15.124075 15.659626
264 0 2 0.589700 46.643463 15.987164 14.994368
265 0 1 -1.179400 17.551781 12.933586 17.001987
266 0 2 0.589700 16.874876 12.993423 16.343039
267 0 2 0.589700 17.516094 12.022261 17.291327
268 0 1 -1.179400 18.986332 10.912501 10.754848
269 0 2 0.589700 19.717314 10.635699 10.214522
270 0 2 0.589700 18.207071 10.594320 10.308920
271 0 1 -1.179400 0.072987 12.636600 2.041269
272 0 2 0.589700 0.829852 12.564525 1.472815
273 0 2 0.589700 0.067936 13.555186 2.310092
274 0 1 -1.179400 7.602498 4.739337 4.491706
275 0 2 0.589700 7.517605 3.860161 4.856175
276 0 2 0.589700 8.371414 4.685469 3.936952
277 0 1 -1.179400 2.214549 18.919498 0.450993
278 0 2 0.589700 2.640769 19.740658 0.205956
279 0 2 0.589700 1.475122 19.190735 0.982961
280 0 1 -1.179400 2.392381 12.719451 0.640499
281 0 2 0.589700 2.488709 11.771269 0.536398
282 0 2 0.589700 2.468403 13.070474 20.074972
283 0 1 -1.179400 5.900042 19.540455 17.084869
284 0 2 0.589700 5.633751 18.918575 16.421867
285 0 2 0.589700 6.748804 19.216093 17.379770
286 0 1 -1.179400 8.558387 2.736576 6.681363
287 0 2 0.589700 9.444155 3.095165 6.623179
288 0 2 0.589700 8.684508 1.826458 6.949375
289 0 1 -1.179400 6.587098 2.969809 1.774274
290 0 2 0.589700 6.922715 2.614213 2.578911
291 0 2 0.589700 7.258726 2.752235 1.142321
292 0 1 -1.179400 22.725008 18.864189 20.086691
293 0 2 0.589700 22.478851 19.444565 19.381763
294 0 2 0.589700 22.177927 19.147829 0.500835
295 0 1 -1.179400 16.438538 12.111550 7.769072
296 0 2 0.589700 17.210155 12.340493 8.275681
297 0 2 0.589700 15.852565 12.863457 7.865164
298 0 1 -1.179400 19.167334 2.160511 19.774065
299 0 2 0.589700 18.711226 2.979791 19.579687
300 0 2 0.589700 18.553211 1.668924 0.005966
301 0 1 -1.179400 4.214864 16.048264 9.150024
302 0 2 0.589700 4.802890 15.291577 9.141726
303 0 2 0.589700 4.309322 16.416800 10.008870
304 0 1 -1.179400 7.614684 14.819463 16.899950
305 0 2 0.589700 7.485898 13.876688 16.783388
306 0 2 0.589700 8.023628 15.111450 16.103407
307 0 1 -1.179400 10.807298 12.601511 12.799026
308 0 2 0.589700 11.510424 13.235809 12.940831
309 0 2 0.589700 11.253349 11.814034 12.490664
310 0 1 -1.179400 18.729771 6.347856 13.699993
311 0 2 0.589700 18.557547 7.109622 13.157077
312 0 2 0.589700 19.372440 6.658123 14.323819
313 0 1 -1.179400 0.170800 6.081186 8.411142
314 0 2 0.589700 0.117742 6.998589 8.678853
315 0 2 0.589700 0.472770 5.613791 9.172957
316 0 1 -1.179400 10.591229 4.052952 8.891580
317 0 2 0.589700 11.443803 4.142287 9.307886
318 0 2 0.589700 10.013979 3.717581 9.562389
319 0 1 -1.179400 9.093135 11.616704 7.898919
320 0 2 0.589700 9.146212 11.504321 6.971178
321 0 2 0.589700 8.156934 11.573829 8.089263
322 0 1 -1.179400 3.177372 16.929886 3.865090
323 0 2 0.589700 3.801680 17.556208 3.505030
324 0 2 0.589700 2.327136 17.362009 3.781540
325 0 1 -1.179400 19.058882 7.051250 4.919246
326 0 2 0.589700 18.780764 6.139129 4.821007
327 0 2 0.589700 19.969374 7.058036 4.630634
328 0 1 -1.179400 1.037658 0.761894 11.376363
329 0 2 0.589700 0.811758 1.247848 10.600548
330 0 2 0.589700 1.878889 0.350889 11.180195
331 0 1 -1.179400 9.306272 13.086609 10.629990
332 0 2 0.589700 9.980449 13.027233 11.291645
333 0 2 0.589700 9.038221 12.178582 10.481675
334 0 1 -1.179400 1.495296 4.677715 19.351006
335 0 2 0.589700 1.539367 4.273954 18.503422
336 0 2 0.589700 0.563285 4.845555 19.487555
337 0 1 -1.179400 17.625914 2.466082 12.333536
338 0 2 0.589700 17.118910 2.190590 13.080244
339 0 2 0.589700 18.158205 1.700777 12.116182
340 0 1 -1.179400 23.063581 4.495687 13.879798
341 0 2 0.589700 23.993790 4.487705 14.100263
342 0 2 0.589700 23.047478 4.632708 12.953895
343 0 1 -1.179400 6.915649 8.296393 2.942648
344 0 2 0.589700 6.427778 8.739870 2.263819
345 0 2 0.589700 6.680915 7.371301 2.851936
346 0 1 -1.179400 8.956444 9.450177 20.025331
347 0 2 0.589700 8.640043 8.588574 -0.006140
348 0 2 0.589700 9.880157 9.458182 -0.031499
349 0 1 -1.179400 13.530979 1.808904 13.344114
350 0 2 0.589700 13.434959 1.012019 12.832070
351 0 2 0.589700 14.348287 1.681522 13.815000
352 0 1 -1.179400 22.950283 9.024053 6.388385
353 0 2 0.589700 23.779625 8.765131 6.781365
354 0 2 0.589700 22.283403 8.756250 7.006635
355 0 1 -1.179400 4.292535 9.868048 14.840165
356 0 2 0.589700 4.453342 9.525525 13.980490
357 0 2 0.589700 3.366261 10.109831 14.838233
358 0 1 -1.179400 18.504829 8.712412 12.072455
359 0 2 0.589700 18.568714 9.534997 11.595499
360 0 2 0.589700 17.584015 8.460764 12.001699
361 0 1 -1.179400 16.770481 9.489891 9.607847
362 0 2 0.589700 17.109325 8.595730 9.539066
363 0 2 0.589700 16.071865 9.533596 8.969670
364 0 1 -1.179400 24.186853 7.752909 3.052234
365 0 2 0.589700 23.394543 7.463696 3.494955
366 0 2 0.589700 24.888670 7.622930 3.675717
367 0 1 -1.179400 26.207844 10.941894 5.210048
368 0 2 0.589700 25.548700 10.768926 4.552917
369 0 2 0.589700 26.123558 11.879229 5.389997
370 0 1 -1.179400 19.172203 7.542657 19.544516
371 0 2 0.589700 19.157780 7.368068 18.624620
372 0 2 0.589700 19.495024 8.442553 19.615711
373 0 1 -1.179400 24.777416 12.256400 1.044243
374 0 2 0.589700 23.896412 11.948083 0.836054
375 0 2 0.589700 24.636084 13.046968 1.555575
376 0 1 -1.179400 24.220011 10.491917 3.201995
377 0 2 0.589700 24.334599 9.552262 3.052048
378 0 2 0.589700 24.586510 10.909955 2.439931
379 0 1 -1.179400 20.758537 15.154913 15.434590
380 0 2 0.589700 20.351635 14.323236 15.191944
381 0 2 0.589700 20.068827 15.632562 15.885977
382 0 1 -1.179400 22.631504 4.846809 6.707889
383 0 2 0.589700 21.800791 5.053507 7.126695
384 0 2 0.589700 22.775307 3.917787 6.892766
385 0 1 -1.179400 17.196323 18.529106 9.915272
386 0 2 0.589700 17.551504 17.644020 9.818995
387 0 2 0.589700 17.876410 19.010921 10.376291
388 0 1 -1.179400 25.840460 7.048487 5.315001
389 0 2 0.589700 25.741934 7.718003 5.977946
390 0 2 0.589700 26.760950 7.101522 5.063657
391 0 1 -1.179400 17.214682 10.305806 17.475998
392 0 2 0.589700 17.502811 9.853406 16.700567
393 0 2 0.589700 16.571230 9.714253 17.859091
394 0 1 -1.179400 25.096676 9.093344 0.331590
395 0 2 0.589700 24.192034 8.780893 0.355374
396 0 2 0.589700 25.491201 8.627040 19.912666
397 0 1 -1.179400 29.080479 9.242952 0.187066
398 0 2 0.589700 28.598835 8.892962 0.919990
399 0 2 0.589700 28.891653 8.630843 19.792847
400 0 1 -1.179400 30.758163 8.075805 3.375199
401 0 2 0.589700 30.887857 7.678039 2.533324
402 0 2 0.589700 30.741182 9.019445 3.209049
403 0 1 -1.179400 32.296974 11.370342 5.263542
404 0 2 0.589700 32.410549 10.745705 5.964776
405 0 2 0.589700 31.701992 10.930279 4.669524
406 0 1 -1.179400 28.309828 10.494658 3.468884
407 0 2 0.589700 27.736771 10.565494 4.215121
408 0 2 0.589700 27.975063 11.150605 2.869875
409 0 1 -1.179400 31.579748 12.820209 1.207426
410 0 2 0.589700 31.145552 13.415080 1.806151
411 0 2 0.589700 32.513885 12.940208 1.374632
412 0 1 -1.179400 30.916983 10.698123 3.090491
413 0 2 0.589700 29.985529 10.706876 3.305830
414 0 2 0.589700 31.016027 11.393695 2.453667
415 0 1 -1.179400 27.541191 12.261345 1.348610
416 0 2 0.589700 26.607405 12.196155 1.153040
417 0 2 0.589700 27.972914 12.219745 0.514533
418 0 1 -1.179400 28.660326 7.361846 4.991732
419 0 2 0.589700 29.438089 7.435379 4.451091
420 0 2 0.589700 28.718592 6.483995 5.364151
421 0 1 -1.179400 29.534954 12.116364 6.447407
422 0 2 0.589700 29.409504 11.170967 6.348986
423 0 2 0.589700 30.216324 12.198168 7.099680
424 0 1 -1.179400 32.559002 7.627296 5.374461
425 0 2 0.589700 31.931530 7.647673 4.668177
426 0 2 0.589700 32.391640 8.436334 5.849499
427 0 1 -1.179400 27.096815 8.403029 1.997975
428 0 2 0.589700 26.436111 8.819054 1.456131
429 0 2 0.589700 27.414207 9.109455 2.549501
430 0 1 -1.179400 31.794449 9.436903 0.301436
431 0 2 0.589700 32.027946 10.104825 19.972012
432 0 2 0.589700 30.854156 9.304405 0.183407
433 0 1 -1.179400 36.263779 9.532554 20.184896
434 0 2 0.589700 35.636375 9.468732 0.586758
435 0 2 0.589700 35.993420 8.849310 19.583849
436 0 1 -1.179400 37.684227 8.059445 3.758066
437 0 2 0.589700 37.770771 9.005215 3.628069
438 0 2 0.589700 36.775391 7.937900 4.026688
439 0 1 -1.179400 39.121780 11.118173 6.039317
440 0 2 0.589700 39.131306 12.024046 6.346368
441 0 2 0.589700 39.142895 10.586238 6.817567
442 0 1 -1.179400 34.556919 10.780420 3.846962
443 0 2 0.589700 33.780655 11.067905 4.317068
444 0 2 0.589700 34.253845 10.038060 3.334012
445 0 1 -1.179400 37.895592 12.569941 1.796453
446 0 2 0.589700 37.728107 11.873046 2.418033
447 0 2 0.589700 37.815826 13.381501 2.288850
448 0 1 -1.179400 37.319309 10.822698 3.896595
449 0 2 0.589700 37.702869 10.880496 4.751974
450 0 2 0.589700 36.374184 10.827509 4.044622
451 0 1 -1.179400 34.221657 12.848027 2.217012
452 0 2 0.589700 34.557236 12.217818 2.841352
453 0 2 0.589700 34.717228 12.666330 1.436406
454 0 1 -1.179400 35.257595 7.868505 5.079447
455 0 2 0.589700 34.317471 7.689862 5.055616
456 0 2 0.589700 35.383175 8.386946 5.856957
457 0 1 -1.179400 35.976364 12.166980 6.937690
458 0 2 0.589700 35.821503 12.880073 6.330637
459 0 2 0.589700 36.835236 12.359756 7.305434
460 0 1 -1.179400 39.302872 7.377817 5.808643
461 0 2 0.589700 39.267326 6.419457 5.803416
462 0 2 0.589700 38.595741 7.648043 5.235797
463 0 1 -1.179400 34.273224 9.113216 1.675054
464 0 2 0.589700 33.502525 9.205604 1.127542
465 0 2 0.589700 34.296021 8.181490 1.895622
466 0 1 -1.179400 38.913292 8.912049 0.341516
467 0 2 0.589700 37.959373 8.987252 0.366068
468 0 2 0.589700 39.201454 9.680804 20.160225
469 0 1 -1.179400 42.836731 9.217115 0.213144
470 0 2 0.589700 42.817284 10.175416 0.244466
471 0 2 0.589700 42.173489 8.941724 0.831957
472 0 1 -1.179400 44.306370 7.961231 3.428983
473 0 2 0.589700 43.633045 7.617701 4.003367
474 0 2 0.589700 44.369137 7.308937 2.745848
475 0 1 -1.179400 46.070469 11.695045 5.430828
476 0 2 0.589700 45.269817 11.461987 4.971229
477 0 2 0.589700 46.778225 11.362871 4.890656
478 0 1 -1.179400 41.165871 10.577781 4.183268
479 0 2 0.589700 40.899250 11.228612 3.547395
480 0 2 0.589700 40.542583 10.687701 4.885217
481 0 1 -1.179400 44.695221 12.520321 2.055913
482 0 2 0.589700 44.522560 11.879465 2.731215
483 0 2 0.589700 45.618973 12.395034 1.843404
484 0 1 -1.179400 44.011791 10.766578 3.944439
485 0 2 0.589700 44.237339 9.862052 3.725163
486 0 2 0.589700 43.113556 10.715322 4.263843
487 0 1 -1.179400 40.749878 12.673254 2.232109
488 0 2 0.589700 39.855728 12.596606 1.906652
489 0 2 0.589700 40.947834 13.609850 2.176918
490 0 1 -1.179400 42.127998 7.219571 5.196623
491 0 2 0.589700 42.305130 6.394086 5.640313
492 0 2 0.589700 41.179249 7.224583 5.072715
493 0 1 -1.179400 42.712669 11.891764 6.764180
494 0 2 0.589700 42.141903 12.050739 7.499091
495 0 2 0.589700 42.657051 10.945985 6.618984
496 0 1 -1.179400 46.093163 7.375538 5.348763
497 0 2 0.589700 45.766758 7.718378 4.535284
498 0 2 0.589700 47.030518 7.246221 5.207339
499 0 1 -1.179400 40.992157 8.724023 2.157355
500 0 2 0.589700 40.092697 8.765837 1.839936
501 0 2 0.589700 41.017124 9.356228 2.860493
502 0 1 -1.179400 45.746742 9.417624 0.411109
503 0 2 0.589700 45.712067 10.267298 -0.021467
504 0 2 0.589700 44.835190 9.127107 0.445180
505 0 1 -1.179400 0.807723 11.249238 17.541727
506 0 2 0.589700 0.405961 10.547314 17.039490
507 0 2 0.589700 0.588866 12.052504 17.077486
508 0 1 -1.179400 6.515060 0.734402 8.683850
509 0 2 0.589700 6.504035 1.110312 9.544549
510 0 2 0.589700 7.415773 0.433606 8.564910
511 0 1 -1.179400 1.855068 13.714953 4.701306
512 0 2 0.589700 1.828953 12.961473 5.279580
513 0 2 0.589700 2.292751 14.402646 5.193502
514 0 1 -1.179400 0.023912 19.404602 2.084748
515 0 2 0.589700 0.120800 0.118297 2.242181
516 0 2 0.589700 0.091829 19.003334 2.931952
517 0 1 -1.179400 17.940838 4.732021 19.018600
518 0 2 0.589700 17.003828 4.768576 18.830818
519 0 2 0.589700 18.351446 5.219883 18.320183
520 0 1 -1.179400 5.258015 17.657375 15.368363
521 0 2 0.589700 5.010088 16.747419 15.199309
522 0 2 0.589700 6.156006 17.727009 15.051622
523 0 1 -1.179400 11.232851 5.245292 17.161915
524 0 2 0.589700 11.279950 4.828495 18.003313
525 0 2 0.589700 12.136758 5.248235 16.854101
526 0 1 -1.179400 17.188938 8.156291 6.435408
527 0 2 0.589700 17.893072 7.848621 5.877202
528 0 2 0.589700 17.328955 7.690466 7.241728
529 0 1 -1.179400 8.260253 19.881491 0.306388
530 0 2 0.589700 7.489949 19.668438 20.093351
531 0 2 0.589700 8.945389 20.069757 19.981358
532 0 1 -1.179400 8.341807 12.145214 19.556162
533 0 2 0.589700 8.563391 11.224868 19.705482
534 0 2 0.589700 7.400584 12.196041 19.718983
535 0 1 -1.179400 0.324792 15.459553 2.323527
536 0 2 0.589700 -0.234508 15.869445 1.678068
537 0 2 0.589700 1.192170 15.431928 1.928748
538 0 1 -1.179400 17.802053 4.628713 4.516654
539 0 2 0.589700 17.885361 4.267198 3.653872
540 0 2 0.589700 18.219614 3.977622 5.069229
541 0 1 -1.179400 15.294976 0.680479 2.213174
542 0 2 0.589700 16.114676 0.655740 1.730625
543 0 2 0.589700 15.567856 0.745755 3.107720
544 0 1 -1.179400 1.213854 0.751541 17.769892
545 0 2 0.589700 1.284381 20.022415 17.735945
546 0 2 0.589700 1.029141 1.012040 16.887720
547 0 1 -1.179400 19.047375 13.128163 12.981439
548 0 2 0.589700 19.402693 12.991354 13.839910
549 0 2 0.589700 18.355844 12.470410 12.899476
550 0 1 -1.179400 3.599136 0.309962 10.596930
551 0 2 0.589700 3.964154 19.884356 10.011134
552 0 2 0.589700 4.140589 0.242312 11.365660
553 0 1 -1.179400 10.022669 16.821045 17.089733
554 0 2 0.589700 10.785406 17.261518 17.457012
555 0 2 0.589700 10.389310 16.200813 16.472618
556 0 1 -1.179400 20.229567 5.272082 0.871248
557 0 2 0.589700 20.544617 5.887531 1.519367
558 0 2 0.589700 19.967243 5.827230 0.152686
559 0 1 -1.179400 20.889921 12.414727 2.607231
560 0 2 0.589700 21.301083 12.515885 3.446368
561 0 2 0.589700 19.978111 12.197621 2.797457
562 0 1 -1.179400 0.477631 17.697920 4.187756
563 0 2 0.589700 0.110260 17.009272 3.644535
564 0 2 0.589700 0.043406 17.580786 5.013712
565 0 1 -1.179400 5.567780 12.175629 20.093884
566 0 2 0.589700 5.348350 12.083108 19.187647
567 0 2 0.589700 5.323472 13.077302 0.002970
568 0 1 -1.179400 15.552984 8.469984 18.713264
569 0 2 0.589700 14.789518 8.925162 19.061541
570 0 2 0.589700 15.986770 8.092267 19.461487
571 0 1 -1.179400 15.252170 9.789829 7.294860
572 0 2 0.589700 15.924110 9.278499 6.853085
573 0 2 0.589700 15.597175 10.684309 7.307654
574 0 1 -1.179400 3.388245 1.738003 4.267846
575 0 2 0.589700 2.649726 1.296063 4.678213
576 0 2 0.589700 2.998342 2.495719 3.839241
577 0 1 -1.179400 5.245819 8.671027 12.621553
578 0 2 0.589700 5.767411 9.470707 12.539012
579 0 2 0.589700 5.815095 8.059615 13.079775
580 0 1 -1.179400 5.340619 2.728834 18.808083
581 0 2 0.589700 5.065596 3.415487 19.403383
582 0 2 0.589700 4.759530 1.990742 18.993204
583 0 1 -1.179400 5.381474 9.794582 0.904295
584 0 2 0.589700 5.630579 9.363036 0.105001
585 0 2 0.589700 5.479352 10.731080 0.726785
586 0 1 -1.179400 10.928779 16.694096 13.060814
587 0 2 0.589700 11.325418 17.222816 13.738335
588 0 2 0.589700 11.256165 17.080675 12.266606
589 0 1 -1.179400 14.811218 5.307510 13.171872
590 0 2 0.589700 15.121721 4.567102 12.660480
591 0 2 0.589700 13.973006 5.546775 12.785064
592 0 1 -1.179400 22.729307 19.891418 4.075004
593 0 2 0.589700 23.540905 0.111989 3.839043
594 0 2 0.589700 22.962013 19.367670 4.825059
595 0 1 -1.179400 15.257701 16.444365 20.028278
596 0 2 0.589700 14.602950 15.891535 0.144510
597 0 2 0.589700 16.022804 15.876356 19.933313
598 0 1 -1.179400 16.077646 0.856195 8.250149
599 0 2 0.589700 16.895189 1.019756 8.709873
600 0 2 0.589700 15.881829 1.687163 7.824058
601 0 1 -1.179400 11.847754 16.886780 10.509672
602 0 2 0.589700 12.372049 17.460186 9.962106
603 0 2 0.589700 11.477691 16.236980 9.924283
604 0 1 -1.179400 18.918966 3.178038 6.628572
605 0 2 0.589700 19.687199 2.728111 6.283834
606 0 2 0.589700 19.272173 3.960100 7.045798
607 0 1 -1.179400 17.380785 14.710843 19.037411
608 0 2 0.589700 18.222265 14.681727 19.482449
609 0 2 0.589700 17.421831 13.986951 18.425003
610 0 1 -1.179400 13.185915 2.557491 4.683249
611 0 2 0.589700 12.578863 3.234838 4.977586
612 0 2 0.589700 12.987598 2.453974 3.773504
613 0 1 -1.179400 23.066792 16.104645 0.178754
614 0 2 0.589700 22.840956 17.032984 0.098638
615 0 2 0.589700 22.480701 15.773457 0.844197
616 0 1 -1.179400 24.209955 14.228736 2.998581
617 0 2 0.589700 23.580471 13.767699 3.541263
618 0 2 0.589700 24.027821 15.158378 3.143989
619 0 1 -1.179400 25.682716 17.908081 5.328703
620 0 2 0.589700 25.544355 17.133001 5.862875
621 0 2 0.589700 26.458296 17.698267 4.819998
622 0 1 -1.179400 21.371948 10.554016 9.272546
623 0 2 0.589700 22.085989 10.484868 9.891996
624 0 2 0.589700 21.735550 11.076855 8.573322
625 0 1 -1.179400 24.783285 18.647974 1.832032
626 0 2 0.589700 24.452730 18.623051 0.954294
627 0 2 0.589700 24.608484 19.543226 2.120788
628 0 1 -1.179400 23.681864 16.771481 3.810002
629 0 2 0.589700 24.397558 16.788820 4.431070
630 0 2 0.589700 23.942575 17.402132 3.152793
631 0 1 -1.179400 18.424023 4.718007 9.678961
632 0 2 0.589700 18.885111 4.667877 10.497431
633 0 2 0.589700 18.336639 3.805309 9.404626
634 0 1 -1.179400 17.695694 11.551833 0.705649
635 0 2 0.589700 17.963257 11.122427 20.212980
636 0 2 0.589700 16.861622 11.971344 0.497764
637 0 1 -1.179400 22.307520 4.758734 11.315857
638 0 2 0.589700 21.414242 4.438209 11.439245
639 0 2 0.589700 22.204096 5.569697 10.826738
640 0 1 -1.179400 25.943535 13.769412 5.248417
641 0 2 0.589700 25.500656 13.971247 4.442667
642 0 2 0.589700 26.873442 13.892218 5.061736
643 0 1 -1.179400 21.443979 6.388505 14.923903
644 0 2 0.589700 21.647141 7.141188 14.379150
645 0 2 0.589700 21.846567 5.641762 14.488224
646 0 1 -1.179400 25.802959 15.611293 0.132716
647 0 2 0.589700 25.674103 15.163896 19.616776
648 0 2 0.589700 24.921209 15.859657 0.404466