LAMMPS data file via write_data, version 29 Sep 2021, timestep = 2000000

864 atoms
2 atom types

0.059994872271147415 18.147578127729112 xlo xhi
0.07066603166524388 21.37544896833578 ylo yhi
0.0731936022874713 22.14000239771142 zlo zhi

Masses

1 1.008
2 15.999

Atoms # full

782 0 2 0.5897 1.4511938610257127 1.8321728282472654 1.2082930791047737 0 0 0
781 0 1 -1.1794 1.7557594853252467 2.4029563127202214 1.9343699171976176 0 0 0
345 0 2 0.5897 3.537929919213578 2.95626942108173 1.6933938810804388 0 0 1
783 0 2 0.5897 0.9769713845866909 2.994263988816352 2.1190958604371524 0 0 0
668 0 2 0.5897 2.5202346947722805 2.124004665252828 3.5799766573654974 0 1 1
343 0 1 -1.1794 4.4325879855015105 2.786570308302414 1.3926496279878673 1 0 1
344 0 2 0.5897 4.787110769009743 2.1869122655989264 2.1288947090396557 1 0 1
794 0 2 0.5897 8.619739322261692 1.8050753667864055 3.6450793717551995 0 0 1
651 0 2 0.5897 9.052347792434144 3.701705716508957 0.21328968511226037 0 1 1
400 0 1 -1.1794 5.371696602023753 1.351017770534525 3.4706854600542174 0 0 0
479 0 2 0.5897 5.705993899904302 4.1153712574912396 1.4848236090217362 0 0 -1
401 0 2 0.5897 4.671456631725758 1.6126675315654262 4.099759155636283 0 0 0
402 0 2 0.5897 6.162803289280547 1.5859961058289045 3.959755044588646 0 0 0
795 0 2 0.5897 7.925715544490373 3.0315567040865834 4.301873368432978 0 0 1
793 0 1 -1.1794 8.05586420936224 2.0169319883127574 4.377286071323194 0 0 1
428 0 2 0.5897 9.674304341980191 2.9303887917175504 1.998836980878614 1 0 0
427 0 1 -1.1794 10.003587023978616 2.1491521275515986 2.5106358396573145 1 0 0
429 0 2 0.5897 10.630711510697688 2.5305674248884165 3.1716553843555393 1 0 0
272 0 2 0.5897 9.686364893941857 0.9331086472055461 0.7199864783928808 0 0 -1
271 0 1 -1.1794 9.690328135312653 0.11815682443811784 0.1969847103318142 0 0 -1
403 0 1 -1.1794 11.680059824935052 3.320202091479491 4.315889425731998 1 0 1
526 0 1 -1.1794 14.302247659685563 1.8464529249887613 0.9805476414576781 -1 0 0
527 0 2 0.5897 14.315577900917663 2.781535439568532 0.797328336059594 -1 0 0
528 0 2 0.5897 14.889549729499056 1.76065721157812 1.7317434063681367 -1 0 0
727 0 1 -1.1794 15.886679766942887 1.5447737563762305 3.7039865521843485 -1 1 0
729 0 2 0.5897 16.400343692509505 2.2155457297772925 3.234047594402639 -1 1 0
305 0 2 0.5897 16.730199022628955 0.2809307339263529 4.263474925457498 0 0 1
728 0 2 0.5897 15.417559105863239 2.020498501092607 4.476932764588334 -1 1 0
556 0 1 -1.1794 17.25789896721899 3.7102075083656763 2.389550944044262 0 1 1
558 0 2 0.5897 17.246410825730297 4.21355946532022 3.1740715019138666 0 1 1
803 0 2 0.5897 2.07401618173598 4.9371707562531615 3.1885219520530392 1 1 1
804 0 2 0.5897 2.946403539108553 6.237255938424802 3.420143518551782 1 1 1
802 0 1 -1.1794 2.7175060090715797 5.522742595375443 2.8103631475663042 1 1 1
14 0 2 0.5897 1.7541659004719097 7.929120239445867 1.7908423035851373 0 1 0
13 0 1 -1.1794 1.026095261050865 7.5930514232498005 1.2379162391894647 1 1 0
155 0 2 0.5897 3.257893633135533 5.322723583074959 1.0055812091054954 1 0 0
412 0 1 -1.1794 2.901109919331023 8.333175815355814 3.1475166422099727 0 0 1
414 0 2 0.5897 3.842402611678071 8.410503324578634 2.800016196737187 0 0 1
15 0 2 0.5897 0.9682579084450462 6.644057261279472 1.2556298527369234 1 1 0
154 0 1 -1.1794 3.5568231427400163 5.674786660531064 0.11984774481339097 1 0 0
649 0 1 -1.1794 8.946093596248716 4.336308408617361 0.9876070241232858 0 1 1
650 0 2 0.5897 7.940369237929315 4.485396403555569 1.0840379995028353 0 1 1
644 0 2 0.5897 4.951688770281864 7.079335702884998 0.8203357795363452 1 -1 0
643 0 1 -1.1794 5.233242878640772 7.976895482572274 0.9377498016685558 1 -1 0
478 0 1 -1.1794 6.3379832863758425 4.834843458124937 1.4716204382971294 0 0 -1
862 0 1 -1.1794 5.694177401967829 6.56496881418466 3.8251365076257895 0 1 0
863 0 2 0.5897 5.707212364558587 7.5578820948854375 3.676451630013677 0 1 0
480 0 2 0.5897 6.04777201358492 5.468480128195211 2.1652584789106895 0 0 -1
611 0 2 0.5897 9.088909102264623 5.982217600455205 4.25767662224451 0 1 -1
555 0 2 0.5897 8.13962683950578 7.682998150185159 2.5973231141507855 1 1 0
553 0 1 -1.1794 7.81191932771134 8.164517397448462 1.8310204062777802 1 1 0
645 0 2 0.5897 6.200801842518034 8.000067055596844 1.276480425792184 1 -1 0
554 0 2 0.5897 8.422564173103927 7.861353723316223 1.1412220746813917 1 1 1
444 0 2 0.5897 6.7677699989505395 5.317949173411564 4.333730495741965 0 1 1
545 0 2 0.5897 13.004066814794834 4.796577433476459 0.8286926499806351 0 0 1
610 0 1 -1.1794 9.380065645467042 6.706620881861447 3.720554854023085 0 1 -1
612 0 2 0.5897 9.599066145576579 7.3608269444704915 4.374371641274634 0 1 -1
255 0 2 0.5897 11.563734014107702 4.703663250180851 2.6901516254340367 0 0 0
253 0 1 -1.1794 11.528534048454777 5.548312593730005 2.2543060958334658 0 0 0
254 0 2 0.5897 10.831843908455076 6.0055920753689565 2.7728779778960773 0 0 0
735 0 2 0.5897 9.840277303830185 6.2915047730377225 0.2766942059333167 0 0 0
519 0 2 0.5897 13.17747831131978 6.29737045588563 2.9036477221452484 0 0 0
227 0 2 0.5897 13.206036421379462 8.15595154625336 4.165942798502508 0 0 0
544 0 1 -1.1794 13.815219694421996 4.565076388556956 0.38893402220451684 0 0 0
557 0 2 0.5897 17.12782145315818 4.3362838984879675 1.6588909267574317 0 1 1
517 0 1 -1.1794 14.046536391423807 6.485298153012728 3.2823404069354414 0 0 0
518 0 2 0.5897 14.69676640920487 6.544499912903804 2.5414443318932007 0 0 0
473 0 2 0.5897 17.53645166245839 8.38038539784994 1.834325288092327 0 0 1
474 0 2 0.5897 16.787996252004508 8.575910535971412 3.0993068870428493 0 0 1
223 0 1 -1.1794 17.331308658079248 5.227417301516523 0.26926723202589387 0 0 0
413 0 2 0.5897 2.879466905484504 8.850079121743288 4.005200004068389 0 0 1
158 0 2 0.5897 2.9488399387527378 11.205231503390713 2.8224541879729332 0 1 1
157 0 1 -1.1794 2.7534286105536254 11.61596299064397 1.9764967250302228 0 1 1
430 0 1 -1.1794 3.4915232259583133 10.644618181592872 4.337563438967514 0 0 1
159 0 2 0.5897 1.847361398001922 11.510717079190547 1.783582430566086 0 0 1
297 0 2 0.5897 0.619707901944093 12.54703251726391 3.8765227863333664 0 0 0
431 0 2 0.5897 4.379038419085943 10.290129657300055 4.415479285432178 1 0 1
631 0 1 -1.1794 0.12074304331874686 11.669320215023022 2.1214999223894777 1 0 0
501 0 2 0.5897 3.4398684439569256 10.36917315918628 0.47996842330123823 0 -1 0
693 0 2 0.5897 5.135211487469989 11.661909524412412 2.6508331949735733 0 0 0
691 0 1 -1.1794 5.7480519076407095 11.305304694451003 1.9410584649301643 0 0 0
692 0 2 0.5897 6.491637428015805 10.921133092920176 2.416929134792681 0 0 0
233 0 2 0.5897 8.295159581432962 9.579951421112014 2.5927398186884334 0 0 1
232 0 1 -1.1794 8.107408249341166 10.351328566137935 3.183471846041562 0 0 1
234 0 2 0.5897 8.887170176438762 10.871304088102438 3.3020737663725814 0 0 1
93 0 2 0.5897 6.88782584046256 9.642163143062755 4.0399581204504935 0 1 0
91 0 1 -1.1794 6.077519897971322 9.25421107104546 4.479753821869041 0 1 0
123 0 2 0.5897 5.109329951365659 11.851813097594107 0.18341063527196297 0 -1 0
463 0 1 -1.1794 11.872456603391619 8.912499282604111 0.38479081407175186 0 0 1
768 0 2 0.5897 12.491996509802801 9.861423861039436 3.255868574612537 1 0 0
464 0 2 0.5897 11.915574827041167 9.386651937153985 1.2468582673538167 0 0 1
767 0 2 0.5897 12.898325939195958 10.907540257902884 2.1948506654747804 0 0 0
766 0 1 -1.1794 12.153457721383559 10.416544435751542 2.545602877586406 1 0 0
209 0 2 0.5897 10.92388478270771 11.681537561099328 2.982581920564853 0 0 0
208 0 1 -1.1794 10.275051579102769 12.408247949513322 3.210197837248011 0 0 0
605 0 2 0.5897 9.252066675508956 12.783989552165067 1.6986681829921384 -1 0 1
748 0 1 -1.1794 14.921742915324248 9.078157976214976 0.2519501418334218 0 0 0
472 0 1 -1.1794 16.756703857210944 8.849537762111803 2.2018484074975593 0 0 1
749 0 2 0.5897 13.993654103536194 8.870122527337111 0.4291254240908364 0 0 0
750 0 2 0.5897 15.426079523584331 8.847936706081285 1.0336839057203218 0 0 -1
632 0 2 0.5897 17.654335409527253 10.864489854553648 2.082728955919528 0 0 0
633 0 2 0.5897 17.64492013101036 12.378687892457759 1.7655387479017248 0 0 0
722 0 2 0.5897 14.928335002920207 12.32739661761009 3.2089451390538724 -1 1 0
701 0 2 0.5897 14.622882224315177 11.99667596799452 0.8177283586611925 -1 1 0
700 0 1 -1.1794 14.152759398349657 12.084668759001456 1.6945469135560696 -1 1 0
721 0 1 -1.1794 15.172207310981259 12.629242508987288 4.139231225460109 -1 1 0
777 0 2 0.5897 2.2318933673020265 13.345298881392466 0.8799168005811461 1 0 1
647 0 2 0.5897 2.556873425693933 15.489042039202268 3.7003089882540334 0 -1 0
646 0 1 -1.1794 3.0329642751757744 14.718985753957718 4.147370019569212 0 -1 0
648 0 2 0.5897 3.8514066081081078 14.603399535292338 3.634752111130666 0 -1 0
296 0 2 0.5897 1.7920688416029527 13.347508972439813 4.406563565418324 0 0 0
115 0 1 -1.1794 2.052729994316738 16.449750873520397 0.7731877808861602 1 -1 1
116 0 2 0.5897 2.9399090680434394 16.744511031134643 0.6402596046884212 1 -1 1
108 0 2 0.5897 1.3641658955837435 16.85406006204825 2.2850732270289944 0 0 1
106 0 1 -1.1794 0.9264323639453443 16.84082429839278 3.151506246708055 0 0 0
775 0 1 -1.1794 1.6312827669650032 13.800510212428849 0.2968166603602727 1 0 1
776 0 2 0.5897 1.792099718474506 14.736046340596879 0.4822414021846998 1 0 1
604 0 1 -1.1794 8.566434525590434 12.94198684501146 0.99107377481535 -1 0 1
606 0 2 0.5897 7.809988482563364 13.389454265949004 1.374869794164785 -1 0 1
50 0 2 0.5897 6.062803735213595 14.509515333106169 3.067784029202261 0 0 1
49 0 1 -1.1794 5.7516596845374846 14.268328990004461 3.9703349542119732 0 0 1
51 0 2 0.5897 6.448278191309656 13.825204312647596 4.410886681879533 0 0 1
24 0 2 0.5897 8.68585290967798 13.142677791056007 4.060198480050895 1 0 0
103 0 1 -1.1794 6.147781496947151 14.578183824368926 1.3208333595437938 0 -1 1
104 0 2 0.5897 5.776417046138134 15.46312108657388 1.0969815619352414 0 -1 1
105 0 2 0.5897 5.786445824913568 13.965707159130988 0.6448903150683108 0 -1 1
397 0 1 -1.1794 5.124847510724811 16.865635681694492 0.36971545228921665 0 1 1
340 0 1 -1.1794 9.34700160391076 16.787776970778143 2.1914896733899147 0 0 0
210 0 2 0.5897 10.862183025042146 13.23993170876704 3.2277514915743697 0 0 0
507 0 2 0.5897 12.125079382136866 14.774793215184099 2.131830833196491 -1 0 1
487 0 1 -1.1794 11.086945082799822 15.170945166170528 3.6574441906089974 -1 0 0
489 0 2 0.5897 10.424914927349246 15.689579194548752 3.1969033637073245 -1 0 0
488 0 2 0.5897 11.48605327407396 15.762809148560827 4.308874211551516 -1 0 0
505 0 1 -1.1794 12.609229044868155 14.189937089147971 1.5351580824484217 -1 0 1
506 0 2 0.5897 12.699927958513516 14.650529598059107 0.6800759431139224 -1 0 1
702 0 2 0.5897 13.56892078180606 12.860477046607041 1.6182561963505084 -1 1 0
341 0 2 0.5897 9.143692338540182 16.817611245026644 1.2273721698674114 0 0 1
425 0 2 0.5897 14.117859552864891 16.20543033808066 2.396926604465407 0 -2 0
348 0 2 0.5897 17.913982334207216 14.53559287399318 0.6654951443301051 -1 0 0
264 0 2 0.5897 17.834938801098875 15.508380753529309 3.859563905138769 -1 0 0
346 0 1 -1.1794 17.037058654687 14.377445782645596 1.0874343983679198 -1 0 0
347 0 2 0.5897 17.15300243423654 14.709588781668277 2.0035226176361034 -1 0 0
262 0 1 -1.1794 16.913149139628427 15.219797131965452 3.776839729347785 -1 0 0
723 0 2 0.5897 15.619998111734846 13.474825239638621 3.967480183571121 -1 1 0
424 0 1 -1.1794 13.948340826938265 16.690036020720356 3.2310988228177755 0 -2 0
35 0 2 0.5897 16.048931403036136 15.445454416005223 0.2254910504639704 0 0 1
34 0 1 -1.1794 15.259235444812218 16.026040592634 0.13470088226582544 0 0 1
389 0 2 0.5897 3.5228333592362584 19.406641282663006 2.2157606209412 1 0 0
388 0 1 -1.1794 2.6411083413174086 19.13137397406981 1.936553813895551 1 0 0
521 0 2 0.5897 1.9786730691245382 19.985561292283634 0.42184921264954095 0 -1 1
390 0 2 0.5897 2.182833197479484 19.00822500311453 2.764407005103072 1 0 0
107 0 2 0.5897 0.19334336441336494 17.505937632042343 3.1006170503701185 0 0 0
683 0 2 0.5897 5.87795584776566 20.513504610308196 1.0971129466453515 1 0 0
684 0 2 0.5897 5.34072347116829 20.92902819630528 2.4838075709916936 1 0 0
342 0 2 0.5897 8.605918209209527 17.230887026434264 2.6574347575955146 0 0 0
663 0 2 0.5897 5.978395682242956 17.518436354872037 3.6605061587329852 0 -1 0
661 0 1 -1.1794 6.840055219216097 17.68045742288516 3.219733870245425 0 -1 0
682 0 1 -1.1794 5.475437661035885 20.177228013620635 1.883221658528655 1 0 0
662 0 2 0.5897 6.7364859740363245 18.632225402333265 2.9967135675830554 0 -1 0
273 0 2 0.5897 8.728629882047338 21.090417836596362 0.11361086774671099 0 -1 -1
398 0 2 0.5897 5.656893155939459 17.59774261245203 0.7855561773762606 0 1 1
426 0 2 0.5897 13.186988870318643 17.257664101980808 3.0014180623142925 0 -2 0
477 0 2 0.5897 11.044256963178677 17.64893229356405 2.3752707714463397 1 0 0
475 0 1 -1.1794 11.856580049875468 18.104467379495034 2.2372936303383018 1 0 0
357 0 2 0.5897 10.873567552868296 20.893650548677474 2.5111298691969917 -1 0 0
356 0 2 0.5897 11.548486542734699 19.621297021826003 2.9933450983271688 -1 0 0
355 0 1 -1.1794 11.256323969143176 20.53141161089086 3.333759126325911 -1 0 0
816 0 2 0.5897 13.228996043816904 19.797294066256075 0.4440836976249208 -1 -1 1
476 0 2 0.5897 11.844710619678422 18.51232470188654 1.328489663694492 1 0 0
270 0 2 0.5897 14.453861692315684 20.91672841021202 2.302517442318558 0 0 1
268 0 1 -1.1794 14.523020390108552 20.21645760535845 1.6660299271419248 0 0 1
269 0 2 0.5897 15.112223864545289 19.589331185746957 2.034648402374425 -1 0 1
857 0 2 0.5897 15.858119778207419 17.892053438153553 3.348706336113105 -1 0 1
858 0 2 0.5897 16.58816580368258 19.253677153080186 3.7290004302043016 -1 0 1
856 0 1 -1.1794 16.45061527117308 18.540627358375733 3.0207277019805017 -1 0 1
797 0 2 0.5897 16.747159303953545 18.609776096253732 1.038433751620226 0 0 0
796 0 1 -1.1794 16.56258014824166 18.492834085057158 0.10687656519278477 0 0 0
667 0 1 -1.1794 2.803016990275483 1.9674482965075946 4.492716938622178 0 1 1
669 0 2 0.5897 2.2640208841738065 1.2334888506813633 4.748762753869641 0 1 1
572 0 2 0.5897 2.205632498729353 3.7141335992621167 5.469186018805879 0 1 0
435 0 2 0.5897 2.840820650910562 0.5540658369451357 8.708627919072907 1 1 0
434 0 2 0.5897 1.5361677748999294 1.419633740168116 8.8430802658405 1 1 0
314 0 2 0.5897 8.277551922977873 1.863320572969059 6.253099000551606 1 1 -1
313 0 1 -1.1794 8.178510746826907 2.1195267983146953 7.1868872511912 1 1 -1
416 0 2 0.5897 7.9924575147205505 4.151903880470826 7.466264405781318 1 1 0
593 0 2 0.5897 6.7102271161086 1.727744628177749 8.143598136353503 1 1 1
315 0 2 0.5897 9.033603752933251 1.9661864817880061 7.635210484381925 1 1 -1
594 0 2 0.5897 5.416327546837597 0.8912347295247308 8.436059517529443 1 1 1
592 0 1 -1.1794 5.877204080977155 1.6350013392876586 8.732144958142268 1 1 1
405 0 2 0.5897 11.94206499950193 2.4439544890554554 4.607588870090939 1 0 1
235 0 1 -1.1794 12.06529746626522 0.8565174769924602 5.186329893663885 0 1 0
404 0 2 0.5897 11.675630202866813 3.956345659786452 5.062867053530005 1 0 1
236 0 2 0.5897 12.220957138640097 0.4545164439471754 6.056211236059784 0 1 0
183 0 2 0.5897 11.503387188308396 4.089993665893704 7.515254019954642 0 1 0
152 0 2 0.5897 11.55601695360612 0.49987125053197723 8.233426316267657 1 0 0
237 0 2 0.5897 11.888953848576012 0.14467098808004628 4.553553917357467 0 1 0
595 0 1 -1.1794 10.488682786335504 1.6042146796220278 8.885250640242058 1 1 0
801 0 2 0.5897 13.703709342444474 1.838092206645068 5.4848514776157185 -1 0 1
799 0 1 -1.1794 14.419656242637815 2.4113473751563324 5.770524467929901 -1 0 1
800 0 2 0.5897 14.223755491738471 3.3182950702128227 5.585913819127039 -1 0 1
806 0 2 0.5897 17.519693480323244 1.7655572516330214 7.770721654222824 -1 1 0
17 0 2 0.5897 15.504621801832027 1.2192668035135499 6.690790557875452 -1 1 1
16 0 1 -1.1794 15.983676238590826 0.5038295846541523 7.137204206340821 -1 1 1
807 0 2 0.5897 17.948585192175806 3.0951234290500254 8.35894062265175 -1 1 0
805 0 1 -1.1794 18.04876278475263 2.1266928854055047 8.534259389909678 -1 1 0
571 0 1 -1.1794 1.8353952966793246 4.480458661396773 5.899284475651989 0 1 0
689 0 2 0.5897 4.389276374476711 4.8143190372352604 8.440376311139836 1 1 0
573 0 2 0.5897 2.6134063882128458 5.139056580132325 5.950723559164035 0 1 0
637 0 1 -1.1794 3.640376948004283 6.512509879425611 5.77742574394161 1 1 0
638 0 2 0.5897 3.05524187327785 7.193509066433586 6.000263691096439 1 1 0
335 0 2 0.5897 0.8192224277815179 4.815663755329061 7.2440182528034 -1 1 0
639 0 2 0.5897 4.18253367313289 6.474280353468963 6.557257885337462 1 1 0
336 0 2 0.5897 0.7484434936125853 5.521113600195599 8.641927172509112 -1 1 0
113 0 2 0.5897 1.4562474218344916 7.632725321717625 7.56037614519894 1 0 0
334 0 1 -1.1794 0.2254060516226566 4.9549528757448975 8.042750697007904 -1 1 0
89 0 2 0.5897 0.12610969516632575 4.979886102231144 5.239132466314106 1 0 0
112 0 1 -1.1794 1.7066280432907461 8.018055929875182 6.691619268482871 1 0 0
864 0 2 0.5897 4.999577559187482 6.436536372761617 4.48724446271291 0 1 0
442 0 1 -1.1794 7.423658455873131 4.68418527501404 4.74144117826959 0 1 1
688 0 1 -1.1794 4.894645600914639 5.46308650174434 7.957968188646515 1 1 0
443 0 2 0.5897 7.192925481155319 4.8872004669558855 5.655713931328153 0 1 1
415 0 1 -1.1794 7.5316528058233 5.006953425886537 7.627045406967736 1 1 0
417 0 2 0.5897 8.263008190466705 5.720988404750704 7.578674970396216 1 1 0
690 0 2 0.5897 5.828662710964927 5.173691230689386 7.9096546838087995 1 1 0
181 0 1 -1.1794 11.460527287945135 4.655196952055517 6.718049105144597 0 1 0
640 0 1 -1.1794 9.571508491892505 6.799001360492555 7.378418858939974 0 0 0
642 0 2 0.5897 9.798731695530435 7.580597044678726 6.818104749472564 0 0 0
182 0 2 0.5897 10.803339137257712 5.3290795257220465 6.932466069343632 0 0 0
680 0 2 0.5897 13.318287852867464 5.836184445553359 7.3710271706052035 -1 1 0
679 0 1 -1.1794 13.581168429839062 6.193012748346845 8.215247478712461 -1 0 0
641 0 2 0.5897 9.604118599179568 7.113889372475815 8.293744337523245 0 0 0
88 0 1 -1.1794 17.47101891083008 5.300282903050277 4.667076786049889 0 0 0
27 0 2 0.5897 14.450219029801769 5.5699752904086886 4.580806944295321 0 0 0
25 0 1 -1.1794 14.624194886019605 5.134907644471655 5.455845850435929 0 0 0
26 0 2 0.5897 15.571578640989209 4.9854049880509175 5.527949349363555 0 0 0
90 0 2 0.5897 17.326967326113685 6.231777013499238 4.767729529575244 0 0 0
547 0 1 -1.1794 16.39929575517404 7.090355540753003 7.935786524481682 0 1 1
549 0 2 0.5897 16.953915142514138 6.3445299649728755 7.87017525887582 0 1 1
548 0 2 0.5897 16.560769103187937 7.7036391256158705 7.210341544192261 0 1 1
681 0 2 0.5897 14.50269663094504 6.407763379190465 8.029859447487553 -1 0 0
574 0 1 -1.1794 17.13359675487212 8.151851883297924 5.242889785659381 0 1 0
575 0 2 0.5897 18.004951961914006 8.223993129060785 5.527964984301756 0 1 1
432 0 2 0.5897 3.2264763812167363 10.965480437893868 5.226166431257608 1 0 1
114 0 2 0.5897 2.187701067562128 8.840480515608983 6.9016342862543585 1 0 0
584 0 2 0.5897 4.394733964336591 10.337240573362019 7.070726373902376 1 0 1
583 0 1 -1.1794 3.438827059961898 10.356579779591788 6.945170925574866 1 0 1
585 0 2 0.5897 3.158325856727858 10.769360641856967 7.760346339784044 1 0 1
582 0 2 0.5897 1.2312787672209673 12.754458053486 8.001726186077118 2 0 0
92 0 2 0.5897 6.283647463375819 9.163442753386056 5.43132181913965 0 1 0
535 0 1 -1.1794 6.079461695824323 9.428676235208599 7.177607391799438 0 0 1
536 0 2 0.5897 5.924577378600192 8.97702655438216 8.001956902144133 0 0 1
537 0 2 0.5897 6.3299294369933925 10.355250010253654 7.325858433371208 0 0 1
833 0 2 0.5897 8.78245333041565 11.651910603820228 5.996968861936806 0 1 1
133 0 1 -1.1794 6.551964460728153 12.42991337579389 7.0212763671576335 1 0 0
134 0 2 0.5897 7.033623610115925 12.640852276740265 6.270831135219036 1 0 0
384 0 2 0.5897 8.780915479318596 11.069318278221651 8.750903457654497 0 0 0
811 0 1 -1.1794 10.250947396383594 8.62158266628838 5.494899388009523 0 0 0
813 0 2 0.5897 11.187561077000725 8.913283799745056 5.502890446786831 0 0 0
226 0 1 -1.1794 12.980182662168476 8.933674622720414 4.706230216733459 0 0 0
812 0 2 0.5897 9.757835800275195 9.470264080016463 5.542229624456033 0 0 0
832 0 1 -1.1794 9.191724601264205 10.939020832492243 6.553235997566858 0 1 1
834 0 2 0.5897 10.093463080822051 11.327833076282435 6.762008667072748 0 1 0
6 0 2 0.5897 12.725795331040676 11.30520905103652 7.146168131712036 0 1 0
4 0 1 -1.1794 12.112431692935456 11.686590974254488 6.531569676388798 0 1 0
635 0 2 0.5897 13.42305622811802 9.838882557241597 8.646712529605061 0 0 1
5 0 2 0.5897 12.543799296661426 12.522994923942516 6.316189228432631 0 1 0
215 0 2 0.5897 17.850058050298404 12.127019620400334 6.0737082829672095 0 0 0
634 0 1 -1.1794 13.961567394943556 10.517629712127444 8.222861014823401 0 0 1
228 0 2 0.5897 13.736364387711095 9.161486410604384 5.198647806979212 0 0 0
576 0 2 0.5897 16.670946794819066 8.937538974935904 5.5621884950784946 0 1 0
214 0 1 -1.1794 17.370275640370927 12.309840954768056 6.902473745859452 0 0 0
741 0 2 0.5897 14.750253276281263 10.356516469056906 6.845907743454112 0 1 0
739 0 1 -1.1794 15.040808347962317 10.041173336379737 5.985077590775782 0 1 0
740 0 2 0.5897 15.325591898261147 10.84717441973896 5.543332634963736 0 1 0
375 0 2 0.5897 17.35114761458532 10.996447405811589 8.050626292731415 1 1 0
373 0 1 -1.1794 17.388346600945567 10.049028612459345 8.409092845384265 1 1 0
295 0 1 -1.1794 0.9052783387708864 13.042721373803667 4.652357357850473 0 0 0
581 0 2 0.5897 1.5835692689852812 14.231277332277365 7.779860584993186 2 0 0
580 0 1 -1.1794 1.9448969139054324 13.41764434624744 8.087307521757431 2 0 0
220 0 1 -1.1794 0.8095903646916645 15.427653139329818 6.450184281054376 0 0 0
222 0 2 0.5897 0.8244634293928097 14.775471997557265 5.750488188020024 0 0 0
252 0 2 0.5897 2.0977586328604367 16.618300629966296 7.122898676923894 0 0 0
482 0 2 0.5897 3.2219723582377484 13.332073707159235 7.011330638244911 0 0 0
483 0 2 0.5897 3.9813306991770254 14.158601020696109 5.9490636718774805 0 0 0
481 0 1 -1.1794 4.117841637742379 13.65129970318744 6.738859119688218 0 0 0
135 0 2 0.5897 5.76230416339307 12.993382681992596 6.926606884622886 1 0 0
22 0 1 -1.1794 8.232000975418247 13.11861201108788 4.890905666871457 1 0 0
792 0 2 0.5897 6.166457801909856 15.782190027115796 5.147447541048687 0 0 1
790 0 1 -1.1794 6.517583503164526 16.315610291000393 5.9143814935321934 0 0 1
23 0 2 0.5897 8.627143814065938 13.870290402972365 5.394414182394711 1 0 0
58 0 1 -1.1794 9.091476815998414 15.05762899573504 6.697580861176357 0 -1 0
59 0 2 0.5897 8.362454550534046 15.637701129924736 6.78894433217905 0 -1 0
160 0 1 -1.1794 4.984351765118732 17.00027117658068 7.993453113283191 -1 -1 0
791 0 2 0.5897 6.99681165966843 17.07567812972004 5.609705471274701 0 0 1
161 0 2 0.5897 5.34128517631383 16.765087907008088 7.155311287149108 -1 -1 0
672 0 2 0.5897 9.42743412854369 14.409720744575568 8.472592040784221 0 -1 1
60 0 2 0.5897 9.905657070651884 15.511316022574482 6.602766068813564 0 -1 0
136 0 1 -1.1794 12.972195021022516 15.427855767087213 8.274979624490904 0 1 0
56 0 2 0.5897 12.374068413087679 16.455901671822403 6.565199427014197 0 0 0
138 0 2 0.5897 12.89553448400151 14.625163636994492 7.718663714787467 0 1 0
55 0 1 -1.1794 11.56678617126095 16.589946239341764 6.038842938800568 0 0 0
216 0 2 0.5897 16.72851208127211 13.025414289885283 6.664313521903297 0 0 0
221 0 2 0.5897 17.950042217286253 15.362941588354234 6.828945733233093 -1 0 0
263 0 2 0.5897 16.341108563477462 15.564674741848304 4.505225716632797 -1 -1 0
211 0 1 -1.1794 13.907080387340462 13.642262026952173 6.23235733133898 0 0 0
213 0 2 0.5897 14.701205897522101 13.984626680712589 6.6783963573492935 0 0 0
212 0 2 0.5897 14.2603604566218 13.34591258094048 5.371104774557585 0 0 0
175 0 1 -1.1794 16.186685405895933 14.782827316729318 7.563926797797228 0 0 0
177 0 2 0.5897 16.38840705795038 14.834427958298317 8.526039233613133 0 0 0
176 0 2 0.5897 15.888872145790756 15.610280124451744 7.084082258851498 -1 0 0
100 0 1 -1.1794 15.47271954181146 16.46922154560634 5.649859121626443 0 0 0
102 0 2 0.5897 14.641381350912551 16.71082753479817 5.149820904940806 0 0 0
494 0 2 0.5897 14.136381819966926 16.589956473349545 8.880595317690304 -1 0 1
251 0 2 0.5897 3.285997734057488 17.501007741888174 7.812027865789836 0 0 0
250 0 1 -1.1794 2.4684073980646084 17.52043613039823 7.282339988348561 0 0 0
447 0 2 0.5897 1.252607458659542 20.72652224482264 6.0302864563851335 0 -2 0
87 0 2 0.5897 3.0125936187404783 18.257003526846002 5.64137498021324 0 -1 0
445 0 1 -1.1794 1.5563758131076961 20.853465601982908 5.099363785909857 0 -2 0
85 0 1 -1.1794 3.264092206631337 18.770704302363576 4.863542052811342 0 -1 0
446 0 2 0.5897 2.2088535640045426 20.14102547773368 4.9819012979827795 0 -2 0
86 0 2 0.5897 4.1781894512428135 19.004289201164706 4.973225411721622 0 -1 0
349 0 1 -1.1794 0.7670805585276622 19.766651833757663 7.450676824780712 1 -1 0
351 0 2 0.5897 1.1007077088202117 18.845949467866316 7.4710275554318395 1 -1 0
395 0 2 0.5897 4.260297499067494 20.323555805698923 7.10734845325289 0 0 0
394 0 1 -1.1794 4.265847262026684 20.684256756089347 8.017568265125382 0 0 1
350 0 2 0.5897 0.6447094289049004 20.002455517162375 8.383364584927344 1 -1 0
396 0 2 0.5897 4.242665172019595 19.92794869143778 8.653018927976769 0 0 1
162 0 2 0.5897 5.642821830487294 17.52374475026904 8.512094479506283 -1 -1 0
822 0 2 0.5897 6.138021635849812 20.968381316463546 5.13897191326185 0 0 1
706 0 1 -1.1794 7.7727472355382305 18.786237845710005 6.857016469103288 0 0 1
820 0 1 -1.1794 5.948403851842004 20.046745670236557 5.28525106217296 0 0 1
821 0 2 0.5897 6.631689365517447 19.668944914313155 5.879823531731542 0 0 1
708 0 2 0.5897 7.690225296061924 18.717420752653542 7.830422633174567 0 0 1
707 0 2 0.5897 8.621582843849534 19.124824107641064 6.6952916002860245 0 0 1
57 0 2 0.5897 11.39077007465934 17.577947983570635 6.031759261246591 0 0 0
151 0 1 -1.1794 11.94092302801113 20.991818401746926 7.853824796794404 1 -1 0
153 0 2 0.5897 12.86106975714195 20.856257239817147 8.292275693012208 1 0 0
588 0 2 0.5897 11.009616490074695 19.946124608285636 6.74562518928998 1 -1 0
586 0 1 -1.1794 10.511369506793187 19.403535308585823 6.12116283090595 1 -1 0
587 0 2 0.5897 10.761071050861291 19.76074980928993 5.277203288766829 1 -1 0
306 0 2 0.5897 17.993642446005982 20.692199926836594 4.686209950998889 0 -1 1
304 0 1 -1.1794 17.030342826150736 20.76688606193874 4.785197827757233 0 -1 1
101 0 2 0.5897 15.753696224814924 17.259216188275495 6.12349984533448 0 0 0
827 0 2 0.5897 15.03826278105517 20.98051256271782 8.152112870536543 0 -1 1
818 0 2 0.5897 16.988903795486785 19.11197635522778 7.198147570265746 0 0 1
817 0 1 -1.1794 16.307280679374095 18.454224917062465 7.234965519299822 0 0 1
18 0 2 0.5897 16.453765290753285 21.313099903435884 6.409264545341972 -1 0 1
819 0 2 0.5897 16.20465528879257 18.12157437872793 8.132719121051885 0 0 1
828 0 2 0.5897 14.488813411211023 19.56259501246402 8.57242298735987 0 -1 1
826 0 1 -1.1794 14.465111994517528 20.514928420515528 8.81726318305648 0 -1 1
433 0 1 -1.1794 2.411346421807635 1.212474942044002 9.252762810671612 1 1 0
200 0 2 0.5897 3.190579039462775 2.9751110636403495 9.540776939730252 0 1 0
199 0 1 -1.1794 3.98528072785672 3.5684012052513974 9.439608637806227 0 1 0
164 0 2 0.5897 2.392307791103534 0.3415805788300235 10.882462886335567 -1 0 -1
455 0 2 0.5897 3.1399719965814024 0.4210194934580085 13.020718003879457 1 0 0
165 0 2 0.5897 1.1075658424002095 0.1393631872347812 11.650472975711128 -1 0 -1
461 0 2 0.5897 0.2585180743242881 2.308832239118643 12.79966526841327 1 0 0
201 0 2 0.5897 4.695709557314439 2.9143044589707654 9.09295741740666 0 1 0
322 0 1 -1.1794 7.1023760543594365 1.2101872231967443 11.235948719136509 1 1 0
323 0 2 0.5897 6.824717959366155 1.8007658588480386 11.952934521882094 1 1 0
324 0 2 0.5897 6.639808595011147 1.369087106881876 10.362236563368153 1 1 0
503 0 2 0.5897 8.794997953168696 0.5407465938252736 11.164934873431294 0 0 0
596 0 2 0.5897 10.60819918818654 2.5433330418839986 9.204994163099332 1 1 0
567 0 2 0.5897 11.565311232628558 4.126903329200164 10.4039621344836 -1 0 0
565 0 1 -1.1794 10.744035458428446 4.170941492285492 9.836614770088502 -1 0 0
525 0 2 0.5897 12.11296140196818 0.7498237266766733 12.419349300897139 0 1 0
597 0 2 0.5897 10.532780254937546 1.0507909355911522 9.68401800293234 1 1 0
504 0 2 0.5897 10.115817732680284 0.37078151761276984 11.909585109729738 0 0 0
620 0 2 0.5897 9.464433327530372 3.7535234194704 12.814243812903612 -1 0 0
502 0 1 -1.1794 9.676268446942892 0.13912561918422028 11.110843952880181 0 0 0
523 0 1 -1.1794 11.384085777100585 0.9667935521449768 13.0124327735835 0 1 0
65 0 2 0.5897 17.51049351480085 1.7513646425401614 10.211687814401643 0 0 0
64 0 1 -1.1794 17.522251963984253 1.547088178244672 11.166125200935852 0 0 0
66 0 2 0.5897 16.71488379021129 0.9724130281583329 11.332913238013411 0 0 0
387 0 2 0.5897 16.761861768291276 2.9401129408831013 11.977501445701314 -1 0 0
385 0 1 -1.1794 16.150079445596297 3.6630039245902686 12.41935504890781 -1 0 0
386 0 2 0.5897 15.780847392667217 3.3077397165456044 13.242571035696713 -1 0 0
697 0 1 -1.1794 1.6873664341300896 6.93460373935952 9.391248573757588 0 1 0
698 0 2 0.5897 2.57876352669404 6.656338561507593 9.697231027341008 0 1 0
699 0 2 0.5897 1.2319016482209237 7.518215173449307 10.010568378223224 0 1 0
20 0 2 0.5897 3.1731913091148534 5.411603291534103 11.756379444512122 0 0 -1
19 0 1 -1.1794 3.721343336735123 5.697088130921719 11.018095306839777 0 0 -1
132 0 2 0.5897 2.244564058039897 8.506767523253595 11.638623301179228 1 0 0
131 0 2 0.5897 3.7577519503846553 8.28943669320874 11.21056662778863 1 0 1
21 0 2 0.5897 3.8209929964431844 4.841275459392935 10.536831209561276 0 0 -1
652 0 1 -1.1794 0.20316500866742737 8.101523366063162 11.375678936083773 0 0 -1