LAMMPS (29 Sep 2021 - Update 2)
  using 1 OpenMP thread(s) per MPI task
plugin load libdeepmd_lmp.so
Loading plugin: deepmd pair style v2.0 by Han Wang
Loading plugin: compute deeptensor/atom v2.0 by Han Wang
Loading plugin: fix dplr v2.0 by Han Wang
echo both

include		in.partitions
variable        pid world 0
include		in.temp
variable        temperature equal 260
variable        tempDamp equal 0.100
include		in.pressure
variable        pressure equal 0.986923
variable        pressureDamp equal 1.0 # This is 1 ps
include		in.seed
variable        seed world 745823

units           metal
atom_style	full
include		in.box
read_data       water.data
Reading data file ...
  orthogonal box = (0.0000000 0.0000000 0.0000000) to (18.207573 21.446115 22.213196)
  1 by 1 by 1 MPI processor grid
  reading atoms ...
  864 atoms
  reading velocities ...
  864 velocities
Finding 1-2 1-3 1-4 neighbors ...
  special bond factors lj:    0        0        0       
  special bond factors coul:  0        0        0       
     0 = max # of 1-2 neighbors
     0 = max # of 1-3 neighbors
     0 = max # of 1-4 neighbors
     1 = max # of special neighbors
  special bonds CPU = 0.000 seconds
  read_data CPU = 0.020 seconds
include 	in.setup
variable	out_freq equal 500
variable	out_freq2 equal 500

timestep        0.0005

neigh_modify    delay 7 every 1

include         in.deepmd
# This is deepMD model

# create groups ###
#group ox type 2
#group hy type 1

mass 2 15.999
mass 1 1.008

pair_style      deepmd ../graph.pb
pair_coeff      * *

bond_style      none
angle_style     none
dihedral_style  none
improper_style  none
neigh_modify exclude none


neighbor        2.0 bin
neigh_modify    every 10 delay 0 check no

thermo          ${out_freq}
thermo          500
thermo_style 	custom step temp pe etotal epair emol press lx ly lz xy xz yz vol pxx pyy pzz pxy pxz pyz cella cellb cellc cellalpha cellbeta cellgamma


restart 	${out_freq} restart.lmp.${pid} restart2.lmp.${pid}
restart 	500 restart.lmp.${pid} restart2.lmp.${pid}
restart 	500 restart.lmp.0 restart2.lmp.${pid}
restart 	500 restart.lmp.0 restart2.lmp.0


include         in.dump
dump            myDump all atom ${out_freq2} dump.water.${pid}
dump            myDump all atom 500 dump.water.${pid}
dump            myDump all atom 500 dump.water.0
dump            myDump2 all dcd ${out_freq2} dump.dcd
dump            myDump2 all dcd 500 dump.dcd
dump_modify     myDump append yes
dump_modify     myDump2 append yes


timer           timeout 23:50:00 every 1000
New timer settings: style=normal  mode=nosync  timeout=23:50:00

fix             2 all nph iso ${pressure} ${pressure} ${pressureDamp}
fix             2 all nph iso 0.986923 ${pressure} ${pressureDamp}
fix             2 all nph iso 0.986923 0.986923 ${pressureDamp}
fix             2 all nph iso 0.986923 0.986923 1
fix             3 all temp/csvr ${temperature} ${temperature} ${tempDamp} ${seed}
fix             3 all temp/csvr 260 ${temperature} ${tempDamp} ${seed}
fix             3 all temp/csvr 260 260 ${tempDamp} ${seed}
fix             3 all temp/csvr 260 260 0.1 ${seed}
fix             3 all temp/csvr 260 260 0.1 745823
velocity 	all create ${temperature} ${seed} dist gaussian
velocity 	all create 260 ${seed} dist gaussian
velocity 	all create 260 745823 dist gaussian

run             2000000

CITE-CITE-CITE-CITE-CITE-CITE-CITE-CITE-CITE-CITE-CITE-CITE-CITE

Your simulation uses code contributions which should be cited:

- USER-DEEPMD package:

@article{Wang_ComputPhysCommun_2018_v228_p178,
  author = {Wang, Han and Zhang, Linfeng and Han, Jiequn and E, Weinan},
  doi = {10.1016/j.cpc.2018.03.016},
  url = {https://doi.org/10.1016/j.cpc.2018.03.016},
  year = 2018,
  month = {jul},
  publisher = {Elsevier {BV}},
  volume = 228,
  journal = {Comput. Phys. Commun.},
  title = {{DeePMD-kit: A deep learning package for many-body potential energy representation and molecular dynamics}},
  pages = {178--184}
}

CITE-CITE-CITE-CITE-CITE-CITE-CITE-CITE-CITE-CITE-CITE-CITE-CITE

Neighbor list info ...
  update every 10 steps, delay 0 steps, check no
  max neighbors/atom: 2000, page size: 100000
  master list distance cutoff = 8
  ghost atom cutoff = 8
  binsize = 4, bins = 5 6 6
  1 neighbor lists, perpetual/occasional/extra = 1 0 0
  (1) pair deepmd, perpetual
      attributes: full, newton on
      pair build: full/bin
      stencil: full/bin/3d
      bin: standard
Per MPI rank memory allocation (min/avg/max) = 7.215 | 7.215 | 7.215 Mbytes
Step Temp PotEng TotEng E_pair E_mol Press Lx Ly Lz Xy Xz Yz Volume Pxx Pyy Pzz Pxy Pxz Pyz Cella Cellb Cellc CellAlpha CellBeta CellGamma 
       0          260    -134.9383   -105.93491    -134.9383            0     24562.63    18.207573    21.446115    22.213196            0            0            0    8673.8466    24437.109    25331.419    23919.362    1104.8735   -265.92244   -870.14307    18.207573    21.446115    22.213196           90           90           90 
     500    253.64926   -128.22357   -99.928617   -128.22357            0   -3462.8947    18.377804    21.646625    22.420878            0            0            0    8919.4161   -1059.9035   -5528.1221   -3800.6584    1172.3938   -1210.9451   -614.27319    18.377804    21.646625    22.420878           90           90           90 
    1000    262.83818   -126.22232   -96.902322   -126.22232            0    1884.9456    18.434879    21.713851    22.490508            0            0            0    9002.7751    68.930965    2778.0927    2807.8131   -1672.4816     611.2061   -541.65304    18.434879    21.713851    22.490508           90           90           90 
    1500    254.96749   -127.43593   -98.993921   -127.43593            0    1559.8137    18.399231    21.671863    22.447018            0            0            0    8950.6502    1827.9368   -139.41822    2990.9225   -541.88523    627.37493   -1051.8189    18.399231    21.671863    22.447018           90           90           90 
    2000     257.8061    -125.0903   -96.331643    -125.0903            0   -2067.6887    18.404835    21.678464    22.453856            0            0            0    8958.8317   -3232.2561   -1269.5039   -1701.3063    -126.0727   -954.47599    795.69702    18.404835    21.678464    22.453856           90           90           90 
    2500    276.82238   -126.26644   -95.386484   -126.26644            0      3081.96    18.397201    21.669471    22.444541            0            0            0    8947.6874    3984.7249    1608.2248    3652.9302    954.69872    1241.1789   -29.175183    18.397201    21.669471    22.444541           90           90           90 
    3000    260.29482   -124.59203   -95.555755   -124.59203            0   -3534.9276       18.482    21.769354    22.547996            0            0            0    9071.9876   -3606.4033   -2089.4847   -4908.8948    933.37585   -636.47836   -256.61064       18.482    21.769354    22.547996           90           90           90 
    3500    261.48794   -126.81718   -97.647805   -126.81718            0    1.0449134    18.388678    21.659433    22.434144            0            0            0    8935.2576    198.32579    1202.2624   -1397.4535    1636.4327   -76.655588   -932.65428    18.388678    21.659433    22.434144           90           90           90 
    4000    248.33447   -125.14799   -97.445906   -125.14799            0    -683.5104    18.480084    21.767096    22.545658            0            0            0    9069.1661    692.44721   -1421.2405   -1321.7379   -487.37723    296.82536   -2154.5065    18.480084    21.767096    22.545658           90           90           90 
    4500     269.2205   -127.23118   -97.199224   -127.23118            0    854.56982     18.31722    21.575265    22.346966            0            0            0    8831.4959   -213.10907    1337.4092    1439.4093   -1875.3033    881.73578   -1153.0205     18.31722    21.575265    22.346966           90           90           90 
    5000    254.09453   -125.72491   -97.380284   -125.72491            0    234.89176    18.301128     21.55631    22.327333            0            0            0      8808.24   -2645.8516    2779.4351    571.09177   -345.87793    870.85899   -1635.5844    18.301128     21.55631    22.327333           90           90           90 
    5500     261.8785   -127.77696    -98.56402   -127.77696            0   -1613.6693    18.304828    21.560668    22.331847            0            0            0    8813.5829   -1817.9024   -2916.6954   -106.41001   -563.04586    -1762.263   -916.99784    18.304828    21.560668    22.331847           90           90           90 
    6000    269.03014   -127.56572      -97.555   -127.56572            0   -549.44582     18.21696    21.457171    22.224648            0            0            0    8687.2689   -74.816994   -761.81817   -811.70229   -1602.1272    860.39311    288.19939     18.21696    21.457171    22.224648           90           90           90 
    6500    262.37847   -127.32266   -98.053945   -127.32266            0   -1876.2686    18.305195    21.561101    22.332295            0            0            0     8814.114   -56.230527   -1881.4701   -3691.1052    380.27269    1274.1666    1389.8478    18.305195    21.561101    22.332295           90           90           90 
    7000    256.58529   -124.52631   -95.903832   -124.52631            0    4281.6419    18.213156    21.452691    22.220007            0            0            0    8681.8277    3616.4056     5833.715    3394.8051   -466.36334   -930.56821    1236.3313    18.213156    21.452691    22.220007           90           90           90 
    7500    261.06581   -125.03913    -95.91685   -125.03913            0   -3204.5248    18.200368    21.437628    22.204406            0            0            0    8663.5533   -3557.3684   -4263.0883   -1793.1176    1328.1027   -252.79174    1964.0403    18.200368    21.437628    22.204406           90           90           90 
    8000    271.73003   -126.94469     -96.6328   -126.94469            0    2532.8588    18.097138    21.316037    22.078466            0            0            0    8516.9731    3320.5675    1820.0806    2457.9284   -476.58149    361.84142   -642.74437    18.097138    21.316037    22.078466           90           90           90 
    8500    261.22676   -126.73997    -97.59973   -126.73997            0    290.44979    18.149537    21.377756    22.142392            0            0            0    8591.1674   -2323.6855    1096.2121    2098.8228    1703.8423    -54.53423    -3657.936    18.149537    21.377756    22.142392           90           90           90 
    9000    268.27443   -126.16144   -96.235018   -126.16144            0    1208.8646    18.250945    21.497201    22.266109            0            0            0    8735.9793    464.67094    2166.7094    995.21362   -2657.2922   -1240.2112   -448.38744    18.250945    21.497201    22.266109           90           90           90 
    9500    263.76239   -125.25494   -95.831847   -125.25494            0   -652.11573    18.221487    21.462504    22.230171            0            0            0    8693.7477    2027.9055   -1759.0606    -2225.192   -1268.0521    1509.2404    275.41413    18.221487    21.462504    22.230171           90           90           90 
   10000    261.30828   -124.45243   -95.303099   -124.45243            0   -325.07076     18.15438     21.38346      22.1483            0            0            0    8598.0469   -1783.6697   -440.48934    1248.9468    1546.1743    1556.7736   -1906.7291     18.15438     21.38346      22.1483           90           90           90 
   10500    268.92028   -123.91873   -93.920273   -123.91873            0   -1010.7722     18.28263    21.534522    22.304765            0            0            0    8781.5572    303.76432    -1550.484   -1785.5969    776.20722    1433.3553   -925.67484     18.28263    21.534522    22.304765           90           90           90 
   11000    258.94499   -124.05328   -95.167578   -124.05328            0     6.331462     18.28765    21.540436     22.31089            0            0            0    8788.7943     316.7988    -1950.567    1652.7626    308.97144    111.41867    1305.9488     18.28765    21.540436     22.31089           90           90           90 
   11500    272.57843   -126.94412   -96.537584   -126.94412            0    1387.7909    18.235326    21.478805    22.247055            0            0            0    8713.5713    2105.6842   -772.45406    2830.1427   -1239.8925    914.56514   -1361.5289    18.235326    21.478805    22.247055           90           90           90 
   12000    262.25884   -124.64352   -95.388151   -124.64352            0    268.98209    18.243193    21.488071    22.256652            0            0            0    8724.8531   -3833.4359    2812.6087    1827.7734   -694.48163   -659.56564     1599.273    18.243193    21.488071    22.256652           90           90           90 
   12500    268.69052   -125.87336   -95.900529   -125.87336            0    1683.8753    18.264632    21.513323    22.282808            0            0            0    8755.6489    3287.0201    1117.3841    647.22171   -662.43968   -1084.2051   -1074.4711    18.264632    21.513323    22.282808           90           90           90 
   13000    265.32298   -124.05445   -94.457269   -124.05445            0   -2084.4497    18.286966    21.539629    22.310055            0            0            0    8787.8074   -2671.0441   -2746.1569   -836.14819    1236.1917     2370.576    221.39465    18.286966    21.539629    22.310055           90           90           90 
   13500      249.336   -124.62013   -96.806319   -124.62013            0   -477.87936    18.170259    21.402164    22.167673            0            0            0    8620.6287   -124.41689   -1132.7625   -176.45869    659.79377   -229.66629   -1051.8122    18.170259    21.402164    22.167673           90           90           90 
   14000    256.76453   -125.49184   -96.849368   -125.49184            0   -2652.0356    18.179774    21.413372    22.179281            0            0            0    8634.1781    -1425.289   -3888.7837   -2642.0342    701.87702    1483.2753   -327.83641    18.179774    21.413372    22.179281           90           90           90 
   14500      257.548   -126.37575   -97.645884   -126.37575            0    690.05218     18.16466    21.395569    22.160842            0            0            0    8612.6612     3213.084   -703.55016   -439.37728    797.22803   -125.17988   -1012.6547     18.16466    21.395569    22.160842           90           90           90 
   15000     250.1728   -124.11655   -96.209394   -124.11655            0   -576.20089    18.232961    21.476018    22.244169            0            0            0    8710.1801   -2294.8073   -1087.7168    1653.9214   -1641.3066    1205.3096    363.28922    18.232961    21.476018    22.244169           90           90           90 
   15500    270.11667   -126.58716    -96.45524   -126.58716            0    465.57794    18.238812     21.48291    22.251307            0            0            0    8718.5685    419.27299   -257.40052    1234.8614    1068.7489    1105.3528   -862.73019    18.238812     21.48291    22.251307           90           90           90 
   16000    257.67611   -125.46438   -96.720219   -125.46438            0   -1505.2862    18.190307    21.425778    22.192132            0            0            0    8649.1944   -2946.7178   -1200.2806   -368.86002    717.41024   -1648.9776   -1435.9066    18.190307    21.425778    22.192132           90           90           90 
   16500    256.20731   -125.48538   -96.905072   -125.48538            0    1642.0664    18.081401    21.297501    22.059267            0            0            0    8494.7737    2546.9547    1937.6413    441.60323    -1016.378     588.6815   -523.90795    18.081401    21.297501    22.059267           90           90           90 
   17000    263.94511   -126.27042    -96.82695   -126.27042            0    2347.3015    18.054687    21.266036    22.026676            0            0            0     8457.178    2432.5107    2812.6657    1796.7281    701.24089    1671.3486    1128.5166    18.054687    21.266036    22.026676           90           90           90 
   17500     252.8851   -124.56881   -96.359097   -124.56881            0   -2188.3623    18.290203    21.543443    22.314005            0            0            0    8792.4755   -5230.1387   -210.71876   -1124.2293   -840.86842    730.77435    116.84098    18.290203    21.543443    22.314005           90           90           90 
   18000    251.51231   -126.20929   -98.152718   -126.20929            0   -883.66843    18.257541    21.504971    22.274157            0            0            0    8745.4553   -1263.3031   -43.548759   -1344.1534    789.34763   -327.61214    -1141.026    18.257541    21.504971    22.274157           90           90           90 
   18500    257.70029   -126.66792   -97.921069   -126.66792            0    1403.7134    18.068114    21.281851    22.043057            0            0            0    8476.0605   -1243.2201    3067.3124     2387.048    691.67765   -1174.6367   -1189.2003    18.068114    21.281851    22.043057           90           90           90 
   19000    259.32977   -126.44468   -97.516053   -126.44468            0   -1790.8074    18.134044    21.359508    22.123491            0            0            0     8569.186   -2996.8616   -1600.5739    -774.9866   -1512.9823   -654.24825    2657.4407    18.134044    21.359508    22.123491           90           90           90 
   19500    263.99845    -126.3023   -96.852879    -126.3023            0    4558.8042    18.156548    21.386014    22.150946            0            0            0    8601.1278    4198.7586    3797.3537    5680.3004    2476.5456   -52.908989   -1198.8204    18.156548    21.386014    22.150946           90           90           90 
   20000    254.83148   -127.04549   -98.618659   -127.04549            0   -2357.2181    18.114137     21.33606    22.099204            0            0            0    8540.9959   -1014.3877   -1635.3234   -4421.9431    750.49505    2071.0211    1002.8162    18.114137     21.33606    22.099204           90           90           90 
   20500    255.18321   -127.29604   -98.829973   -127.29604            0      1921.56    18.017873    21.222673    21.981762            0            0            0    8405.5492    1229.6347    1912.9426    2622.1028     185.7604     1332.616   -464.11379    18.017873    21.222673    21.981762           90           90           90 
   21000     248.5196   -126.43664   -98.713908   -126.43664            0     -490.641    18.148433    21.376456    22.141046            0            0            0    8589.6009    785.49944   -3617.8371    1360.4146    2774.4872   -112.50297    861.29569    18.148433    21.376456    22.141046           90           90           90 
   21500    251.03481   -127.83669   -99.833376   -127.83669            0    1032.4334    18.085446    21.302266    22.064202            0            0            0    8500.4762    4698.3677    -415.9079   -1185.1595   -967.92503   -840.79476    1038.6896    18.085446    21.302266    22.064202           90           90           90 
   22000    260.44139    -127.3927   -98.340067    -127.3927            0    881.87443    18.005363    21.207938      21.9665            0            0            0    8388.0536     867.5633    337.47452    1440.5855   -1219.4193   -904.34708   -535.13849    18.005363    21.207938      21.9665           90           90           90 
   22500     260.4195   -127.74617   -98.695987   -127.74617            0   -134.86264    18.030186    21.237177    21.996785            0            0            0    8422.7946    1706.6933   -2580.4216    469.14034    1227.3284    2617.2436   -898.30348    18.030186    21.237177    21.996785           90           90           90 
   23000    254.36316   -126.46652    -98.09193   -126.46652            0   -1095.2331    18.117366    21.339863    22.103143            0            0            0    8545.5636    174.43465   -94.195514   -3365.9385    606.47944   -5.1379922    1461.9238    18.117366    21.339863    22.103143           90           90           90 
   23500    261.56211    -125.8356   -96.657955    -125.8356            0   -412.84038    18.045082    21.254722    22.014957            0            0            0    8443.6868    627.38129   -929.20128   -936.70115   -948.36182    520.43266   -45.543593    18.045082    21.254722    22.014957           90           90           90 
   24000    271.39639   -125.13325   -94.858571   -125.13325            0   -323.37572    18.067368    21.280972    22.042146            0            0            0    8475.0098    44.283451    -1990.332    975.92136    266.00624   -531.19699    240.34142    18.067368    21.280972    22.042146           90           90           90 
   24500    260.78346   -125.82823   -96.737446   -125.82823            0   -671.86467    18.035281    21.243178    22.003001            0            0            0     8429.937   -921.23034    1313.5854    -2407.949    483.06453   -325.70709    3492.4786    18.035281    21.243178    22.003001           90           90           90 
   25000      269.565   -125.41131   -95.340933   -125.41131            0    1382.4166    18.063453    21.276361     22.03737            0            0            0    8469.5022    2876.9613     2032.413   -762.12442    856.24446    2077.0931    -1223.449    18.063453    21.276361     22.03737           90           90           90 
   25500    259.85065   -123.76336   -94.776627   -123.76336            0   -2200.8687    18.114226    21.336164    22.099312            0            0            0    8541.1211   -5312.9672    -654.3172   -635.32165   -226.98036    3405.3176   -68.166128    18.114226    21.336164    22.099312           90           90           90 
   26000    274.31604   -125.70194   -95.101575   -125.70194            0    380.57634    17.978713    21.176548    21.933988            0            0            0    8350.8633    3833.3471    529.61861   -3221.2367    460.48953    1636.4341     867.5598    17.978713    21.176548    21.933988           90           90           90 
   26500    255.26417   -125.38271   -96.907605   -125.38271            0   -2751.2818    18.101813    21.321543    22.084169            0            0            0    8523.5747   -3796.3893    1281.2433   -5738.6994    277.99522   -441.85498   -1029.0141    18.101813    21.321543    22.084169           90           90           90 
   27000    263.85094   -124.54174   -95.108769   -124.54174            0    18.919221    18.119089    21.341892    22.105246            0            0            0    8548.0021    223.18994    250.28086   -416.71314    1594.1851   -1678.0836    2723.6368    18.119089    21.341892    22.105246           90           90           90 
   27500    260.85428   -125.32799   -96.229301   -125.32799            0     1275.434    18.074104    21.288907    22.050365            0            0            0    8484.4934    3169.9673    1847.9823   -1191.6476    820.28202    535.94036   -3829.6073    18.074104    21.288907    22.050365           90           90           90 
   28000    248.27368   -125.01298   -97.317676   -125.01298            0   -614.10191    18.054461     21.26577      22.0264            0            0            0    8456.8607   -24.444431   -863.19959   -954.66171    419.02917   -1676.1692    1031.4055    18.054461     21.26577      22.0264           90           90           90 
   28500    275.06854   -126.24122   -95.556911   -126.24122            0    3149.0268     17.97164    21.168217    21.925358            0            0            0    8341.0107     2756.584      3994.08    2696.4164   -652.23554    2334.8137   -529.07146     17.97164    21.168217    21.925358           90           90           90 
   29000    251.26426   -124.58865   -96.559746   -124.58865            0   -857.77903    18.089766    21.307354    22.069472            0            0            0    8506.5687    25.127394    215.10927   -2813.5737    38.500841   -895.18285    4127.9272    18.089766    21.307354    22.069472           90           90           90 
   29500    271.52662   -125.04875   -94.759545   -125.04875            0   -2198.4435    18.104172    21.324322    22.087047            0            0            0    8526.9075   -4308.1028     719.4196   -3006.6474    2394.2424   -2130.2114     4345.578    18.104172    21.324322    22.087047           90           90           90 
   30000    265.27482   -122.59483   -93.003022   -122.59483            0    826.01253    18.094928    21.313434    22.075769            0            0            0    8513.8524   -802.44497    599.08431    2681.3983   -566.56166   -456.67013   -343.24677    18.094928    21.313434    22.075769           90           90           90 
   30500    259.86269   -122.79946   -93.811389   -122.79946            0    899.66576      18.1151    21.337194    22.100379            0            0            0    8542.3578    3750.2482    -3253.032    2201.7811    394.95789   -1104.0838    1366.3173      18.1151    21.337194    22.100379           90           90           90 
   31000    265.59304   -123.43129   -93.803986   -123.43129            0   -39.235185    18.070725    21.284926    22.046241            0            0            0    8479.7348   -95.667527    754.20139   -776.23942    216.97445    1626.1255    -48.69458    18.070725    21.284926    22.046241           90           90           90 
   31500     264.7103   -124.42403   -94.895198   -124.42403            0    2759.2715    18.000238    21.201902    21.960248            0            0            0     8380.893    4039.5709    4081.3342    156.90953   -1519.9433    35.834262    1122.6875    18.000238    21.201902    21.960248           90           90           90 
   32000    271.01511   -125.38138   -95.149232   -125.38138            0   -3582.6436    18.012217    21.216011    21.974862            0            0            0    8397.6365   -2213.4604   -3417.0256   -5117.4447    561.06148    364.90262   -2465.6749    18.012217    21.216011    21.974862           90           90           90 
   32500    257.04961   -124.13363   -95.459355   -124.13363            0    2333.7749    17.932952    21.122648    21.878159            0            0            0    8287.2594    331.54786    5895.5707    774.20602    502.87062    537.07891   -875.15945    17.932952    21.122648    21.878159           90           90           90 
   33000    260.40544   -125.17488   -96.126261   -125.17488            0    2269.9249     17.97224    21.168924     21.92609            0            0            0    8341.8466    1497.9275    1612.3887    3699.4586    968.20149    705.78079    2459.1351     17.97224    21.168924     21.92609           90           90           90 
   33500    266.93862   -126.02983   -96.252427   -126.02983            0   -2271.6631    18.111254    21.332664    22.095687            0            0            0    8536.9179    -1897.688   -509.32226   -4407.9791     370.3804    312.16118    1793.9082    18.111254    21.332664    22.095687           90           90           90 
   34000    250.24245   -126.69908   -98.784156   -126.69908            0    2312.2517    18.040309      21.2491    22.009134            0            0            0    8436.9886    665.09749    4103.4605    2168.1973    -973.6495     369.2776    1621.3373    18.040309      21.2491    22.009134           90           90           90 
   34500     249.4846   -127.86209   -100.03171   -127.86209            0   -1860.0239    18.087705    21.304926    22.066957            0            0            0    8503.6607   -2613.4634   -1075.4027   -1891.2055    215.08751    1181.8113   -709.37159    18.087705    21.304926    22.066957           90           90           90 
   35000    246.76302   -127.83421   -100.30742   -127.83421            0    4924.3822    18.030564    21.237622    21.997246            0            0            0    8423.3244    4723.7216    5467.7674    4581.6575   -161.88454    948.67941   -250.78297    18.030564    21.237622    21.997246           90           90           90 
   35500     254.6039   -127.92436    -99.52291   -127.92436            0   -3910.8838    18.096757    21.315588       22.078            0            0            0    8516.4341   -3450.5122   -3188.6402    -5093.499   -1040.9893   -1685.2561   -837.21238    18.096757    21.315588       22.078           90           90           90 
   36000    262.68058   -128.58123   -99.278818   -128.58123            0    49.748158    18.152528     21.38128    22.146042            0            0            0    8595.4165     983.3799   -978.75586    144.62044    2791.6898    1244.6488    158.22521    18.152528     21.38128    22.146042           90           90           90 
   36500    271.77791   -129.09275   -98.775513   -129.09275            0   -50.630738    18.018508    21.223421    21.982537            0            0            0     8406.438   -2178.7575     108.2637    1918.6016   -2118.4378      571.979    491.32629    18.018508    21.223421    21.982537           90           90           90 
   37000    258.69149   -127.20158   -98.344155   -127.20158            0    -133.6566    17.946305    21.138376     21.89445            0            0            0    8305.7858    549.28707    917.21032   -1867.4672    190.96058    560.10415    1306.3704    17.946305    21.138376     21.89445           90           90           90 
   37500    264.40246   -128.34089   -98.846393   -128.34089            0   -262.58433    18.072878    21.287462    22.048869            0            0            0    8482.7668   -935.42507    1399.5318   -1251.8597     851.4095   -2789.1103     1082.347    18.072878    21.287462    22.048869           90           90           90 
   38000    257.45415   -125.91076    -97.19136   -125.91076            0   -2580.3488    18.228212    21.470426    22.238376            0            0            0    8703.3772   -1203.4229   -4817.4703   -1720.1531   -478.24822    1439.8424    1373.3061    18.228212    21.470426    22.238376           90           90           90 
   38500    258.99977   -126.27207   -97.380255   -126.27207            0    525.62761    18.182369    21.416428    22.182447            0            0            0    8637.8754   -220.94851    18.178867    1779.6525    338.69444    1813.3703    779.00719    18.182369    21.416428    22.182447           90           90           90 
   39000    265.52961   -128.76569   -99.145464   -128.76569            0    831.13706    18.111911    21.333437    22.096488            0            0            0    8537.8469    909.78302    1869.4581   -285.82997   -1527.3646    1013.1706   -1785.8244    18.111911    21.333437    22.096488           90           90           90 
   39500    264.13654   -127.19681   -97.731978   -127.19681            0   -3569.3081    18.122663    21.346102    22.109606            0            0            0    8553.0618    -562.0828   -4235.9288   -5909.9128   -670.37039   -178.84458    520.73672    18.122663    21.346102    22.109606           90           90           90 
   40000    261.44494   -127.80396   -98.639382   -127.80396            0    2843.9614    18.117798    21.340372    22.103671            0            0            0    8546.1758    2343.1413    809.06049    5379.6825   -401.83198     4.654409   -46.545062    18.117798    21.340372    22.103671           90           90           90 
   40500    258.00706    -127.9924   -99.211321    -127.9924            0    -2742.266    18.087889    21.305143    22.067181            0            0            0    8503.9202   -3293.3758    618.35763   -5551.7797     2537.144   -695.92258   -1701.4469    18.087889    21.305143    22.067181           90           90           90 
   41000    247.66245   -126.41298   -98.785857   -126.41298            0    999.02261    18.147162    21.374959    22.139495            0            0            0    8587.7958    1660.1569    1939.3973   -602.48638   -2249.5215     1123.206   -5.5742192    18.147162    21.374959    22.139495           90           90           90 
   41500    268.25649   -127.52878   -97.604368   -127.52878            0   -2362.5657    18.216659    21.456817    22.224281            0            0            0    8686.8386   -4444.5503   -183.16734   -2459.9795    22.465447   -236.86095    419.86979    18.216659    21.456817    22.224281           90           90           90 
   42000    249.96969   -126.07403   -98.189532   -126.07403            0    -452.5215    18.280875    21.532455    22.302624            0            0            0     8779.029    372.31524    429.48702   -2159.3668   -1228.6758   -347.93316    608.88388    18.280875    21.532455    22.302624           90           90           90 
   42500    264.28093    -127.2452   -97.764267    -127.2452            0    120.36439    18.278528    21.529691    22.299761            0            0            0    8775.6485    -996.9385    1476.4825   -118.45086    329.21532    521.62586   -254.06977    18.278528    21.529691    22.299761           90           90           90 
   43000    265.94226   -127.19136   -97.525104   -127.19136            0   -178.96332    18.173697    21.406213    22.171867            0            0            0    8625.5224    1089.4912   -783.85027   -842.53088   -616.02728    634.70093    376.54123    18.173697    21.406213    22.171867           90           90           90 
   43500     262.5063   -128.32709   -99.044116   -128.32709            0    1704.9696    18.187681    21.422685    22.188928            0            0            0    8645.4495    1535.3693    2926.9114    652.62797   -310.65724   -1076.7693    330.74622    18.187681    21.422685    22.188928           90           90           90 
   44000    261.89332   -127.86582   -98.651224   -127.86582            0   -3807.2577    18.248342    21.494135    22.262934            0            0            0     8732.242    -4247.441    -942.3577   -6231.9743    3850.0252   -239.71715    1415.9073    18.248342    21.494135    22.262934           90           90           90 
   44500    262.48166   -127.41775   -98.137522   -127.41775            0    3959.6418    18.071863    21.286266     22.04763            0            0            0    8481.3369    3676.3165    6314.4779     1888.131     26.13824    -965.0372   -1263.9814    18.071863    21.286266     22.04763           90           90           90 
   45000    246.95356   -128.35871   -100.81067   -128.35871            0   -1530.5402    18.164909    21.395863    22.161146            0            0            0    8613.0162   -1117.4409   -2629.4597    -844.7199     867.3238    -1156.128    830.71162    18.164909    21.395863    22.161146           90           90           90 
   45500    249.70451   -127.72819   -99.873272   -127.72819            0    1606.9357    18.098976    21.318202    22.080708            0            0            0     8519.568    2850.9634   -224.99695    2194.8406    1609.6852    718.35501    1885.7909    18.098976    21.318202    22.080708           90           90           90 
   46000    252.66338   -127.65358   -99.468603   -127.65358            0   -748.44318    18.066607    21.280076    22.041218            0            0            0    8473.9398    687.27459   -1159.5783   -1773.0259   -2143.0419   -1139.1987    539.75189    18.066607    21.280076    22.041218           90           90           90 
   46500    263.28696    -128.3784   -99.008347    -128.3784            0     1444.964     18.16879    21.400434    22.165881            0            0            0    8618.5375    1211.3742    1306.6685    1816.8492    191.73458    -986.2781   -1084.2472     18.16879    21.400434    22.165881           90           90           90 
   47000    265.25571   -128.04108   -98.451408   -128.04108            0   -426.64688    18.083279    21.299714    22.061558            0            0            0    8497.4211    98.010606   -170.14555   -1207.8057    1792.8725   -941.81404   -245.76051    18.083279    21.299714    22.061558           90           90           90 
   47500    263.11921   -126.85753   -97.506184   -126.85753            0     1135.181    18.067948    21.281655    22.042854            0            0            0    8475.8263    1187.8589   -757.97575    2975.6597    1828.2261   -407.23719     85.19917    18.067948    21.281655    22.042854           90           90           90 
   48000    259.58873   -125.99896   -97.041444   -125.99896            0    1223.6808    18.075082    21.290059    22.051558            0            0            0     8485.871    650.67886    2223.9481    796.41545   -3191.3409   -2306.3459   -542.55961    18.075082    21.290059    22.051558           90           90           90 
   48500    258.41001   -126.89514   -98.069117   -126.89514            0   -2801.3883    18.016722    21.221317    21.980358            0            0            0    8403.9384   -3597.1313   -1939.3384   -2867.6953     391.9517   -1404.3153     790.3913    18.016722    21.221317    21.980358           90           90           90 
   49000    262.83264   -125.19884   -95.879467   -125.19884            0   -3548.3277    18.125193    21.349082    22.112693            0            0            0    8556.6445   -2905.4088    -3732.839   -4006.7354   -1450.7401    284.60543    1257.7205    18.125193    21.349082    22.112693           90           90           90 
   49500    277.16004   -123.38488   -92.467258   -123.38488            0   -1275.7075    18.078011    21.293508     22.05513            0            0            0    8489.9957   -1039.2411   -3626.0724    838.19118   -1405.0354   -2452.8929   -750.21209    18.078011    21.293508     22.05513           90           90           90 
   50000    280.76662    -126.7894   -95.469457    -126.7894            0   -4060.0326    18.023531    21.229338    21.988665            0            0            0    8413.4711   -4331.5105   -2224.7684   -5623.8191     1149.146    3003.0842   -145.80378    18.023531    21.229338    21.988665           90           90           90 
   50500    255.78864   -125.01999   -96.486385   -125.01999            0    3454.9907    18.008187    21.211265    21.969946            0            0            0    8392.0015     3742.582     2732.928     3889.462   -41.919392   -118.35334   -1989.8806    18.008187    21.211265    21.969946           90           90           90 
   51000    265.02924   -125.06229   -95.497875   -125.06229            0   -287.04081    18.062462    21.275193    22.036161            0            0            0    8468.1083   -3024.5806    2093.6193    69.838835    2002.4062    1527.8411    1371.6461    18.062462    21.275193    22.036161           90           90           90 
   51500    261.08557    -125.4836   -96.359107    -125.4836            0   -62.517226    18.049868    21.260359    22.020796            0            0            0    8450.4068   -1835.3349    542.08703    1105.6962   -408.29768   -1775.5648     496.4656    18.049868    21.260359    22.020796           90           90           90 
   52000     254.0095   -126.30742   -97.972278   -126.30742            0    245.54658    17.976987    21.174515    21.931882            0            0            0    8348.4584   -1021.9715    3049.8844   -1291.2731   -1472.8177    154.21749    3438.1333    17.976987    21.174515    21.931882           90           90           90 
   52500    264.39995   -124.58608    -95.09187   -124.58608            0   -987.73777    18.070407    21.284552    22.045854            0            0            0     8479.288   -2854.7329   -1725.0984    1616.6179   -1702.6136   -1562.9172   -163.84628    18.070407    21.284552    22.045854           90           90           90 
   53000    264.64982   -125.97547   -96.453389   -125.97547            0   -1482.3099    18.060516    21.272902    22.033787            0            0            0    8465.3718   -3999.7624    1791.3918   -2238.5591   -2772.5851    1935.6726    -2672.369    18.060516    21.272902    22.033787           90           90           90 
   53500    256.31515   -125.56393   -96.971584   -125.56393            0    335.36126    17.913913    21.100222    21.854932            0            0            0    8260.8921   -158.32142    -2317.393    3481.7983   -1366.1315    50.132689    2852.9848    17.913913    21.100222    21.854932           90           90           90 
   54000    261.03848   -124.94715   -95.827918   -124.94715            0   -1656.2512    18.040405    21.249214    22.009252            0            0            0    8437.1241    -3183.797    1144.3363    -2929.293        263.4   -2604.5536    292.58789    18.040405    21.249214    22.009252           90           90           90 
   54500    244.09646   -125.35631   -98.126979   -125.35631            0   -1906.5551    18.084926    21.301653    22.063567            0            0            0    8499.7422   -4818.5198   -1796.9234     895.7778    -2417.628   -1477.4057    1078.9383    18.084926    21.301653    22.063567           90           90           90 
   55000    256.53957   -125.59137   -96.973998   -125.59137            0    1766.8868     18.07486    21.289796    22.051286            0            0            0     8485.557    611.62884     1447.276    3241.7555   -826.84013    1331.7935    1087.3306     18.07486    21.289796    22.051286           90           90           90 
   55500    253.40704   -125.97696   -97.709024   -125.97696            0   -471.25538    18.065618    21.278911    22.040011            0            0            0     8472.548    178.06397   -536.63206    -1055.198   -2919.0676   -762.36979    493.64613    18.065618    21.278911    22.040011           90           90           90 
   56000    268.17178    -125.5897   -95.674734    -125.5897            0    731.62704    17.914049    21.100382    21.855097            0            0            0    8261.0796   -520.85593    570.92475    2144.8123    681.80644   -570.37689   -1956.5266    17.914049    21.100382    21.855097           90           90           90 
   56500    256.76207   -123.76558   -95.123383   -123.76558            0   -1664.4672    18.083502    21.299976     22.06183            0            0            0    8497.7348    302.79593   -4669.1128   -627.08459   -1276.5697   -1493.9167    625.12509    18.083502    21.299976     22.06183           90           90           90 
   57000    254.38208   -123.41693   -95.040225   -123.41693            0    403.52628    18.008092    21.211153     21.96983            0            0            0    8391.8686    1253.3294    870.91992   -913.67046     1042.945   -1667.7051    804.80135    18.008092    21.211153     21.96983           90           90           90 
   57500    261.03927   -124.74536   -95.626039   -124.74536            0   -976.34272    17.968315    21.164301    21.921302            0            0            0    8336.3825   -1301.4034   -886.47893   -741.14585    1558.4827    1366.0993    822.66537    17.968315    21.164301    21.921302           90           90           90 
   58000    261.75276   -125.24773   -96.048814   -125.24773            0   -1305.3258    18.036605    21.244737    22.004615            0            0            0     8431.793   -3619.2032    1011.2014   -1307.9755   -82.157126     228.8696    1447.6817    18.036605    21.244737    22.004615           90           90           90 
   58500    252.60529   -125.28117   -97.102668   -125.28117            0    4421.6363    17.975438    21.172691    21.929992            0            0            0    8346.3006    5880.6128    1049.1616    6335.1346    600.69526    -2320.535   -202.74833    17.975438    21.172691    21.929992           90           90           90 
   59000    260.52919    -124.7566   -95.694181    -124.7566            0   -2462.6615     18.01123    21.214849    21.973659            0            0            0    8396.2567    -4912.146   -893.99255    -1581.846    700.46557   -1449.4338   -170.85307     18.01123    21.214849    21.973659           90           90           90 
   59500    255.45882    -123.8655   -95.368686    -123.8655            0    520.34391    18.076543    21.291779     22.05334            0            0            0    8487.9281    -1088.596   -520.97744    3170.6052   -98.298383    1207.8461    1836.4768    18.076543    21.291779     22.05334           90           90           90 
   60000    268.55163    -126.3947   -96.437361    -126.3947            0   -361.50996    18.068104    21.281839    22.043044            0            0            0    8476.0461   -3137.3524    2428.1605   -375.33804    1563.0441    979.87883     1535.375    18.068104    21.281839    22.043044           90           90           90 
   60500    254.91267    -126.0519   -97.616007    -126.0519            0   -691.20773     18.02248      21.2281    21.987383            0            0            0    8411.9996   -834.51729   -757.33461    -481.7713   -985.15868   -2645.4317   -1707.2914     18.02248      21.2281    21.987383           90           90           90 
   61000    254.67325   -125.93582   -97.526635   -125.93582            0    990.73209    18.019465    21.224549    21.983705            0            0            0     8407.778    285.55924   -972.43949    3659.0765    300.21788   -1298.9022    564.32067    18.019465    21.224549    21.983705           90           90           90 
   61500    261.20464    -125.7226   -96.584826    -125.7226            0   -295.61673    18.103902    21.324004    22.086717            0            0            0     8526.526    807.77166    330.32407   -2024.9459   -1418.7402   -1133.3201   -784.34011    18.103902    21.324004    22.086717           90           90           90 
   62000    260.13389   -125.25686   -96.238531   -125.25686            0   -1028.3519     18.11886    21.341623    22.104966            0            0            0    8547.6784   -143.19045   -248.81654   -2693.0486   -848.55934   -1434.6517    174.24954     18.11886    21.341623    22.104966           90           90           90 
   62500    265.08931   -126.65329   -97.082183   -126.65329            0    953.18129    18.128304    21.352747    22.116488            0            0            0    8561.0514    3878.3395   -499.59515    -519.2005   -2243.6331    208.70618    1143.4303    18.128304    21.352747    22.116488           90           90           90 
   63000    274.61714   -125.67729   -95.043333   -125.67729            0   -799.16412    18.041028    21.249948    22.010012            0            0            0    8437.9983   -3007.5612    1230.6746   -620.60579    585.26911   -284.67027    2694.2457    18.041028    21.249948    22.010012           90           90           90 
   63500    256.69565   -126.74395   -98.109162   -126.74395            0    2480.7873    18.055871     21.26743    22.028119            0            0            0     8458.841    4719.7632    2822.9002   -100.30143   -1715.0066   -717.34446    -594.6599    18.055871     21.26743    22.028119           90           90           90 
   64000    259.61197   -125.75646   -96.796352   -125.75646            0   -4180.3078    18.157278    21.386874    22.151836            0            0            0    8602.1649    -2331.411   -3237.6615    -6971.851     708.4794   -2837.2754    1489.9654    18.157278    21.386874    22.151836           90           90           90 
   64500    254.26401   -125.15903   -96.795499   -125.15903            0    3721.4433    18.040197    21.248968    22.008998            0            0            0    8436.8316    2394.7687    8170.5077    599.05361     612.5013     184.9742   -1043.0421    18.040197    21.248968    22.008998           90           90           90 
   65000     250.0182   -127.60838   -99.718472   -127.60838            0    -453.0537    17.977053    21.174593    21.931963            0            0            0    8348.5505    273.01836    1315.9331   -2948.1126    246.88668    1938.2163   -2676.9677    17.977053    21.174593    21.931963           90           90           90 
   65500    263.16536   -127.71479   -98.358301   -127.71479            0    67.747651    18.090788    21.308557    22.070718            0            0            0    8508.0101   -864.40135    3646.0199   -2578.3756   -487.51085    235.49159   -1656.5484    18.090788    21.308557    22.070718           90           90           90 
   66000    264.21618   -124.91602   -95.442307   -124.91602            0    829.67367    18.076974    21.292287    22.053866            0            0            0    8488.5357    1559.4367    870.13762    59.446672   -666.30449    439.03154   -438.36631    18.076974    21.292287    22.053866           90           90           90 
   66500    274.61938   -126.56929   -95.935081   -126.56929            0   -724.83959    18.043311    21.252636    22.012797            0            0            0    8441.2019   -179.51302    377.48345   -2372.4892   -105.32003    305.58761    -1663.328    18.043311    21.252636    22.012797           90           90           90 
   67000    254.30801    -125.4113   -97.042856    -125.4113            0    3674.7711    18.200149     21.43737    22.204138            0            0            0    8663.2402    5043.2977    2037.9101    3943.1056    1309.5887    2915.5688    1767.8515    18.200149     21.43737    22.204138           90           90           90 
   67500    251.18282   -125.54424   -97.524422   -125.54424            0   -1609.3432    18.061714    21.274312    22.035248            0            0            0     8467.056    -2947.862   -1007.8091   -872.35841    1626.2623   -1259.6637    509.93794    18.061714    21.274312    22.035248           90           90           90 
   68000    255.35461   -125.63529   -97.150104   -125.63529            0    1149.0324    18.036308    21.244388    22.004253            0            0            0     8431.377    -15.45439   -175.72768    3638.2792    1247.1075   -788.50854   -393.90328    18.036308    21.244388    22.004253           90           90           90 
   68500    272.33017   -126.90658    -96.52774   -126.90658            0   -1971.2936    18.047026    21.257012    22.017329            0            0            0    8446.4163   -3113.1307   -1161.6875   -1639.0626   -4537.7993    60.615318    -1952.189    18.047026    21.257012    22.017329           90           90           90 
   69000    245.35569    -125.7292   -98.359406    -125.7292            0   -1205.0903    18.103274    21.323265    22.085951            0            0            0    8525.6388   -1850.2219   -1244.5599     -520.489    3394.7412   -2087.0592   -14.530828    18.103274    21.323265    22.085951           90           90           90 
   69500    262.62529    -128.3336   -99.037356    -128.3336            0   -247.28123    18.174778    21.407487    22.173186            0            0            0     8627.062   -1072.3102     2714.548   -2384.0815   -1639.9081   -371.35083    268.78849    18.174778    21.407487    22.173186           90           90           90 
   70000    251.70438   -126.38159   -98.303588   -126.38159            0   -2002.3367    18.093962    21.312296    22.074591            0            0            0    8512.4894   -1278.7204   -1061.9375   -3666.3523    790.99429   -1437.4092    1613.1673    18.093962    21.312296    22.074591           90           90           90 
   70500    265.45509   -127.74931     -98.1374   -127.74931            0    769.49457    18.082829    21.299183    22.061009            0            0            0    8496.7863    15.001806    1617.9455    675.53641    1432.9132   -126.09748    -2447.966    18.082829    21.299183    22.061009           90           90           90 
   71000    260.03371   -126.78432   -97.777166   -126.78432            0   -1157.7931    18.082625    21.298943     22.06076            0            0            0    8496.4984   -1826.9695   -638.39753   -1008.0123    134.92489    62.475175    1675.6977    18.082625    21.298943     22.06076           90           90           90 
   71500     256.4193   -126.92272   -98.318763   -126.92272            0    2342.7499    18.057835    21.269743    22.030516            0            0            0    8461.6018    3325.9717   -1775.2577    5477.5356   -1095.0891     64.81352    252.92001    18.057835    21.269743    22.030516           90           90           90 
   72000    271.31261   -124.70829    -94.44296   -124.70829            0   -2405.4464    18.186992    21.421873    22.188087            0            0            0    8644.4664   -464.15453   -3966.5381   -2785.6465    1035.2915   -2117.3741   -1560.3998    18.186992    21.421873    22.188087           90           90           90 
   72500     255.0804   -124.16695   -95.712352   -124.16695            0   -1123.6594    18.089247    21.306743    22.068839            0            0            0    8505.8365    -1579.017    1277.5268   -3069.4881     1645.219    226.95307   -1112.2538    18.089247    21.306743    22.068839           90           90           90 
   73000    255.69056   -126.35653   -97.833864   -126.35653            0    2361.8339    17.910798    21.096553    21.851131            0            0            0    8256.5831    1734.5527    4379.1605    971.78865   -2601.8903    800.51877   -3038.7218    17.910798    21.096553    21.851131           90           90           90 
   73500    261.41753      -126.36    -97.19848      -126.36            0    2605.9961    17.988415    21.187976    21.945824            0            0            0    8364.3901    5553.1234    2278.0899    -13.22492    2463.9667    623.50975    1887.4244    17.988415    21.187976    21.945824           90           90           90 
   74000    256.27768   -125.57259   -96.984432   -125.57259            0   -2086.5811    18.142541    21.369516    22.133857            0            0            0    8581.2366   -4543.0516    162.15048   -1878.8421   -2494.8219     1491.817    265.76085    18.142541    21.369516    22.133857           90           90           90 
   74500    260.21783   -125.35068   -96.322988   -125.35068            0    1857.2787    18.052301    21.263225    22.023765            0            0            0    8453.8254    225.51522     1697.727    3648.5938    -250.2573   -1742.2262   -1076.4752    18.052301    21.263225    22.023765           90           90           90 
   75000    263.98778   -125.81831   -96.370078   -125.81831            0   -991.59901    18.121704    21.344972    22.108436            0            0            0    8551.7035   -2171.3586   -221.52347   -581.91498    699.30481   -1257.7195   -2325.3181    18.121704    21.344972    22.108436           90           90           90 
   75500    257.40302   -126.10689   -97.393198   -126.10689            0   -2233.0899    18.162535    21.393067     22.15825            0            0            0    8609.6397    -1925.957    330.82691   -5104.1395    250.77199     2272.118    2497.9295    18.162535    21.393067     22.15825           90           90           90 
   76000    262.83985   -126.34729   -97.027108   -126.34729            0    1075.6668    18.050168    21.260713    22.021162            0            0            0    8450.8287    1520.4895   -1608.2131    3314.7241   -731.77906    -1724.175   -796.27805    18.050168    21.260713    22.021162           90           90           90 
   76500    241.92296   -127.67238   -100.68551   -127.67238            0   -686.42435    18.010152    21.213579    21.972343            0            0            0    8394.7486   -2546.1384   -854.89528    1341.7606    678.43503   -2547.2052   -539.80101    18.010152    21.213579    21.972343           90           90           90 
   77000    249.89896   -128.25908   -100.38247   -128.25908            0     631.5943     18.08383    21.300362    22.062229            0            0            0    8498.1968   -1285.9325   -590.51446    3771.2298   -1316.6268   -1461.1113    1465.8984     18.08383    21.300362    22.062229           90           90           90 
   77500    258.45564   -126.87872   -98.047603   -126.87872            0    1623.1451    18.014848     21.21911    21.978072            0            0            0    8401.3169   -812.21267    3054.4732    2627.1747    338.38813    2157.6801   -647.03919    18.014848     21.21911    21.978072           90           90           90 
   78000    266.43983   -125.86476   -96.142993   -125.86476            0   -865.37629    17.957519    21.151585    21.908131            0            0            0    8321.3654   -1073.9881   -2260.0811    737.94034   -1808.7174   -551.34865    1286.9758    17.957519    21.151585    21.908131           90           90           90 
   78500     250.0894    -126.7265   -98.828647    -126.7265            0    1403.1463    18.015945    21.220403     21.97941            0            0            0    8402.8518    5596.6222     1757.754   -3144.9374    137.01719    1112.0463   -370.51386    18.015945    21.220403     21.97941           90           90           90 
   79000    257.19869   -127.02984   -98.338943   -127.02984            0   -620.27121    18.023467    21.229262    21.988587            0            0            0     8413.381   -3696.8107    53.591479    1782.4056   -3042.7794   -1242.2124    -1182.069    18.023467    21.229262    21.988587           90           90           90 
   79500    273.55246   -126.99808   -96.482892   -126.99808            0   -1569.8135    18.160361    21.390506    22.155598            0            0            0    8606.5482    -45.49284   -5020.2778    356.33005   -181.89914   -2150.1854    699.21095    18.160361    21.390506    22.155598           90           90           90 
   80000    256.20433   -125.07773    -96.49775   -125.07773            0   -1051.5875    18.175173    21.407952    22.173668            0            0            0    8627.6244   -2956.7795    2813.3002   -3011.2832    461.98487   -8.7277561   -270.37976    18.175173    21.407952    22.173668           90           90           90 
   80500    258.85367   -126.16705   -97.291531   -126.16705            0    633.17633    18.130586    21.355435    22.119272            0            0            0    8564.2849    669.53586    2247.1332     -1017.14   -117.70817   -378.53628   -427.22966    18.130586    21.355435    22.119272           90           90           90 
   81000    249.76164   -125.13407   -97.272787   -125.13407            0   -93.569784    18.200833    21.438177    22.204974            0            0            0    8664.2183   -2780.4921    983.23068    1516.5521   -44.435813    1023.9785    338.60851    18.200833    21.438177    22.204974           90           90           90 
   81500    251.93541   -125.19663   -97.092858   -125.19663            0   -301.10525    18.066494    21.279943     22.04108            0            0            0    8473.7809    1339.5819     125.5005   -2368.3982   -119.79623   -666.65287     903.3169    18.066494    21.279943     22.04108           90           90           90 
   82000    255.35888   -127.03433   -98.548665   -127.03433            0   -495.99405    18.048619    21.258888    22.019272            0            0            0    8448.6531   -1799.5025   -14.389117    325.90949   -2128.8089   -39.283137   -659.07089    18.048619    21.258888    22.019272           90           90           90 
   82500    266.53572    -124.3266   -94.594144    -124.3266            0   -2108.2818    18.188351    21.423474    22.189745            0            0            0     8646.404    -2503.668    -1071.795   -2749.3822    3148.9135    1260.0695    956.47594    18.188351    21.423474    22.189745           90           90           90 
   83000    256.98883   -124.40762   -95.740128   -124.40762            0    344.74492     18.07286    21.287441    22.048847            0            0            0    8482.7414    1707.1125    93.493539   -766.37127     133.2863    947.51311   -401.54373     18.07286    21.287441    22.048847           90           90           90 
   83500    255.75654   -125.05274   -96.522718   -125.05274            0    1438.1162    17.984132    21.182931    21.940599            0            0            0    8358.4166    1799.6639    648.42364    1866.2609    -1364.755    585.06814   -117.63996    17.984132    21.182931    21.940599           90           90           90 
   84000    261.76254   -124.30779   -95.107781   -124.30779            0   -1452.8088    18.009212    21.212472    21.971196            0            0            0    8393.4338    641.46767   -2214.5881   -2785.3058    2371.7871   -1264.4401   -131.77137    18.009212    21.212472    21.971196           90           90           90 
   84500    249.40042   -123.42594   -95.604945   -123.42594            0    1011.4187    17.949959     21.14268    21.898908            0            0            0      8310.86    3952.6449   -287.00208   -631.38658    3523.3411    276.78368    623.93538    17.949959     21.14268    21.898908           90           90           90 
   85000    267.38946   -126.69911   -96.871414   -126.69911            0    328.01906    17.940446    21.131475    21.887302            0            0            0    8297.6529   -2157.2652    1742.8536    1398.4688     478.1503    168.34526   -739.20035    17.940446    21.131475    21.887302           90           90           90 
   85500     271.2628   -125.83748   -95.577706   -125.83748            0    2561.9386    17.878979    21.059074    21.812311            0            0            0    8212.6566    3946.1413   -408.68376    4148.3582    1685.0742   -624.15504    -700.3611    17.878979    21.059074    21.812311           90           90           90 
   86000     263.1346   -126.70458   -97.351518   -126.70458            0    387.61687    17.988851    21.188489    21.946356            0            0            0    8364.9979   -536.52474    1972.3714     -272.996    62.114017    246.67776    155.03033    17.988851    21.188489    21.946356           90           90           90 
   86500    249.15788   -124.71841   -96.924472   -124.71841            0    1928.1495    18.042602    21.251801    22.011932            0            0            0    8440.2062    1224.4768     1959.357    2600.6147    983.38149    199.49106    2103.1442    18.042602    21.251801    22.011932           90           90           90 
   87000    246.67001   -125.28171     -97.7653   -125.28171            0    154.25339    17.952823    21.146053    21.902402            0            0            0    8314.8386    1087.4035   -321.79558   -302.84775    1903.3041      1341.56   -297.53403    17.952823    21.146053    21.902402           90           90           90 
   87500    255.37681   -125.01707   -96.529401   -125.01707            0    2832.2399    18.044718    21.254293    22.014513            0            0            0    8443.1758    5794.3337    262.31125    2440.0748    775.69635   -1067.3409    1311.2138    18.044718    21.254293    22.014513           90           90           90 
   88000    256.56605   -124.64977   -96.029446   -124.64977            0   -447.90756     17.95332    21.146638    21.903008            0            0            0    8315.5287   -1044.5864   -482.89353    183.75722    625.30476    866.99404    2345.9699     17.95332    21.146638    21.903008           90           90           90 
   88500    256.60379   -125.76659   -97.142056   -125.76659            0    791.91755    18.026051    21.232307     21.99174            0            0            0    8417.0009    3289.8252   -2294.5275     1380.455    800.32573   -195.36488    877.71317    18.026051    21.232307     21.99174           90           90           90 
   89000    250.73076   -126.54015   -98.570757   -126.54015            0    1297.6248    18.035711    21.243684    22.003524            0            0            0    8430.5389    2280.5407   -158.84727    1771.1809     -95.2695    423.02079    1778.6497    18.035711    21.243684    22.003524           90           90           90 
   89500     251.2415   -126.96249   -98.936122   -126.96249            0   -3152.0948    18.007672    21.210658    21.969317            0            0            0    8391.2806   -2746.3111   -2326.2735   -4383.6999    239.33796    924.04253     338.3055    18.007672    21.210658    21.969317           90           90           90 
   90000    252.92302   -127.28976   -99.075815   -127.28976            0    5148.3148    17.946578    21.138698    21.894783            0            0            0    8306.1644    2327.9657     8415.039    4701.9396    508.64959    363.43869   -318.61328    17.946578    21.138698    21.894783           90           90           90 
   90500    255.26362   -125.87345   -97.398409   -125.87345            0   -1946.8414    18.011323    21.214959    21.973772            0            0            0    8396.3866     533.8187   -2687.5593   -3686.7835    1837.3279    2181.9878    167.21384    18.011323    21.214959    21.973772           90           90           90 
   91000    264.85557   -126.96517   -97.420132   -126.96517            0   -9.7116333    18.031788    21.239063    21.998738            0            0            0     8425.039    267.74895    -842.9236    546.03975    272.97564    81.580378   -1087.5916    18.031788    21.239063    21.998738           90           90           90 
   91500    248.43287   -127.92429   -100.21123   -127.92429            0    109.38651    17.983416    21.182088    21.939726            0            0            0    8357.4188   -939.64679   -447.02222    1714.8285   -476.67158    825.48777   -432.94763    17.983416    21.182088    21.939726           90           90           90 
   92000    266.28602   -128.51295   -98.808339   -128.51295            0    1107.8979    17.925705    21.114111    21.869317            0            0            0    8277.2155    2866.5908    2168.5806   -1711.4775   -1217.8278    575.13242   -3170.8366    17.925705    21.114111    21.869317           90           90           90 
   92500    253.07769   -126.87555   -98.644351   -126.87555            0   -1366.0443     18.08208      21.2983    22.060094            0            0            0    8495.7298    -2420.006   -571.17874   -1106.9483   -1005.5343   -298.00903    462.50927     18.08208      21.2983    22.060094           90           90           90 
   93000    262.94188   -127.08486   -97.753303   -127.08486            0   -1921.8334    18.039508    21.248157    22.008157            0            0            0    8435.8653   -608.43542    -1564.716   -3592.3487   -2493.5782   -694.17384   -187.44489    18.039508    21.248157    22.008157           90           90           90 
   93500    265.40564    -128.3396   -98.733198    -128.3396            0   -72.531024    18.027784    21.234347    21.993854            0            0            0    8419.4279   -745.34937   -536.61153    1064.3678    2433.3026    -1441.632    958.50635    18.027784    21.234347    21.993854           90           90           90 
   94000    266.23796    -128.7822   -99.082957    -128.7822            0    -1549.348    18.017032    21.221683    21.980736            0            0            0    8404.3725   -3037.0931   -727.80712   -883.14367    943.06048   -631.73312   -2293.0192    18.017032    21.221683    21.980736           90           90           90 
   94500    253.41448   -127.84957   -99.580802   -127.84957            0   -1119.8356     18.03016    21.237146    21.996753            0            0            0    8422.7581   -2497.4064     724.9028   -1587.0031   -218.20248   -591.78437    593.37765     18.03016    21.237146    21.996753           90           90           90 
   95000    249.02885    -128.6357   -100.85616    -128.6357            0   -556.72775    18.086598    21.303623    22.065607            0            0            0    8502.1005   -514.34895    705.73643   -1861.5707    992.63841   -573.22665     199.8739    18.086598    21.303623    22.065607           90           90           90 
   95500    248.12865   -126.05253   -98.373402   -126.05253            0   -438.61267     18.06714    21.280704    22.041868            0            0            0    8474.6895   -89.546704   -2719.2077    1492.9164    488.39954    2573.6743   -658.18833     18.06714    21.280704    22.041868           90           90           90 
   96000    265.96366   -126.52468   -96.856028   -126.52468            0    -137.4111    18.004971    21.207476    21.966022            0            0            0    8387.5055    1609.6241   -128.31121   -1893.5462    1773.2807   -1474.1338   -712.15364    18.004971    21.207476    21.966022           90           90           90 
   96500    268.84808   -127.36226   -97.371852   -127.36226            0   -1851.8386    18.056268    21.267898    22.028604            0            0            0    8459.3994   -1849.8036   -222.91572   -3482.7966    -1516.341    313.11332   -1347.5165    18.056268    21.267898    22.028604           90           90           90 
   97000    258.81407   -126.98294   -98.111836   -126.98294            0    918.12638    18.050953    21.261637     22.02212            0            0            0    8451.9311    2708.8045   -944.31567    989.89028    47.751173    106.56094    324.80988    18.050953    21.261637     22.02212           90           90           90 
   97500    249.22487   -125.05162   -97.250214   -125.05162            0    915.11129    18.020088    21.225283    21.984465            0            0            0    8408.6505    3166.6882    702.47142   -1123.8257   -2013.8542   -1819.9498    1116.4501    18.020088    21.225283    21.984465           90           90           90 
   98000    254.85615   -126.87983   -98.450245   -126.87983            0     338.1412    18.075687    21.290771    22.052296            0            0            0    8486.7228    549.82519   -384.39099     848.9894    2070.9671    2173.0524   -766.04901    18.075687    21.290771    22.052296           90           90           90 
   98500    263.73134   -126.93174   -97.512108   -126.93174            0   -2977.2237    18.052251    21.263166    22.023704            0            0            0     8453.755   -3646.8428   -2900.6119   -2384.2163   -1805.7806   -309.76758    2216.3265    18.052251    21.263166    22.023704           90           90           90 
   99000    263.83028   -128.05012   -98.619452   -128.05012            0    717.93071    18.021053    21.226419    21.985641            0            0            0    8410.0004    2142.2981    862.82343   -851.32936    1172.9706   -514.42398   -347.61958    18.021053    21.226419    21.985641           90           90           90 
   99500    266.87378   -125.21766   -95.447491   -125.21766            0   -697.46565    18.189493     21.42482    22.191139            0            0            0    8648.0337    1777.2286   -818.81091   -3050.8147    852.08557    675.29898    57.332261    18.189493     21.42482    22.191139           90           90           90 
  100000    259.17044   -125.05961   -96.148762   -125.05961            0    1321.6471    18.044021    21.253472    22.013663            0            0            0    8442.1977   -302.22896    2222.5366    2044.6337    1259.3243      1864.27      2537.99    18.044021    21.253472    22.013663           90           90           90 
  100500    260.06078   -126.27785   -97.267676   -126.27785            0    1194.9463    18.016055    21.220532    21.979545            0            0            0    8403.0059    1593.4914    2525.1729   -533.82531   -642.43616    719.81226    2823.5226    18.016055    21.220532    21.979545           90           90           90 
  101000    254.54246   -126.77127   -98.376675   -126.77127            0    -1005.046    18.153305    21.382195    22.146989            0            0            0    8596.5202   -570.22887   -861.67053   -1583.2387   -220.39726   -2306.3736   -419.20488    18.153305    21.382195    22.146989           90           90           90 
  101500    256.67777   -126.72468   -98.091889   -126.72468            0    218.96685    18.052979    21.264023    22.024591            0            0            0    8454.7773    342.02861    1045.7775   -730.90555    571.57144    1624.0516   -165.59887    18.052979    21.264023    22.024591           90           90           90 
  102000    254.66343   -126.64916    -98.24107   -126.64916            0    1536.3154    18.079743    21.295548    22.057244            0            0            0    8492.4368    2310.3694    772.26446    1526.3123   -3522.2456   -182.16077   -1514.7669    18.079743    21.295548    22.057244           90           90           90 
  102500    264.24328    -127.7968   -98.320065    -127.7968            0   -3578.0487    18.020219    21.225437    21.984624            0            0            0    8408.8333    1060.6665   -4514.2939   -7280.5188   -422.87782   -1122.8606   -1859.7253    18.020219    21.225437    21.984624           90           90           90 
  103000    256.80159   -126.10693   -97.460329   -126.10693            0    2806.1191    17.993473    21.193933    21.951994            0            0            0    8371.4472    3642.7928    3193.7429    1581.8217   -1350.7122   -147.96947   -1583.2919    17.993473    21.193933    21.951994           90           90           90 
  103500    253.96458   -127.29457   -98.964438   -127.29457            0   -4656.3032    18.038395    21.246845    22.006799            0            0            0    8434.3034    -954.6895   -8007.4571   -5006.7631   -705.90791   -1347.7112    726.71492    18.038395    21.246845    22.006799           90           90           90 
  104000    257.21098   -125.66402   -96.971752   -125.66402            0   -1140.9148    18.035481    21.243413    22.003244            0            0            0    8430.2167   -2894.1354    458.15704   -986.76589    943.77977   -679.66801    -3252.725    18.035481    21.243413    22.003244           90           90           90 
  104500    255.12202   -126.98319    -98.52394   -126.98319            0   -752.54056    17.949618    21.142278    21.898491            0            0            0    8310.3858   -295.14852    499.55134   -2462.0245    1586.5525   -490.15806   -818.49754    17.949618    21.142278    21.898491           90           90           90 
  105000    257.88979   -125.70903   -96.941033   -125.70903            0   -1191.9452    17.986485    21.185703     21.94347            0            0            0    8361.6982   -607.73997   -3141.8129    173.71732    828.99019   -258.83641    891.27822    17.986485    21.185703     21.94347           90           90           90 
  105500     264.5169   -125.21793   -95.710667   -125.21793            0    4046.8171    17.991682    21.191824    21.949809            0            0            0    8368.9474    7095.1238    4674.3871    370.94028    61.898061    724.77799    116.77266    17.991682    21.191824    21.949809           90           90           90 
  106000    262.57818   -126.46504   -97.174046   -126.46504            0   -3631.1765     18.05946    21.271658    22.032499            0            0            0    8463.8873   -3923.6734   -3114.8126   -3855.0435    98.467371   -325.05112   -2551.3531     18.05946    21.271658    22.032499           90           90           90 
  106500    264.12192   -126.46561   -97.002411   -126.46561            0    2418.8444    17.995234    21.196008    21.954143            0            0            0    8373.9053    3278.1334    551.23259    3427.1671    300.79821    1813.7706   -1445.7772    17.995234    21.196008    21.954143           90           90           90 
  107000    256.58144   -126.33028   -97.708238   -126.33028            0    327.08552    18.006558    21.209345    21.967958            0            0            0    8389.7235    1803.8022   -1929.7634    1107.2178    2259.3453    194.11749     2498.183    18.006558    21.209345    21.967958           90           90           90 
  107500    269.75283   -127.19368   -97.102344   -127.19368            0    798.51267    18.051631    21.262436    22.022948            0            0            0    8452.8844    2021.8526   -807.19828    1180.8837    406.54788   -1840.6652   -921.29131    18.051631    21.262436    22.022948           90           90           90 
  108000    264.44297   -125.96352    -96.46451   -125.96352            0   -2079.0064    18.097217     21.31613    22.078562            0            0            0    8517.0841   -4262.0942   -2598.7325    623.80742   -1971.6385   -58.601358   -353.18917    18.097217     21.31613    22.078562           90           90           90 
  108500    269.26487   -125.24214   -95.205239   -125.24214            0    259.18181    18.153845    21.382831    22.147648            0            0            0    8597.2871    1078.9201    1403.9995   -1705.3741    428.85705    1082.0792    4076.2013    18.153845    21.382831    22.147648           90           90           90 
  109000    250.47122   -124.63672   -96.696282   -124.63672            0    1092.9908    18.099132    21.318386    22.080898            0            0            0    8519.7883    928.61647     2877.802     -527.446    3038.7309    2138.8973   -2362.1107    18.099132    21.318386    22.080898           90           90           90 
  109500    262.08205   -124.56473   -95.329079   -124.56473            0    -103.4546    18.081801    21.297972    22.059755            0            0            0    8495.3372   -509.18901    727.62282    -528.7976   -877.38034   -731.25786    1212.1889    18.081801    21.297972    22.059755           90           90           90 
  110000    262.97207   -125.40248   -96.067546   -125.40248            0    3593.3374    17.990597    21.190546    21.948485            0            0            0    8367.4334    5518.7023    4089.6033    1171.7067   -1803.3167    1289.3172    999.82156    17.990597    21.190546    21.948485           90           90           90 
  110500    243.95601   -125.26123   -98.047574   -125.26123            0    969.32338    17.936915    21.127316    21.882994            0            0            0    8292.7545     1882.275    2489.0031    -1463.308    1300.5946   -3045.9247    3640.7906    17.936915    21.127316    21.882994           90           90           90 
  111000    253.63812   -124.99649   -96.702772   -124.99649            0   -3221.1757    18.007716     21.21071    21.969371            0            0            0    8391.3427   -5250.9394   -2586.3615   -1826.2263   -17.337965  -0.76102126    2960.0468    18.007716     21.21071    21.969371           90           90           90 
  111500    266.52505   -127.63618   -97.904912   -127.63618            0    87.934277    18.071182    21.285464    22.046799            0            0            0    8480.3782    887.04661    -2455.807    1832.5632   -1251.8304    209.15337   -1091.7086    18.071182    21.285464    22.046799           90           90           90 
[...]
 1973500    258.39553   -124.49762   -95.673205   -124.49762            0    428.63515    18.104369    21.324554    22.087287            0            0            0     8527.186    2488.7673   -109.54267   -1093.3192    1753.1803    292.03219    3703.2824    18.104369    21.324554    22.087287           90           90           90 
 1974000    258.58208   -124.77311   -95.927893   -124.77311            0    1225.7294    18.160268    21.390396    22.155484            0            0            0    8606.4157    4038.9431    327.37836   -689.13322   -1650.2587   -821.43555    1532.4329    18.160268    21.390396    22.155484           90           90           90 
 1974500    254.71479   -125.07051   -96.656694   -125.07051            0    860.44004    18.065853    21.279187    22.040298            0            0            0    8472.8781    586.97653     1349.928    644.41554   -3703.6793   -320.45781   -2777.8365    18.065853    21.279187    22.040298           90           90           90 
 1975000    254.24687   -126.11904   -97.757419   -126.11904            0   -1730.7424    18.139781    21.366265     22.13049            0            0            0    8577.3212   -2460.0566   -2386.9638   -345.20693    1578.9176   -1439.6982    1075.5281    18.139781    21.366265     22.13049           90           90           90 
 1975500    256.90087   -126.45457   -97.796889   -126.45457            0    757.07971    18.093851    21.312165    22.074455            0            0            0    8512.3321    1871.4271   -1105.7025    1505.5146    217.28256    27.733877    1491.3161    18.093851    21.312165    22.074455           90           90           90 
 1976000    257.59504   -126.24556   -97.510442   -126.24556            0   -275.53248    18.015634    21.220036    21.979031            0            0            0    8402.4169    590.18242    -164.0881   -1252.6918   -1746.1251     313.8055   -648.60463    18.015634    21.220036    21.979031           90           90           90 
 1976500     253.8819   -126.00929   -97.688377   -126.00929            0    842.80693    18.089202    21.306689    22.068783            0            0            0    8505.7723    463.05762    647.27675    1418.0864   -1435.6556   -611.95151   -371.19285    18.089202    21.306689    22.068783           90           90           90 
 1977000    256.58007   -126.05535   -97.433457   -126.05535            0   -1707.0489    18.077839    21.293306    22.054921            0            0            0    8489.7541   -1277.2995   -3279.2709    -564.5762    744.28211   -42.873106    306.43031    18.077839    21.293306    22.054921           90           90           90 
 1977500    255.03878   -125.52537   -97.075408   -125.52537            0    1853.0938    17.971334    21.167857    21.924985            0            0            0    8340.5849    2395.5862    2444.8911    718.80411   -1773.7368    263.81199   -669.34842    17.971334    21.167857    21.924985           90           90           90 
 1978000    261.50681   -124.89232   -95.720847   -124.89232            0   -2025.4123    18.063645    21.276587    22.037605            0            0            0    8469.7726   -2846.4933   -500.68621   -2729.0576    -1570.939   -2419.0639    1261.2404    18.063645    21.276587    22.037605           90           90           90 
 1978500    265.63718    -125.3583   -95.726077    -125.3583            0    1004.4767    17.996715    21.197752    21.955949            0            0            0    8375.9725    1453.9269    1221.7237    337.77951   -453.19617     1734.963      2067.38    17.996715    21.197752    21.955949           90           90           90 
 1979000    250.97871   -124.70679   -96.709742   -124.70679            0    591.63537    18.050149     21.26069    22.021139            0            0            0     8450.802     1863.051    1270.6289   -1358.7738    1286.7137     749.3551    530.10524    18.050149     21.26069    22.021139           90           90           90 
 1979500    263.93534   -123.99605   -94.553663   -123.99605            0    790.16962    18.071734    21.286114    22.047473            0            0            0    8481.1554    345.24106   -307.87353    2333.1413   -86.211104   -1248.2348   -2202.6205    18.071734    21.286114    22.047473           90           90           90 
 1980000    258.02229   -124.19811   -95.415336   -124.19811            0    232.64643    18.092083    21.310083    22.072298            0            0            0    8509.8371    766.38855   -586.03798    517.58872    1520.7651    271.54444    -855.2963    18.092083    21.310083    22.072298           90           90           90 
 1980500    271.52676   -125.31068   -95.021463   -125.31068            0     1519.962    18.042647    21.251854    22.011987            0            0            0    8440.2701   -1192.8886    1269.9418    4482.8328    404.39642   -381.52083   -116.43249    18.042647    21.251854    22.011987           90           90           90 
 1981000    262.37786   -123.47424   -94.205596   -123.47424            0   -2183.0311    17.993228    21.193645    21.951695            0            0            0    8371.1051   -2355.9768   -4216.5057    23.389216    915.38243    272.72992   -2168.1825    17.993228    21.193645    21.951695           90           90           90 
 1981500    265.54844   -124.99619   -95.373861   -124.99619            0    6.3651091    18.043532    21.252896    22.013066            0            0            0     8441.511    2187.1909   -708.66396   -1459.4316    1176.4895     2182.933   -1184.5133    18.043532    21.252896    22.013066           90           90           90 
 1982000    270.36342   -124.82872   -94.669272   -124.82872            0   -726.49437    18.092877    21.311018    22.073267            0            0            0    8510.9582    -138.4456   -130.07771   -1910.9598   -1394.1646    635.43822    1344.0887    18.092877    21.311018    22.073267           90           90           90 
 1982500    254.61989   -125.36539    -96.96216   -125.36539            0   -1550.7361     18.07307    21.287688    22.049102            0            0            0    8483.0362   -975.56394    -1825.497   -1851.1473    2419.2988    1691.7396   -958.78786     18.07307    21.287688    22.049102           90           90           90 
 1983000    262.29417   -125.75602   -96.496709   -125.75602            0     4223.116    17.992869    21.193222    21.951257            0            0            0    8370.6042    6068.1568    1698.9171     4902.274   -1604.0638   -2423.5494   -1751.6585    17.992869    21.193222    21.951257           90           90           90 
 1983500    255.59984   -125.61216    -97.09961   -125.61216            0    602.80654    18.068621    21.282448    22.043675            0            0            0    8476.7736    -1437.975    4049.9826   -803.58798    162.61023   -1222.2917   -1663.9813    18.068621    21.282448    22.043675           90           90           90 
 1984000    264.17131    -126.0442   -96.575496    -126.0442            0   -3153.2307    18.050489    21.261091    22.021554            0            0            0    8451.2795    -2411.795   -3917.5515   -3130.3455    1151.8114   -448.92976    3183.8319    18.050489    21.261091    22.021554           90           90           90 
 1984500    276.27004   -125.35187   -94.533533   -125.35187            0    2543.8296     17.94989    21.142598    21.898823            0            0            0    8310.7631    5738.5939   -231.86077    2124.7555   -1263.1963   -1333.4905    848.71362     17.94989    21.142598    21.898823           90           90           90 
 1985000    270.91694   -124.31629   -94.095094   -124.31629            0   -1156.4772    18.021156     21.22654    21.985767            0            0            0    8410.1447    379.72354    317.73181   -4166.8869   -92.680743   -285.66684   -1229.8124    18.021156     21.22654    21.985767           90           90           90 
 1985500     270.0419   -125.53304   -95.409464   -125.53304            0   -2010.4127    17.955213    21.148869    21.905318            0            0            0    8318.1599   -3143.6005   -3348.7025    461.06491    2285.0392   -801.49076    1137.0542    17.955213    21.148869    21.905318           90           90           90 
 1986000    257.92086    -125.9875   -97.216043    -125.9875            0    2569.7245    17.979746    21.177765    21.935248            0            0            0    8352.3026    165.11594    4639.8787    2904.1789    959.17859    345.01897   -1497.6474    17.979746    21.177765    21.935248           90           90           90 
 1986500    268.79464   -125.51466   -95.530212   -125.51466            0   -1021.2432    18.032892    21.240364    22.000086            0            0            0    8426.5873   -2452.5156   -864.65226    253.43807    1991.3832   -1015.9332    1420.1419    18.032892    21.240364    22.000086           90           90           90 
 1987000    259.13605   -125.09042   -96.183404   -125.09042            0    1257.8563    17.999375    21.200885    21.959194            0            0            0    8379.6872    2627.2498    1473.4912   -327.17209   -2296.1632   -1205.6504 7.1387189e-05    17.999375    21.200885    21.959194           90           90           90 
 1987500    246.61113   -125.17397   -97.664128   -125.17397            0    -441.1369    17.958963    21.153285    21.909892            0            0            0    8323.3725   -4090.2999    1139.2498    1627.6394     441.0371   -1238.6089    580.39118    17.958963    21.153285    21.909892           90           90           90 
 1988000    255.84131   -122.15784   -93.618361   -122.15784            0   -526.58128    17.919753    21.107102    21.862057            0            0            0    8268.9744    391.42448   -1255.8309   -715.33748   -2328.8374   0.05322397   -473.25076    17.919753    21.107102    21.862057           90           90           90 
 1988500    265.43644   -123.73829   -94.128452   -123.73829            0    1052.2435    18.010915    21.214478    21.973274            0            0            0    8395.8159    4952.6444   -775.96755   -1019.9463    1565.9841    575.27928    478.16163    18.010915    21.214478    21.973274           90           90           90 
 1989000    256.38316    -125.7501   -97.150176    -125.7501            0    1190.5519      17.9974    21.198559    21.956786            0            0            0    8376.9298   -945.86864    295.70572    4221.8185    27.745646    584.67713   -1560.8002      17.9974    21.198559    21.956786           90           90           90 
 1989500    250.14607   -125.41923   -97.515058   -125.41923            0    781.88064    17.945492    21.137418    21.893457            0            0            0     8304.656   -849.85314    1031.4976    2163.9975    -62.22114   -448.43199   -2077.2973    17.945492    21.137418    21.893457           90           90           90 
 1990000    256.17611    -126.1818   -97.604974    -126.1818            0    3066.4058    18.041709    21.250749    22.010843            0            0            0    8438.9537     2277.199    2798.2166    4123.8019   -830.66576   -117.57301    46.480335    18.041709    21.250749    22.010843           90           90           90 
 1990500    255.47792   -126.27996   -97.781014   -126.27996            0    1502.0623     17.99549    21.196309    21.954455            0            0            0    8374.2625    5959.4356   -2030.2269    576.97807    364.97065   -1093.6661   -613.28306     17.99549    21.196309    21.954455           90           90           90 
 1991000    242.16192    -128.1246   -101.11107    -128.1246            0    428.61239    17.882866    21.063653    21.817054            0            0            0    8218.0151   -199.97772   -691.98161    2177.7965    2284.4042    2567.6232    9.8415086    17.882866    21.063653    21.817054           90           90           90 
 1991500    263.73764   -126.71248    -97.29215   -126.71248            0    1153.5987    17.955154    21.148798    21.905245            0            0            0    8318.0769    3956.7337   -720.29032    224.35285    2638.8025   -2324.8495   -2910.3822    17.955154    21.148798    21.905245           90           90           90 
 1992000       258.74   -127.37748   -98.514647   -127.37748            0    87.075957    18.035126    21.242996    22.002812            0            0            0    8429.7196   -1758.3686   -443.27169    2462.8682    1084.2535   -802.43443   -543.56814    18.035126    21.242996    22.002812           90           90           90 
 1992500    260.76464   -127.96802   -98.879331   -127.96802            0   -1870.7614    17.969188    21.165329    21.922367            0            0            0    8337.5977   -1691.1377    -1670.521   -2250.6256     102.9221    1428.4166   -933.71976    17.969188    21.165329    21.922367           90           90           90 
 1993000    255.87055   -127.41428    -98.87154   -127.41428            0   -892.34766    18.021051    21.226416    21.985639            0            0            0    8409.9978   -758.78336   -3431.0865    1512.8269    1162.0788    551.53767   -3455.5642    18.021051    21.226416    21.985639           90           90           90 
 1993500     261.7174   -127.92388   -98.728915   -127.92388            0         2134    17.988124    21.187633    21.945468            0            0            0    8363.9832   -2517.3199    4431.2998    4488.0202   -1132.6515   -845.86496     870.3786    17.988124    21.187633    21.945468           90           90           90 
 1994000    253.36361   -126.71491   -98.451818   -126.71491            0    -201.2281    17.890674     21.07285     21.82658            0            0            0    8228.7845   -1147.2019    260.07031    283.44732   -1510.8393    2158.5017   -1355.5153    17.890674     21.07285     21.82658           90           90           90 
 1994500    254.83945   -128.02385   -99.596122   -128.02385            0    608.34767    17.949943    21.142661    21.898888            0            0            0    8310.8374    1703.1054    299.18673   -177.24911   -625.67026   -901.32647    1361.0774    17.949943    21.142661    21.898888           90           90           90 
 1995000    247.33374   -126.59068   -99.000233   -126.59068            0   -2970.4435     18.00039    21.202081    21.960434            0            0            0     8381.106   -1760.8166    -4210.008    -2940.506   -351.27911    931.63229    -1740.152     18.00039    21.202081    21.960434           90           90           90 
 1995500     257.6158   -128.91653    -100.1791   -128.91653            0    2593.5286    17.950916    21.143807    21.900075            0            0            0    8312.1893    897.15977    3079.1937    3804.2322    563.50062    182.10076    -297.2901    17.950916    21.143807    21.900075           90           90           90 
 1996000    262.59779   -128.47247   -99.179291   -128.47247            0     705.6525    18.021439    21.226874    21.986114            0            0            0    8410.5422    2312.1077    804.30192   -999.45215   -1087.0904    2113.2278   -1347.3641    18.021439    21.226874    21.986114           90           90           90 
 1996500    269.19308   -128.12444   -98.095546   -128.12444            0    2682.8197    18.016853    21.221471    21.980517            0            0            0    8404.1216    4021.3745    2260.7798    1766.3048   -1879.8519   -1521.6138    844.26195    18.016853    21.221471    21.980517           90           90           90 
 1997000    259.76352   -128.02808   -99.051066   -128.02808            0   -517.41865    18.071669    21.286038    22.047394            0            0            0    8481.0645    85.746076   -278.26976   -1359.7323   -1728.4952   -53.983409    -195.8621    18.071669    21.286038    22.047394           90           90           90 
 1997500    262.39571   -128.26453   -98.993892   -128.26453            0    2116.7208    18.124257     21.34798    22.111551            0            0            0    8555.3186   -586.15265    1439.0392    5497.2758   -775.53707   -216.91538    1072.9576    18.124257     21.34798    22.111551           90           90           90 
 1998000    259.37465   -129.76023   -100.82659   -129.76023            0   -193.53822     18.09687    21.315722    22.078139            0            0            0    8516.5945   -442.62918    1280.4952   -1418.4807   -778.47496    1105.4818    1154.5385     18.09687    21.315722    22.078139           90           90           90 
 1998500    250.90838   -128.30639   -100.31719   -128.30639            0    4123.9067    18.006475    21.209248    21.967857            0            0            0    8389.6077    4002.5607    4714.2043    3654.9552    2268.9321    928.67126   -1795.1339    18.006475    21.209248    21.967857           90           90           90 
 1999000    261.88388   -130.42464    -101.2111   -130.42464            0    1621.8519    18.071151    21.285428    22.046761            0            0            0    8480.3347    3638.6437    71.966223    1154.9459    2488.4567    1727.9677   -588.34604    18.071151    21.285428    22.046761           90           90           90 
 1999500    261.22353   -128.50535   -99.365468   -128.50535            0   -115.01116     18.11587    21.338101    22.101318            0            0            0     8543.447   -1363.9806    1517.6853   -498.73816   -631.48309    479.05626   -670.46313     18.11587    21.338101    22.101318           90           90           90 
 2000000    256.22745   -127.76197    -99.17941   -127.76197            0   -3382.9321    18.087583    21.304783    22.066809            0            0            0    8503.4897    -5048.417   -3290.3336   -1810.0455    1505.0011   -369.83726   -384.96255    18.087583    21.304783    22.066809           90           90           90 
Loop time of 10801.4 on 1 procs for 2000000 steps with 864 atoms

Performance: 7.999 ns/day, 3.000 hours/ns, 185.162 timesteps/s
73.9% CPU use with 1 MPI tasks x 1 OpenMP threads

MPI task timing breakdown:
Section |  min time  |  avg time  |  max time  |%varavg| %total
---------------------------------------------------------------
Pair    | 9384.8     | 9384.8     | 9384.8     |   0.0 | 86.89
Bond    | 0.29228    | 0.29228    | 0.29228    |   0.0 |  0.00
Neigh   | 1275.6     | 1275.6     | 1275.6     |   0.0 | 11.81
Comm    | 44.106     | 44.106     | 44.106     |   0.0 |  0.41
Output  | 24.987     | 24.987     | 24.987     |   0.0 |  0.23
Modify  | 62.917     | 62.917     | 62.917     |   0.0 |  0.58
Other   |            | 8.651      |            |       |  0.08

Nlocal:        864.000 ave         864 max         864 min
Histogram: 1 0 0 0 0 0 0 0 0 0
Nghost:        4077.00 ave        4077 max        4077 min
Histogram: 1 0 0 0 0 0 0 0 0 0
Neighs:         0.00000 ave           0 max           0 min
Histogram: 1 0 0 0 0 0 0 0 0 0
FullNghs:      188378.0 ave      188378 max      188378 min
Histogram: 1 0 0 0 0 0 0 0 0 0

Total # of neighbors = 188378
Ave neighs/atom = 218.03009
Ave special neighs/atom = 0.0000000
Neighbor list builds = 200000
Dangerous builds not checked

unfix		3
unfix		2

write_data	data.final.${pid}
write_data	data.final.0
System init for write_data ...

write_restart   restart.lmp.${pid}
write_restart   restart.lmp.0
System init for write_restart ...
Unloading pair style deepmd
Unloading compute style deepmd
Unloading fix style deepmd
Total wall time: 3:00:09
