LAMMPS data file via write_data, version 29 Sep 2021, timestep = 400000

864 atoms
2 atom types

0.21410067316882397 17.993472326829682 xlo xhi
0.21193358367420956 23.417243416326393 ylo yhi
0.07372365083345933 22.13947234916829 zlo zhi

Masses

1 1.008
2 15.999

Atoms # full

706 0 1 -1.1794 2.7722659654931987 2.0234941321132704 3.1483733366383384 0 0 0
708 0 2 0.5897 2.0701480200921054 2.668883067406353 3.0076128685558596 0 0 0
707 0 2 0.5897 3.0202504035457856 2.0431947053813375 4.109272385944482 0 0 0
1 0 1 -1.1794 0.5876663378417732 3.1577739713922397 2.0906724882575842 0 0 0
3 0 2 0.5897 0.3383296984061657 4.05203874347694 2.203401200657992 0 0 0
188 0 2 0.5897 2.520529646803271 0.5494619389215961 2.305151204314691 0 0 0
29 0 2 0.5897 4.089791744571431 2.5830833013994963 2.244809123836373 0 0 0
20 0 2 0.5897 0.9718332384082353 3.275692057318796 0.30568606554895916 0 0 0
30 0 2 0.5897 4.695811751017089 3.9835239473059785 2.1455978242582843 0 0 0
28 0 1 -1.1794 4.8079663383166755 3.078857457990472 1.7606749907912171 0 0 0
493 0 1 -1.1794 7.025077838654065 2.140708625974611 3.004723390414266 0 0 0
494 0 2 0.5897 6.129357557479171 2.471008743897719 2.659366750870118 0 0 0
495 0 2 0.5897 7.727616591000154 2.5606144962738586 2.4749818573790967 0 0 0
819 0 2 0.5897 6.99485094620443 0.47068707314283004 2.575891557061523 0 0 0
750 0 2 0.5897 9.4651477974019 3.5616493118525834 0.8838050390101089 0 0 0
748 0 1 -1.1794 9.13446550554283 3.3325488000823085 1.7613222862620406 0 0 0
749 0 2 0.5897 9.42277134366723 4.044231262215583 2.363793927473163 0 0 0
106 0 1 -1.1794 11.365206571568423 1.8856038192159321 3.021858111160174 0 0 0
108 0 2 0.5897 10.648245527083668 2.376740001061271 2.565123072879217 0 0 0
107 0 2 0.5897 11.305166776898316 1.9696721270208049 4.011749272832045 0 0 0
63 0 2 0.5897 11.563416512726107 0.2502978794372975 2.461425876306447 0 0 0
215 0 2 0.5897 12.634684401912219 3.0478855863057097 2.682805899779334 0 0 0
214 0 1 -1.1794 13.492399609725002 3.4660731443732065 2.393528633319445 0 0 0
216 0 2 0.5897 13.475704106293737 4.404823336258272 2.568646328342209 0 0 0
2 0 2 0.5897 17.589886537244546 2.669305576669238 2.326590160151902 0 0 0
406 0 1 -1.1794 16.027166793159743 1.8319559174500486 2.936374583315472 0 0 0
407 0 2 0.5897 15.966728633883072 0.9395618535320693 2.534883543675951 0 0 0
408 0 2 0.5897 15.197811818844155 2.276140291244173 2.79754738331994 0 0 0
369 0 2 0.5897 13.90650878141347 3.0532754974029674 0.7732425655779119 0 0 0
123 0 2 0.5897 2.7639143341526142 8.458037301924934 2.9479835146165287 0 0 0
253 0 1 -1.1794 2.748100304674616 7.090511045964964 2.151049201416417 0 0 0
254 0 2 0.5897 2.895486323556474 7.007365143057887 1.1541428699913516 0 0 0
255 0 2 0.5897 1.9030300153128819 6.609342646728167 2.3796451899697337 0 0 0
595 0 1 -1.1794 0.519383849730267 5.831055761671955 3.0224369446459534 0 0 0
597 0 2 0.5897 0.47353056559110124 5.581443801086941 3.9609313451927126 0 0 0
138 0 2 0.5897 4.340327947464959 6.118464768391618 2.7677521155047526 0 0 0
121 0 1 -1.1794 2.7802664587903916 9.41184664007057 3.2661263438517336 0 0 0
122 0 2 0.5897 3.0390478799738925 9.437035676828273 4.224059113832758 0 0 0
136 0 1 -1.1794 5.163454786065729 5.624567241117714 2.93508243287532 0 0 0
65 0 2 0.5897 7.771506679051529 8.283135448750496 2.962217827237641 0 0 0
415 0 1 -1.1794 7.648659316795733 6.539710895499681 2.337298868003533 0 0 0
416 0 2 0.5897 6.820279198936574 6.0945320984194 2.655205573349285 0 0 0
417 0 2 0.5897 8.386831171280654 6.127890553829266 2.7795076581334754 0 0 0
137 0 2 0.5897 5.192084994138301 5.408227490340042 3.8654015668672286 0 0 0
162 0 2 0.5897 7.360407734866611 7.007989818595607 0.1695181866842052 0 0 0
64 0 1 -1.1794 7.650556315085417 9.214147308529302 3.129214907120059 0 0 0
66 0 2 0.5897 7.676138378293454 9.407469402343404 4.0586043351084795 0 0 0
190 0 1 -1.1794 11.473962531122117 7.016300822104534 1.89555667677748 0 0 0
191 0 2 0.5897 11.368852372055613 7.122427675363382 0.9507049197540842 0 0 0
192 0 2 0.5897 11.609347704687808 7.911190903909742 2.1844631794795117 0 0 0
298 0 1 -1.1794 10.115635711973743 5.169020633000909 3.391659819350242 0 0 0
299 0 2 0.5897 10.609271673353852 5.907414233753284 3.050208697196435 0 0 0
300 0 2 0.5897 9.936331716366777 5.300752137138596 4.324477267781676 0 0 0
110 0 2 0.5897 13.127842060134057 6.446372855216613 2.227488187342683 0 0 0
92 0 2 0.5897 12.10334176984913 9.373396371200908 3.9212914860639727 0 0 0
596 0 2 0.5897 17.502290409675382 6.377849413837163 2.6992153441576687 0 0 0
109 0 1 -1.1794 13.754651546125542 6.09601673522778 2.8584640927838283 0 0 0
111 0 2 0.5897 14.622020328078635 6.2586053679223275 2.496930505580472 0 0 0
838 0 1 -1.1794 16.39038988557757 7.227796934667812 1.9157913980482464 0 0 0
839 0 2 0.5897 16.27581062235197 8.036469966127068 2.401605892214268 0 0 0
840 0 2 0.5897 16.54028385796243 7.385657707433301 0.9752310155603803 0 0 0
44 0 2 0.5897 1.7200791991929925 10.541618677511869 2.743360171806582 0 0 0
373 0 1 -1.1794 1.0079922436478133 13.72492052029554 3.194440775211986 0 0 0
374 0 2 0.5897 1.1150532045078974 13.857449509456053 4.118603418361836 0 0 0
45 0 2 0.5897 1.064929398350547 11.996971424162123 2.603712475975466 0 0 0
43 0 1 -1.1794 1.0070426426815096 11.063240198438432 2.353820028686257 0 0 0
219 0 2 0.5897 4.598123167838461 10.364248308029556 2.8143867109435985 0 0 0
173 0 2 0.5897 4.657660028887582 13.908805438198442 2.4446450101195953 0 0 0
557 0 2 0.5897 2.431199011880717 13.992888753275727 2.334792803619944 0 0 0
396 0 2 0.5897 1.0649130582843258 11.47970554484694 0.5263099951877889 0 0 0
174 0 2 0.5897 5.320610619376149 12.470081387910513 2.8323471194985164 0 0 0
172 0 1 -1.1794 5.252450080398077 13.437708144077417 3.0810102318640826 0 0 0
217 0 1 -1.1794 5.3908475044431725 10.701977768720916 2.4086254328004166 0 0 0
218 0 2 0.5897 6.1355703224529865 10.165197565289501 2.691539242236396 0 0 0
363 0 2 0.5897 5.580553267311686 10.889500291694565 0.687101170175573 0 0 0
773 0 2 0.5897 8.928104703656915 10.249841396748895 2.31413834806979 0 0 0
480 0 2 0.5897 6.955311430008486 13.959251756294323 2.443096607388056 0 0 0
91 0 1 -1.1794 12.075032002980084 9.659173836464804 2.9394296071636914 0 0 0
774 0 2 0.5897 9.819528856364313 10.720702182720155 1.0228678362628618 0 0 0
772 0 1 -1.1794 9.747612453160002 10.724339948095151 2.0029777283463908 0 0 0
93 0 2 0.5897 11.164907868168182 9.963322991586669 2.8185850803336563 0 0 0
154 0 1 -1.1794 9.955545621934224 13.23489224934031 2.8221413739699583 0 0 0
156 0 2 0.5897 9.938987043055107 12.29445840320719 2.6911822239416963 0 0 0
155 0 2 0.5897 10.727223274168207 13.651625404640937 2.351180230820806 0 0 0
860 0 2 0.5897 13.522307581202503 10.445658494266397 2.3643805306284085 0 0 0
842 0 2 0.5897 16.703681444069467 9.642692571301794 4.149275075936351 0 0 0
841 0 1 -1.1794 16.527674294222493 9.59141318957738 3.200225023669186 0 0 0
57 0 2 0.5897 14.361782385708091 12.778592016763406 2.8292219123403055 0 0 0
56 0 2 0.5897 14.41897925694331 13.688626849018783 4.044215070826754 0 0 0
859 0 1 -1.1794 14.308275031574018 11.010618750638175 2.2082510211170123 0 0 0
55 0 1 -1.1794 14.333438924465737 13.7129240435576 3.0766698472979064 0 0 0
843 0 2 0.5897 17.32964731345332 10.030741535896787 2.872547677161639 0 0 0
861 0 2 0.5897 15.121417653055513 10.557537366184278 2.4684887893554106 0 0 0
152 0 2 0.5897 14.53094569901016 11.068365880159634 0.27323783326439655 0 0 0
558 0 2 0.5897 2.867174103686158 14.39830383803395 0.8587472825944732 0 0 0
556 0 1 -1.1794 3.212808136972792 14.262612952200216 1.7334964027517878 0 0 0
292 0 1 -1.1794 2.667213080354119 17.15947658782073 2.9339554080891883 0 0 0
293 0 2 0.5897 2.807910499377508 16.226860749367372 2.699477011663335 0 0 0
294 0 2 0.5897 3.1142829769374005 17.22417687999451 3.802954838168423 0 0 0
344 0 2 0.5897 1.490977900548073 18.197206047995863 1.9263579075112565 0 0 0
345 0 2 0.5897 0.5435426265298626 18.688987960048046 0.8400409233147217 0 0 0
343 0 1 -1.1794 0.6695818572364667 18.599981846116197 1.7761775467532797 0 0 0
227 0 2 0.5897 4.131681551778559 18.06900777817679 2.1813411154735283 0 0 0
479 0 2 0.5897 8.465620856281246 14.13583062159287 2.2620520834876734 0 0 0
448 0 1 -1.1794 7.0545270021234705 17.11389654084236 3.173370817014186 0 0 0
449 0 2 0.5897 7.045392441547203 16.226782674610938 2.79678343018981 0 0 0
450 0 2 0.5897 6.221181233182321 17.532325332738537 2.893781575087567 0 0 0
478 0 1 -1.1794 7.607432710758224 14.576315831519382 2.148837883827984 0 0 0
317 0 2 0.5897 7.570670152625074 15.211682870197013 0.442694158296215 0 0 0
602 0 2 0.5897 4.9207917029391615 18.58982775082187 0.19532612204186445 0 0 0
226 0 1 -1.1794 5.000512270894068 18.510576361504498 2.006039334963181 0 0 0
321 0 2 0.5897 8.630024177518436 18.098959627518717 2.6281684205866327 0 0 0
560 0 2 0.5897 12.835305133817831 14.707002980475552 2.3748036499464273 0 0 0
559 0 1 -1.1794 12.05561419914645 14.969335207141516 1.8315231467358295 0 0 0
320 0 2 0.5897 10.156891804306177 18.074544343065398 2.3605738620032817 0 0 0
561 0 2 0.5897 12.420326367675024 14.836316115463465 0.9010053461753397 0 0 0
832 0 1 -1.1794 11.558235505278079 17.56236622664432 2.9708224098479943 0 0 0
833 0 2 0.5897 12.294871101703984 18.097658504395266 2.5890089298823225 0 0 0
834 0 2 0.5897 11.56307105627491 16.678670059566286 2.5181789203001532 0 0 0
319 0 1 -1.1794 9.269902859325327 18.507465562036593 2.083710023775114 0 0 0
389 0 2 0.5897 9.656472981144507 18.383347406804013 0.3241256788228266 0 0 0
375 0 2 0.5897 17.989012431774178 14.208662895860892 2.929753537823685 0 0 0
179 0 2 0.5897 15.836979376998942 14.39441154021288 2.328687235981885 0 0 0
178 0 1 -1.1794 16.590303615461842 14.971536015229125 2.1856997380551233 0 0 0
180 0 2 0.5897 16.375433083972894 15.77131755090805 2.6604796115947007 0 0 0
745 0 1 -1.1794 16.32167100865381 17.517876291958004 3.0127119254287016 0 0 0
746 0 2 0.5897 17.15561532586524 17.9686291314142 2.619429004423771 0 0 0
747 0 2 0.5897 15.471455722126283 17.90779983991371 2.705893858246788 0 0 0
614 0 2 0.5897 16.211577800689263 15.005361438991256 0.5667039706517882 0 0 0
304 0 1 -1.1794 14.024484920806966 18.653011808997768 2.0006201671893162 0 0 0
187 0 1 -1.1794 2.6889717940725277 22.840585607165487 2.029314420693625 0 0 0
189 0 2 0.5897 2.731483278158361 22.77271805173191 1.0694903950271293 0 0 0
696 0 2 0.5897 1.1390669419530763 21.895334589368872 2.6885605019146137 0 0 0
694 0 1 -1.1794 0.485844653078535 21.1776646991082 2.8361822966140013 0 0 0
695 0 2 0.5897 0.8570997453935711 20.342300266911856 2.5073424071369392 0 0 0
266 0 2 0.5897 4.204555006552585 21.991493719866007 2.532389288228549 0 0 0
265 0 1 -1.1794 4.887265356059071 21.33464052760747 2.800623925948129 0 0 0
228 0 2 0.5897 5.021916002298989 19.403326361396644 2.2944372136290703 0 0 0
267 0 2 0.5897 5.7056333077393555 21.73548470858034 2.48036870893019 0 0 0
817 0 1 -1.1794 7.12065219598547 22.713664344585556 2.30263204079173 0 0 0
818 0 2 0.5897 8.020709340055319 22.302360053891974 2.440759334349417 0 0 0
498 0 2 0.5897 7.414718767259147 22.307815615557914 0.25166204012372934 0 0 0
397 0 1 -1.1794 9.50295555242971 21.14973370394264 2.6054318187252936 0 0 0
61 0 1 -1.1794 11.691256937094638 22.578832829716152 2.020800755391439 0 0 0
398 0 2 0.5897 9.464057877390692 20.214132965546906 2.334594622941702 0 0 0
399 0 2 0.5897 10.32496840715455 21.500758663889194 2.261877474752012 0 0 0
62 0 2 0.5897 12.565426923181834 22.239977433402977 2.3271134248487466 0 0 0
425 0 2 0.5897 11.525037807107086 22.730951949927178 0.35623466209437676 0 0 0
591 0 2 0.5897 9.431554748569011 21.316484424565473 4.431019003180456 0 0 0
305 0 2 0.5897 14.105152503633457 18.872206057199122 1.039059374231383 0 0 0
306 0 2 0.5897 14.072845272374076 19.464702036035124 2.498282474940439 0 0 0
729 0 2 0.5897 16.85233727803964 22.113326895184372 2.4124004263317707 0 0 0
118 0 1 -1.1794 13.904755481704985 21.23305554959236 2.820765497486087 0 0 0
120 0 2 0.5897 14.766007866510074 21.633040731977612 2.519832209681894 0 0 0
727 0 1 -1.1794 16.076028084273204 22.52700527123482 1.953008684197658 0 0 0
728 0 2 0.5897 16.17355022886845 22.35830160430018 1.0003590800524675 0 0 0
119 0 2 0.5897 13.961360439941766 21.4546107418226 3.7544490763252547 0 0 0
487 0 1 -1.1794 3.1298638361212436 1.7437088134254568 5.898755421624707 0 0 0
488 0 2 0.5897 2.3533728902670967 2.2246687603720834 6.250860741867058 0 0 0
489 0 2 0.5897 3.1063299958024015 0.8135886163040076 6.21350041889444 0 0 0
784 0 1 -1.1794 0.7793455652201823 2.78936282381213 6.692113994176939 0 0 0
785 0 2 0.5897 0.783764471095839 3.084014641121861 7.620198938003409 0 0 0
83 0 2 0.5897 4.616217079399034 2.493216621046903 6.52247785796171 0 0 0
183 0 2 0.5897 0.9501642692350737 4.497314848076668 5.9185003951287705 0 0 0
846 0 2 0.5897 7.302064150940162 1.8423167657203112 4.776624276412044 0 0 0
82 0 1 -1.1794 5.425942721482531 2.8645320653269017 6.952220570504461 0 0 0
84 0 2 0.5897 6.165951396699185 2.4606844671934804 6.447571407655912 0 0 0
844 0 1 -1.1794 7.510434302877719 1.7632699455431682 5.72966585616815 0 0 0
845 0 2 0.5897 7.46461295733182 0.8321504831177351 5.958672165634801 0 0 0
275 0 2 0.5897 5.30772840072629 3.114528527035698 8.677022469245053 0 0 0
419 0 2 0.5897 8.716631962760784 2.724363314580763 6.668603747032966 0 0 0
686 0 2 0.5897 5.265466631328718 4.810380784764414 6.262914038068858 0 0 0
177 0 2 0.5897 9.41915090956905 3.131450194040622 8.824727238730208 0 0 0
420 0 2 0.5897 9.405660580985344 4.13440674152009 6.701956838679062 0 0 0
418 0 1 -1.1794 9.497229728370558 3.214466555689077 6.994161245519705 0 0 0
802 0 1 -1.1794 11.736397013404666 2.0582476303580792 5.704776505472641 0 0 0
803 0 2 0.5897 11.068250435351885 2.6645950181874882 6.032569539635745 0 0 0
804 0 2 0.5897 12.620306053898904 2.438721765654819 5.824961065852076 0 0 0
171 0 2 0.5897 11.729321622633327 0.26742960908213087 5.8833114304493925 0 0 0
660 0 2 0.5897 16.141576847526874 1.6553710204862442 4.728531989756419 0 0 0
786 0 2 0.5897 17.68755700741948 2.4719270246994864 6.421083852757656 0 0 0
436 0 1 -1.1794 14.112659073951876 3.256722953831179 6.710667832565469 0 0 0
437 0 2 0.5897 14.170041847708013 3.2606677124163337 7.702976050216932 0 0 0
438 0 2 0.5897 14.746569662103745 2.6945511291875524 6.302350509050353 0 0 0
658 0 1 -1.1794 16.198419897718757 1.7277738976487234 5.690310186127226 0 0 0
659 0 2 0.5897 16.247911181004525 0.8376383377607932 6.073916340269858 0 0 0
732 0 2 0.5897 14.538417517227568 4.7058425927898755 5.844109207266322 0 0 0
10 0 1 -1.1794 3.028194739083082 6.901729443582208 6.7028030908632035 0 0 0
11 0 2 0.5897 2.2819823420531837 6.437276886131242 6.3273885389063595 0 0 0
12 0 2 0.5897 3.1507844936669094 7.785360938972762 6.318150813571679 0 0 0
181 0 1 -1.1794 0.9033226408198939 5.423795690585468 5.680025180472706 0 0 0
650 0 2 0.5897 3.035097015337735 6.892643943648228 8.445095996615162 0 0 0
687 0 2 0.5897 4.435494352943416 6.086825022353554 6.008961295684369 0 0 0
685 0 1 -1.1794 5.2172048631221015 5.601395999251779 5.672338104513654 0 0 0
145 0 1 -1.1794 7.502870305290767 6.924536626516552 6.7950033903125 0 0 0
146 0 2 0.5897 6.8232451361918605 6.267128743062597 6.523694406552866 0 0 0
147 0 2 0.5897 7.595448686022536 6.891504765849353 7.771498783925468 0 0 0
714 0 2 0.5897 7.530000184220299 8.42440444545121 6.192652921164363 0 0 0
165 0 2 0.5897 8.89609002099193 6.1861928784319975 6.186824211551827 0 0 0
712 0 1 -1.1794 7.654420409880722 9.331233883104513 5.889938724848232 0 0 0
163 0 1 -1.1794 9.740173912191294 5.8058490691877145 5.906464429750864 0 0 0
164 0 2 0.5897 10.467054270938217 6.296287483128541 6.320205332457422 0 0 0
230 0 2 0.5897 12.282640520559356 8.421695021770363 6.1112646945840865 0 0 0
391 0 1 -1.1794 12.09719716225874 6.872849331711036 6.606148010714069 0 0 0
392 0 2 0.5897 12.27072548761243 6.924174176971342 7.574398685598854 0 0 0
393 0 2 0.5897 12.893415954550994 6.443233359423028 6.229075227692931 0 0 0
229 0 1 -1.1794 12.277564554478777 9.260327450859746 5.593362050463924 0 0 0
182 0 2 0.5897 17.94468432630913 5.937674537700225 6.149524789598145 0 0 0
731 0 2 0.5897 14.428343780458839 5.862621434858995 4.682973424274833 0 0 0
730 0 1 -1.1794 14.36861254431261 5.63470680871829 5.606018309548818 0 0 0
525 0 2 0.5897 16.586661018275407 8.741026461489964 6.057938381204774 0 0 0
541 0 1 -1.1794 16.76811213124698 6.925236234831534 6.674369667389476 0 0 0
542 0 2 0.5897 15.986175075413026 6.5370202245236495 6.247472120149936 0 0 0
543 0 2 0.5897 16.495641456667897 7.08037321540939 7.616796595393477 0 0 0
793 0 1 -1.1794 3.2128643771629677 9.687988955922364 5.972207843031748 0 0 0
795 0 2 0.5897 4.10105229652692 9.95483651161621 6.259381960313578 0 0 0
550 0 1 -1.1794 0.8164144137596442 11.181610054152763 6.8881701700941464 0 0 0
551 0 2 0.5897 0.8193096730963095 11.204055302397524 7.859475174891284 0 0 0
794 0 2 0.5897 2.5316822497379596 10.185666579121463 6.4604206757640625 0 0 0
552 0 2 0.5897 0.8899671544060813 12.092022968486178 6.5913985843317535 0 0 0
655 0 1 -1.1794 1.2356193441241914 13.955087325428643 5.973437640645495 0 0 0
200 0 2 0.5897 5.205127151227592 13.46576311819367 4.777226212537154 0 0 0
713 0 2 0.5897 8.62062355331352 9.520076909513874 5.975916179219415 0 0 0
577 0 1 -1.1794 5.581733348364574 10.757671615029391 6.848077609222344 0 0 0
578 0 2 0.5897 6.399787513231547 10.356816241009215 6.5564995141096025 0 0 0
579 0 2 0.5897 5.481920865099656 11.67918673973518 6.456626271826851 0 0 0
582 0 2 0.5897 5.320704835358914 10.742024504098644 8.628153612034456 0 0 0
199 0 1 -1.1794 5.334855721778807 13.353806407337025 5.759720722649558 0 0 0
201 0 2 0.5897 6.033918212666112 13.871765315571004 6.098625917944351 0 0 0
519 0 2 0.5897 8.013861687933794 13.614588551054386 6.443877992609822 0 0 0
806 0 2 0.5897 9.822245006972363 13.244385461698055 4.813894908414815 0 0 0
807 0 2 0.5897 9.846089987820637 12.05721930246387 5.7814884725819695 0 0 0
805 0 1 -1.1794 9.772378989948356 13.036264924069245 5.767627762796281 0 0 0
231 0 2 0.5897 13.022787586402847 9.82652182900453 6.009323237655641 0 0 0
739 0 1 -1.1794 10.128131200652126 10.550746190079781 6.45680709654448 0 0 0
741 0 2 0.5897 10.307715235625297 10.795465198691415 7.352873734125221 0 0 0
740 0 2 0.5897 10.9040776264941 9.962231490652623 6.241942779737044 0 0 0
642 0 2 0.5897 11.22096149052771 13.852393645247197 6.6747800615674855 0 0 0
523 0 1 -1.1794 16.534771872158764 9.70776962194801 5.8485705107838655 0 0 0
724 0 1 -1.1794 14.431487624417134 13.82483956580165 5.792772584886151 0 0 0
636 0 2 0.5897 14.25445916815799 12.124016668175235 6.092078470469 0 0 0
524 0 2 0.5897 17.249872076302793 10.16758196050523 6.316957744187414 0 0 0
634 0 1 -1.1794 14.151609808161803 11.222972926655256 6.4744050606246155 0 0 0
635 0 2 0.5897 14.985940080245705 10.718040046796931 6.323108464884671 0 0 0
857 0 2 0.5897 13.860027944043212 11.002358843331423 8.249861151604714 0 0 0
726 0 2 0.5897 13.626425308509575 14.049903814150891 6.2338386483050545 0 0 0
656 0 2 0.5897 1.940123969093256 14.559456794678372 6.191955615892382 0 0 0
18 0 2 0.5897 4.252192718832739 14.45590298084591 6.592128339055457 0 0 0
657 0 2 0.5897 0.42295871778217675 14.351861436246336 6.303260509298343 1 0 0
16 0 1 -1.1794 3.7587334749561316 15.245924365814776 6.844033939936277 0 0 0
17 0 2 0.5897 3.724670809565903 15.21818125346565 7.805071758133186 0 0 0
238 0 1 -1.1794 3.6810248574746383 17.45183438513113 5.533604046136158 0 0 0
239 0 2 0.5897 3.763566054628339 16.657960326585812 6.05326957057792 0 0 0
240 0 2 0.5897 4.517270987355701 17.92208330272932 5.615695787645373 0 0 0
341 0 2 0.5897 2.1533095531906477 18.24959885372207 6.269167189135817 0 0 0
340 0 1 -1.1794 1.3119906325101474 18.609159002949998 6.544605599055124 0 0 0
342 0 2 0.5897 1.2402781098542262 18.58670940142537 7.5215685428030135 0 0 0
308 0 2 0.5897 7.836625177708207 16.728667595748217 4.696680189854457 0 0 0
517 0 1 -1.1794 7.516018836471004 14.317062024237988 6.853693569966526 0 0 0
307 0 1 -1.1794 8.022264684591804 16.751913645962915 5.671866549777673 0 0 0
309 0 2 0.5897 8.885646600438761 17.101889544856135 5.783187370242935 0 0 0
518 0 2 0.5897 7.7643532602101555 15.139880849008977 6.315065854367562 0 0 0
378 0 2 0.5897 7.60365966386916 14.73100307846289 8.612318563870078 0 0 0
386 0 2 0.5897 6.571118352220589 18.081398025638713 5.950564701091609 0 0 0
102 0 2 0.5897 6.308697282826706 18.318697646394114 8.2756728623355 0 0 0
385 0 1 -1.1794 5.873958339089117 18.546909820359325 6.451713582380486 0 0 0
645 0 2 0.5897 12.263013808621745 16.957187600636843 4.7321666715519735 0 0 0
640 0 1 -1.1794 11.965540172313316 14.490201167630833 6.840170679383033 0 0 0
641 0 2 0.5897 12.13091166106533 14.54333674405486 7.784101668242491 0 0 0
643 0 1 -1.1794 12.41732533122363 17.011341203513943 5.682557445668424 0 0 0
644 0 2 0.5897 12.333106129954208 16.090426045977544 5.992792530454763 0 0 0
303 0 2 0.5897 11.0678171998408 18.39904923126401 6.091093304171419 0 0 0
734 0 2 0.5897 10.586933408455497 18.46365513515981 8.215810130310894 0 0 0
301 0 1 -1.1794 10.28856064275703 18.63517183608403 6.600705730865747 0 0 0
348 0 2 0.5897 13.743754620043381 17.90448058969511 6.300863036814092 0 0 0
725 0 2 0.5897 15.04983761477308 14.520892741901516 6.1604982839977405 0 0 0
564 0 2 0.5897 16.738182433681516 17.71821493958847 4.622092682818975 0 0 0
205 0 1 -1.1794 16.507308904473604 15.368003180874146 6.727310821749134 0 0 0
206 0 2 0.5897 16.494039977196977 16.279510254146814 6.476295514652734 0 0 0
207 0 2 0.5897 16.445334393280696 15.295302321563506 7.704862264973468 0 0 0
347 0 2 0.5897 15.219097117613995 18.480170648078207 6.1602354202653045 0 0 0
562 0 1 -1.1794 16.756449550624872 17.810998143227298 5.622594501375356 0 0 0
563 0 2 0.5897 17.605967629443633 18.18096237042342 5.891619403564004 0 0 0
346 0 1 -1.1794 14.380259136998708 18.55970982567742 6.636049887699961 0 0 0
371 0 2 0.5897 14.589772660457745 18.336330816315524 8.569897681608003 0 0 0
413 0 2 0.5897 0.9590180354613285 21.167625822419165 4.6609367447587555 0 0 0
700 0 1 -1.1794 3.1630737045826645 22.42821053016153 6.905217507730496 0 0 0
701 0 2 0.5897 2.9127678703390454 22.37452369415187 7.835349339575373 0 0 0
702 0 2 0.5897 2.386526546776055 21.98443270136903 6.49681423815019 0 0 0
414 0 2 0.5897 1.158231064455895 20.319845501530917 5.84693876139686 0 0 0
412 0 1 -1.1794 1.0843736535539654 21.257628645134464 5.579402470704275 0 0 0
248 0 2 0.5897 4.674845706701433 21.587702303337913 6.132218650359891 0 0 0
249 0 2 0.5897 5.069081705083697 21.12560810690637 4.72258351440537 0 0 0
247 0 1 -1.1794 5.315034132081558 21.0520093990711 5.628599536805434 0 0 0
31 0 1 -1.1794 7.540140529143992 22.339462539021618 6.509915352514719 0 0 0
32 0 2 0.5897 8.40833207892739 21.98512528102328 6.135946788267987 0 0 0
33 0 2 0.5897 6.848706813076301 21.787259318531977 6.119502205638533 0 0 0
387 0 2 0.5897 5.805656083400273 19.438344219287952 6.180153195340928 0 0 0
86 0 2 0.5897 7.484285931565645 22.516703656193148 8.113281387736116 0 0 0
169 0 1 -1.1794 11.750070986828254 22.525310599000758 6.191538934040457 0 0 0
170 0 2 0.5897 12.631089214695134 22.13439049072095 6.104270097187887 0 0 0
302 0 2 0.5897 9.862718328135685 19.466002223450047 6.278219727622357 0 0 0
330 0 2 0.5897 11.719160185127517 22.507753202610335 7.905929592166456 0 0 0
589 0 1 -1.1794 9.586343248734146 21.06625199507219 5.367482631796973 0 0 0
590 0 2 0.5897 10.352852092204978 21.645737184933374 5.607701617472851 0 0 0
328 0 1 -1.1794 11.927543361555122 22.45518809032917 8.864367265966697 0 0 0
534 0 2 0.5897 14.027777944869504 20.25236809669953 6.392684810683242 0 0 0
352 0 1 -1.1794 16.512526746540082 22.414091987717175 6.880362075862025 0 0 0
353 0 2 0.5897 17.264824112878443 22.12137674448876 6.426000976477553 0 0 0
354 0 2 0.5897 16.67281499874941 22.36150033052174 7.868717742420451 0 0 0
532 0 1 -1.1794 14.064204725587091 21.06949865822768 5.84055975532646 0 0 0
533 0 2 0.5897 14.966971101955817 21.4835957705117 5.9056025690401635 0 0 0
34 0 1 -1.1794 0.8808197150431539 3.676500951107909 9.329907354960024 0 0 0
35 0 2 0.5897 1.0528784888314968 4.604607441818642 9.669994800886013 0 0 0
36 0 2 0.5897 1.543501911583428 3.116871083005445 9.78710493835863 0 0 0
167 0 2 0.5897 2.7981693266559344 2.05514003134222 12.074905498393706 0 0 0
673 0 1 -1.1794 2.8032561583367617 1.7778194006347905 10.379032473576496 0 0 0
675 0 2 0.5897 2.72726644912275 0.8225305808082493 10.238507497928099 0 0 0
674 0 2 0.5897 3.607268418840147 2.1353110981181516 9.986070582250552 0 0 0
166 0 1 -1.1794 2.9671521155894345 1.9867858058910723 13.038755026331614 0 0 0
459 0 2 0.5897 4.56496705938248 2.81012101729997 13.248244159259903 0 0 0
274 0 1 -1.1794 5.128425957358145 3.1206957780887787 9.641705543465315 0 0 0
276 0 2 0.5897 5.86828319877816 2.6146144757961842 10.016656349222874 0 0 0
355 0 1 -1.1794 7.343678449810201 1.7601006082942667 10.434375210706166 0 0 0
356 0 2 0.5897 7.315860302989304 0.8316915302721484 10.142090423522776 0 0 0
357 0 2 0.5897 7.373599895528121 1.6336349337643739 11.367620907203948 0 0 0
592 0 1 -1.1794 7.416925514532167 1.4823004185195905 12.968229030411782 0 0 0
176 0 2 0.5897 8.757380070043991 2.587415570208496 10.058782616019455 0 0 0
458 0 2 0.5897 6.1597323736436635 2.737325675616832 13.252961574788095 0 0 0
175 0 1 -1.1794 9.50273082462732 3.1390254794795314 9.788625312898644 0 0 0
514 0 1 -1.1794 11.83562012532811 1.8452712025280453 10.466154365353662 0 0 0
515 0 2 0.5897 11.717582698936258 1.9109405328950853 11.413469244864597 0 0 0
516 0 2 0.5897 11.048164775722602 2.2807556404287856 10.042028430797306 0 0 0
757 0 1 -1.1794 11.589052225291889 1.8924374122879841 13.122947439820598 0 0 0
705 0 2 0.5897 9.698798652541953 4.772789642586538 10.38235786315158 0 0 0
849 0 2 0.5897 13.175299615465882 2.6071306991115573 10.00469340044529 0 0 0
652 0 1 -1.1794 16.639790843736243 2.0315957582170103 10.293214826687421 0 0 0
653 0 2 0.5897 16.592073977345706 2.0789887848594675 11.260465727699682 0 0 0
654 0 2 0.5897 17.26485554757722 2.7213503795877334 10.048718255035222 0 0 0
847 0 1 -1.1794 13.937913921912637 3.135087594334544 9.66001147983554 0 0 0
848 0 2 0.5897 14.698796456720025 2.5488063737487363 9.912226073522426 0 0 0
545 0 2 0.5897 14.444183995891354 4.679037485810525 10.143571437581324 0 0 0
131 0 2 0.5897 16.780769854178466 0.37154024860854473 9.71896107763239 0 0 0
439 0 1 -1.1794 16.37768892632716 2.1856926645110484 13.12312001140118 0 0 0
649 0 1 -1.1794 3.1135537069894133 6.830621500264399 9.387758961285602 0 0 0
112 0 1 -1.1794 0.8054437055974558 6.060214545507517 10.585840307792537 0 0 0
114 0 2 0.5897 1.733709839806614 6.328182629662157 10.301640483152683 0 0 0
257 0 2 0.5897 3.096887868281383 8.595547699671586 9.996921069878056 0 0 0
113 0 2 0.5897 0.7916388645515154 6.202538437414612 11.579503375941737 0 0 0
651 0 2 0.5897 4.042702371081509 6.765521805482121 9.635831395278625 0 0 0
678 0 2 0.5897 5.558885479651302 4.878779100067787 9.940158770377835 0 0 0
526 0 1 -1.1794 7.909143565263856 7.038754796058021 9.425061023158898 0 0 0
527 0 2 0.5897 7.948192443454139 7.929050231051918 9.84439644548164 0 0 0
676 0 1 -1.1794 5.561135409947898 5.834719220405077 10.153688538254112 0 0 0
677 0 2 0.5897 6.427460172530308 6.167493808017681 9.905832441578724 0 0 0
761 0 2 0.5897 5.350350228035036 5.857759372156225 12.016470384773987 0 0 0
528 0 2 0.5897 8.633204833500034 6.472563115628927 9.799644153140575 0 0 0
760 0 1 -1.1794 5.304648186576273 5.985738917022189 12.987526094299726 0 0 0
762 0 2 0.5897 5.327854794235884 5.038264657475531 13.302290571329324 0 0 0
313 0 1 -1.1794 12.097110639896028 6.965708716515462 9.378810729904895 0 0 0
314 0 2 0.5897 11.374525505156072 6.525868471696292 9.829159834374872 0 0 0
315 0 2 0.5897 12.856158097361268 6.372830737194117 9.604728296629926 0 0 0
444 0 2 0.5897 12.017320257072535 8.739387325327856 10.42893574145755 0 0 0
703 0 1 -1.1794 9.941251960014002 5.723010362492298 10.46942252503092 0 0 0
704 0 2 0.5897 9.984044884213304 5.955738762908298 11.417858139846533 0 0 0
815 0 2 0.5897 13.040625126156074 6.425736226539175 13.142003703600043 0 0 0
850 0 1 -1.1794 9.70904710303575 6.072397007549168 13.070598204457035 0 0 0
816 0 2 0.5897 13.96720212540935 5.964595880977252 11.901906160610414 0 0 0
623 0 2 0.5897 17.222495790602572 6.858565367319743 9.891922934082707 0 0 0
544 0 1 -1.1794 14.30866032703103 5.590631761240569 10.309883010560702 0 0 0
546 0 2 0.5897 15.102848821059679 6.068537090311713 10.038866423195808 0 0 0
622 0 1 -1.1794 16.367113972461702 7.185929973317171 9.538446719569226 0 0 0
624 0 2 0.5897 16.24808180583217 8.063435466698847 9.944935861790443 0 0 0
193 0 1 -1.1794 16.34205539959043 9.433467728815312 13.138490390502566 0 0 0
195 0 2 0.5897 16.320635300348172 9.41204533228428 12.179000115459823 0 0 0
814 0 1 -1.1794 13.896154307973315 5.988712701583591 12.862983749152518 0 0 0
256 0 1 -1.1794 3.0495744067288646 9.54841074582184 10.32840484542975 0 0 0
797 0 2 0.5897 2.651207960011292 9.659039367867761 11.98979084578296 0 0 0
796 0 1 -1.1794 2.509821342339775 9.84339375436329 12.932520430010387 0 0 0
258 0 2 0.5897 3.800963244998247 10.008680152438211 10.019827048359103 0 0 0
13 0 1 -1.1794 0.9620698246395347 10.929951018631154 9.634243475072246 0 0 0
14 0 2 0.5897 1.1021648608245709 11.910022732639012 9.852701575325016 0 0 0
15 0 2 0.5897 1.761287895044173 10.441294993602945 9.892535105023844 0 0 0
767 0 2 0.5897 0.7772845869362541 13.694613616275467 11.188446378458448 0 0 0
766 0 1 -1.1794 0.9563633626476372 13.613046772692218 10.24700301592917 0 0 0
637 0 1 -1.1794 1.0452485536195857 13.680269326490068 13.037203264608017 0 0 0
798 0 2 0.5897 1.7110465645954345 10.445642365261188 13.092009118141732 0 0 0
821 0 2 0.5897 7.56609579249596 9.9179978245621 11.25952306341625 0 0 0