LAMMPS (29 Sep 2021 - Update 2)
  using 1 OpenMP thread(s) per MPI task
plugin load libdeepmd_lmp.so
Loading plugin: deepmd pair style v2.0 by Han Wang
Loading plugin: compute deeptensor/atom v2.0 by Han Wang
Loading plugin: fix dplr v2.0 by Han Wang
echo both

include		in.partitions
variable        pid world 0
include		in.temp
variable        temperature equal 245
variable        tempDamp equal 0.100
include		in.pressure
variable        pressure equal 1973.846
variable        pressureDamp equal 1.0 # This is 1 ps
include		in.seed
variable        seed world 745823

units           metal
atom_style	full
include		in.box
read_data       water.data
Reading data file ...
  orthogonal box = (0.0000000 0.0000000 0.0000000) to (18.207573 23.629177 22.213196)
  1 by 1 by 1 MPI processor grid
  reading atoms ...
  864 atoms
  reading velocities ...
  864 velocities
Finding 1-2 1-3 1-4 neighbors ...
  special bond factors lj:    0        0        0       
  special bond factors coul:  0        0        0       
     0 = max # of 1-2 neighbors
     0 = max # of 1-3 neighbors
     0 = max # of 1-4 neighbors
     1 = max # of special neighbors
  special bonds CPU = 0.000 seconds
  read_data CPU = 2.793 seconds
include 	in.setup
variable	out_freq equal 500
variable	out_freq2 equal 500

timestep        0.0005

neigh_modify    delay 7 every 1

include         in.deepmd
# This is deepMD model

# create groups ###
#group ox type 2
#group hy type 1

mass 2 15.999
mass 1 1.008

pair_style      deepmd ../graph.pb
pair_coeff      * *

bond_style      none
angle_style     none
dihedral_style  none
improper_style  none
neigh_modify exclude none


neighbor        2.0 bin
neigh_modify    every 10 delay 0 check no

thermo          ${out_freq}
thermo          500
thermo_style 	custom step temp pe etotal epair emol press lx ly lz xy xz yz vol pxx pyy pzz pxy pxz pyz cella cellb cellc cellalpha cellbeta cellgamma


restart 	${out_freq} restart.lmp.${pid} restart2.lmp.${pid}
restart 	500 restart.lmp.${pid} restart2.lmp.${pid}
restart 	500 restart.lmp.0 restart2.lmp.${pid}
restart 	500 restart.lmp.0 restart2.lmp.0


include         in.dump
dump            myDump all atom ${out_freq2} dump.water.${pid}
dump            myDump all atom 500 dump.water.${pid}
dump            myDump all atom 500 dump.water.0
dump            myDump2 all dcd ${out_freq2} dump.dcd
dump            myDump2 all dcd 500 dump.dcd
dump_modify     myDump append yes
dump_modify     myDump2 append yes


timer           timeout 23:50:00 every 1000
New timer settings: style=normal  mode=nosync  timeout=23:50:00

fix             2 all nph aniso ${pressure} ${pressure} ${pressureDamp}
fix             2 all nph aniso 1973.846 ${pressure} ${pressureDamp}
fix             2 all nph aniso 1973.846 1973.846 ${pressureDamp}
fix             2 all nph aniso 1973.846 1973.846 1
fix             3 all temp/csvr ${temperature} ${temperature} ${tempDamp} ${seed}
fix             3 all temp/csvr 245 ${temperature} ${tempDamp} ${seed}
fix             3 all temp/csvr 245 245 ${tempDamp} ${seed}
fix             3 all temp/csvr 245 245 0.1 ${seed}
fix             3 all temp/csvr 245 245 0.1 745823
velocity 	all create ${temperature} ${seed} dist gaussian
velocity 	all create 245 ${seed} dist gaussian
velocity 	all create 245 745823 dist gaussian

run             400000

CITE-CITE-CITE-CITE-CITE-CITE-CITE-CITE-CITE-CITE-CITE-CITE-CITE

Your simulation uses code contributions which should be cited:

- USER-DEEPMD package:

@article{Wang_ComputPhysCommun_2018_v228_p178,
  author = {Wang, Han and Zhang, Linfeng and Han, Jiequn and E, Weinan},
  doi = {10.1016/j.cpc.2018.03.016},
  url = {https://doi.org/10.1016/j.cpc.2018.03.016},
  year = 2018,
  month = {jul},
  publisher = {Elsevier {BV}},
  volume = 228,
  journal = {Comput. Phys. Commun.},
  title = {{DeePMD-kit: A deep learning package for many-body potential energy representation and molecular dynamics}},
  pages = {178--184}
}

CITE-CITE-CITE-CITE-CITE-CITE-CITE-CITE-CITE-CITE-CITE-CITE-CITE

Neighbor list info ...
  update every 10 steps, delay 0 steps, check no
  max neighbors/atom: 2000, page size: 100000
  master list distance cutoff = 8
  ghost atom cutoff = 8
  binsize = 4, bins = 5 6 6
  1 neighbor lists, perpetual/occasional/extra = 1 0 0
  (1) pair deepmd, perpetual
      attributes: full, newton on
      pair build: full/bin
      stencil: full/bin/3d
      bin: standard
Per MPI rank memory allocation (min/avg/max) = 7.189 | 7.189 | 7.189 Mbytes
Step Temp PotEng TotEng E_pair E_mol Press Lx Ly Lz Xy Xz Yz Volume Pxx Pyy Pzz Pxy Pxz Pyz Cella Cellb Cellc CellAlpha CellBeta CellGamma 
       0          245   -169.12462    -141.7945   -169.12462            0   -24561.886    18.207573    23.629177    22.213196            0            0            0    9556.7825   -24902.417   -24036.279    -24746.96      2.96385    310.07478   -219.43939    18.207573    23.629177    22.213196           90           90           90 
     500    230.99583   -151.14545   -125.37752   -151.14545            0    4326.6461    17.813585    23.075765    21.704231            0            0            0     8921.787    1235.2143    5737.4479    6007.2763   -1238.1693   -107.60557   -229.86853    17.813585    23.075765    21.704231           90           90           90 
    1000     235.9828   -147.03924   -120.71501   -147.03924            0   -83.152208    17.703748    22.968773    21.729162            0            0            0    8835.8024    -16.44669   -2986.1032    2753.0933     1173.609    1166.7527   -480.75147    17.703748    22.968773    21.729162           90           90           90 
    1500    245.25655   -149.70987   -122.35113   -149.70987            0    2305.6826    17.890353    23.227927    22.070761            0            0            0    9171.6335    4550.2715    1298.4582     1068.318   -430.17717    632.65253   -594.89927    17.890353    23.227927    22.070761           90           90           90 
    2000    248.21988   -147.30913   -119.61983   -147.30913            0    602.19207    17.928269    23.205333    21.977208            0            0            0    9143.2098    2281.2058     1639.952   -2114.5816   -1304.5282    190.95914   -926.47142    17.928269    23.205333    21.977208           90           90           90 
    2500    251.37721   -147.51019   -119.46868   -147.51019            0    3335.1522    17.965107    23.243786    21.829736            0            0            0    9115.5981    3400.6658    4296.8888    2307.9019    3149.8445   -18.702729   -709.77169    17.965107    23.243786    21.829736           90           90           90 
    3000    255.29921    -146.7918   -118.31279    -146.7918            0    4945.7416     17.76226    23.159756    21.839478            0            0            0    8984.0972    5619.5799    3124.3241    6093.3207   -2964.7751   -748.16811   -37.206254     17.76226    23.159756    21.839478           90           90           90 
    3500    244.25166   -147.62071   -120.37407   -147.62071            0    1561.2301    17.821122     23.28672    22.113161            0            0            0    9176.8615    4410.1791   -1045.1662    1318.6772    3074.0295    203.90849   -326.20736    17.821122     23.28672    22.113161           90           90           90 
    4000    244.09489   -148.50279   -121.27364   -148.50279            0   -961.39788    17.995485    23.343524    22.166612            0            0            0    9311.7067    4174.0494   -2858.3342   -4199.9088   -3160.2282   -1972.6448   -1354.8759    17.995485    23.343524    22.166612           90           90           90 
    4500    237.55456   -147.17706   -120.67749   -147.17706            0     2000.472    17.872355    23.050964    21.747867            0            0            0    8959.5779   -1112.8695    203.84257    6910.4428    2650.2053    2161.8902   -10.667058    17.872355    23.050964    21.747867           90           90           90 
    5000    242.27102   -146.95304   -119.92734   -146.95304            0    1837.5887    17.936014     23.15496    21.895015            0            0            0    9093.1682     575.3436    4981.0395   -43.617114    1287.5391    1529.1922   -139.37126    17.936014     23.15496    21.895015           90           90           90 
    5500    234.46028    -147.4845   -121.33011    -147.4845            0   -169.28144     17.97742    23.220243    22.102902            0            0            0    9226.6367   -2204.7267    1406.5552     290.3272    1885.8624    349.06592    2109.1415     17.97742    23.220243    22.102902           90           90           90 
    6000    247.16922   -148.13549   -120.56339   -148.13549            0    937.96077    17.940354     23.16324    21.935376            0            0            0    9115.3932    -947.1843    2996.8515    764.21507    40.981489   -673.38202   -370.38517    17.940354     23.16324    21.935376           90           90           90 
    6500    239.27752   -147.95918   -121.26741   -147.95918            0    5256.6729    17.884422    23.242262    21.895394            0            0            0    9101.3557    5791.0483    4095.1729    5883.7975   -1243.1241    1416.5658   -894.32905    17.884422    23.242262    21.895394           90           90           90 
    7000     254.8142   -147.39001    -118.9651   -147.39001            0    371.34553    17.796945    23.301456    21.942086            0            0            0    9099.2673    2769.2394   -734.80201   -920.40075   -309.17444    55.731758     623.6442    17.796945    23.301456    21.942086           90           90           90 
    7500    245.13191   -146.79612   -119.45129   -146.79612            0    1186.6211    17.972068     23.45478    22.069901            0            0            0    9303.1453    277.87751    2106.5762    1175.4096    244.29414    3307.4326    96.469622    17.972068     23.45478    22.069901           90           90           90 
    8000    242.64081   -147.29659   -120.22964   -147.29659            0     2965.005    17.920776    23.172641    21.888737            0            0            0    9089.7734    2087.5301     4234.961    2572.5238    464.82047   -1418.6551   -48.928181    17.920776    23.172641    21.888737           90           90           90 
    8500    238.18956      -147.06   -120.48959      -147.06            0    1239.6134    17.929735    23.103683     21.95144            0            0            0    9093.2287     1263.124   -609.45485    3065.1711   -1073.8425    813.96108    545.18084    17.929735    23.103683     21.95144           90           90           90 
    9000    251.90588    -146.6645   -118.56401    -146.6645            0    -259.5761    18.001384    23.186712     22.08523            0            0            0    9218.2185   -2237.8421    2192.6834   -733.56954    329.05366   -340.59978     808.9124    18.001384    23.186712     22.08523           90           90           90 
    9500    249.63221   -146.62054   -118.77369   -146.62054            0    2317.0634    17.947966    23.129914    21.948105            0            0            0    9111.4246    4157.5074    1304.9007    1488.7822    -2665.335   -203.22633   -359.01401    17.947966    23.129914    21.948105           90           90           90 
   10000    253.65297   -146.96746   -118.67209   -146.96746            0    2321.5007    17.971961     23.35496    21.914206            0            0            0     9198.147   -2688.8834    3526.5982    6126.7874     146.4733   -1474.3472   -1297.2079    17.971961     23.35496    21.914206           90           90           90 
   10500    260.78789   -145.66762   -116.57633   -145.66762            0    876.30415    17.782368    23.451946    21.919873            0            0            0    9141.2697    1442.6315   -1205.0355    2391.3165    943.16543    495.50041   -1487.0971    17.782368    23.451946    21.919873           90           90           90 
   11000    251.83843   -146.83495   -118.74199   -146.83495            0    25.530867    17.799147    23.414338    22.144171            0            0            0    9228.6993   -448.57076    2925.0557   -2399.8924   -2238.4075    373.75581    258.70838    17.799147    23.414338    22.144171           90           90           90 
   11500    250.67843   -147.84395   -119.88039   -147.84395            0    2660.5548    18.007368    23.097852    22.088878            0            0            0    9187.4605    3245.8217    4522.3701    213.47271    2926.6195     83.68109   -795.03283    18.007368    23.097852    22.088878           90           90           90 
   12000    255.00658   -147.46104   -119.01467   -147.46104            0    3518.5046     18.15981    22.939765    21.831732            0            0            0    9094.7012    1382.4708    4810.0338    4363.0093    886.64971    335.65505    488.68258     18.15981    22.939765    21.831732           90           90           90 
   12500     245.6514   -145.81508    -118.4123   -145.81508            0    2069.6119    18.138163    23.222098    21.888389            0            0            0    9219.5252   -10.804858    4135.0863    2084.5542   -3344.3419   -345.71583   -256.54919    18.138163    23.222098    21.888389           90           90           90 
   13000    256.08511   -146.32726   -117.76058   -146.32726            0    3899.6079    17.760389    23.323481    21.990347            0            0            0    9109.1515    2846.2913    5555.8931    3296.6392    1644.2736   -1817.1923    509.28352    17.760389    23.323481    21.990347           90           90           90 
   13500    241.81458     -147.487   -120.51222     -147.487            0   -338.67142    17.729649    23.386551    22.135254            0            0            0    9178.0584     369.4874    520.11079   -1905.6125   -987.52253    45.302104   -259.88836    17.729649    23.386551    22.135254           90           90           90 
   14000    242.80295   -147.89008   -120.80504   -147.89008            0     2104.487    17.914153    23.301993    22.065033            0            0            0    9210.7275    1287.9917    3998.3375    1027.1317    877.64667    52.519147    85.366265    17.914153    23.301993    22.065033           90           90           90 
   14500    239.56553   -147.90271   -121.17881   -147.90271            0    2277.8304    18.065711    23.144641    21.855823            0            0            0     9138.453   -1649.5381    2062.1286    6420.9009   -2473.3147   -247.33545    1220.2623    18.065711    23.144641    21.855823           90           90           90 
   15000    246.62772   -147.01868   -119.50698   -147.01868            0    1316.4063    18.115321    23.128329    21.899382            0            0            0    9175.3396    1293.7975    1024.9595     1630.462   -725.34338    971.51126   -617.96929    18.115321    23.128329    21.899382           90           90           90 
   15500    243.24901   -146.88585   -119.75106   -146.88585            0    3472.1834    17.929269    23.181585    22.088498            0            0            0    9180.6175    4154.3674    2502.4381    3759.7446    236.99682   -493.65152    4.1008373    17.929269    23.181585    22.088498           90           90           90 
   16000    240.73077   -146.90351   -120.04963   -146.90351            0     2262.192    17.770949    23.367499    22.190984            0            0            0    9215.0861    1971.3434    4915.6022   -100.36973    558.36127   -943.84004    1248.0869    17.770949    23.367499    22.190984           90           90           90 
   16500    253.99373   -147.91957   -119.58619   -147.91957            0    1305.8031    17.784674    23.435807    21.885082            0            0            0    9121.6624    2682.9824    807.43685     426.9899   -312.27021    526.12646    1262.3491    17.784674    23.435807    21.885082           90           90           90 
   17000    251.18608   -147.72884   -119.70865   -147.72884            0    2218.8729    18.036525    23.311679    21.738849            0            0            0    9140.3532    2316.8422    1814.8622    2524.9143    1071.2242    550.66211   -463.26809    18.036525    23.311679    21.738849           90           90           90 
   17500    240.91341   -146.60423   -119.72998   -146.60423            0   -1188.1749    18.180106    23.131239    22.049631            0            0            0    9272.4956   -23.092488    -2788.993    -752.4391   -959.60119    -1426.945   -3251.3479    18.180106    23.131239    22.049631           90           90           90 
   18000    236.63726   -147.63386   -121.23662   -147.63386            0    2782.6356    17.942019    23.011864    22.088085            0            0            0    9119.7134    6088.8269    2784.0883    -525.0085    90.107206    3402.1523      1124.28    17.942019    23.011864    22.088085           90           90           90 
   18500    240.53179   -147.46445   -120.63276   -147.46445            0    1413.5993    17.896579    23.328858    22.069678            0            0            0    9214.2397     1913.585    3278.3471   -951.13437    939.85422   -1299.9571   -3752.3765    17.896579    23.328858    22.069678           90           90           90 
   19000    245.15346   -147.82567   -120.47843   -147.82567            0    4402.8475    17.839914    23.408254    21.921191            0            0            0    9154.3162    4329.1355    5710.7857    3168.6214   -3210.9213    1603.1881    1010.5272    17.839914    23.408254    21.921191           90           90           90 
   19500    241.55054   -146.91933   -119.97401   -146.91933            0    4536.3209    17.921711     23.32031    21.937375            0            0            0    9168.5035    4432.8675    5756.7032    3419.3919   -2461.3828   -157.39875    1005.0102    17.921711     23.32031    21.937375           90           90           90 
   20000    249.34036    -148.9415   -121.12721    -148.9415            0    1108.8243    17.977172    23.190245    22.041269            0            0            0    9188.8954   -289.54474    859.15471    2756.8628    -1692.037   -417.06281   -1025.9942    17.977172    23.190245    22.041269           90           90           90 
   20500    251.63784   -149.00312   -120.93254   -149.00312            0    3334.0416    17.949549    23.086348    21.974197            0            0            0    9105.8772    2686.1356    6334.3274    981.66188   -3354.0196    379.68708    293.68257    17.949549    23.086348    21.974197           90           90           90 
   21000    239.68436   -148.26117   -121.52402   -148.26117            0    1197.7505    18.024263    23.315159     22.00724            0            0            0    9248.2908   -830.36171      3029.79    1393.8232    433.21123   -386.67071   -1588.7479    18.024263    23.315159     22.00724           90           90           90 
   21500    236.63129   -148.65605   -122.25948   -148.65605            0    2563.5475    17.861485    23.314626    21.858067            0            0            0    9102.4388    2171.3716    847.33057    4671.9404   -1141.9649   -914.05321      973.903    17.861485    23.314626    21.858067           90           90           90 
   22000    243.80291   -147.75516   -120.55858   -147.75516            0     2335.205     17.83388    23.347852    21.952982            0            0            0    9140.8443    1985.2015    3377.5334      1642.88    586.60797   -55.110277    497.47585     17.83388    23.347852    21.952982           90           90           90 
   22500    242.24228   -147.81309   -120.79059   -147.81309            0    772.06446    17.954688    23.344971    22.178173            0            0            0    9296.0183    1639.2747    1610.1761   -933.25742   -583.79666    316.16092     578.8009    17.954688    23.344971    22.178173           90           90           90 
   23000    237.50842   -147.50434   -121.00991   -147.50434            0    2310.1955     17.88275    23.018252    21.927553            0            0            0    9026.0308    2008.3022    248.50643    4673.7779   -1898.7471   -375.16021   -3202.2743     17.88275    23.018252    21.927553           90           90           90 
   23500    248.25481   -147.55423   -119.86104   -147.55423            0    3171.4297    18.128814    23.249844    21.994507            0            0            0    9270.5109    1312.6492    4563.0795    3638.5604   -1679.1396     244.1445   -825.13125    18.128814    23.249844    21.994507           90           90           90 
   24000    245.37712   -145.73697   -118.36479   -145.73697            0    5571.6842    17.966934    23.239388    21.832385            0            0            0    9115.9056    6817.3037    5885.9814    4011.7675    1579.3217   -1917.8944   -190.80645    17.966934    23.239388    21.832385           90           90           90 
   24500    240.71071   -146.08958   -119.23794   -146.08958            0    479.36681    17.829337    23.306852    21.960271            0            0            0    9125.4964    2388.6865    725.33365   -1675.9197    719.82449   -229.82518   -64.337701    17.829337    23.306852    21.960271           90           90           90 
   25000    253.46987   -147.18377   -118.90883   -147.18377            0    1352.7982    17.890601     23.39281    22.160494            0            0            0    9274.4197    823.03689    1485.0325    1750.3252   -874.63191   -421.97589     -175.906    17.890601     23.39281    22.160494           90           90           90 
   25500    252.63709   -146.27869   -118.09664   -146.27869            0    1843.0812    17.833965    23.099554    21.898276            0            0            0    9021.1401    7.7024607     1965.863    3555.6779   -837.50155    2155.4795    627.55681    17.833965    23.099554    21.898276           90           90           90 
   26000    260.94888   -147.47223   -118.36299   -147.47223            0     3112.876    18.087987    23.312527    21.893607            0            0            0    9232.0236    2765.8664    3471.4066    3101.3552   -734.36305   -453.79655   -727.51273    18.087987    23.312527    21.893607           90           90           90 
   26500    247.15433   -147.40878   -119.83834   -147.40878            0    2437.3159     18.12488     23.37301    21.895426            0            0            0    9275.6254    5294.4241    47.780513     1969.743   -914.89039    281.67845   -802.80624     18.12488     23.37301    21.895426           90           90           90 
   27000    254.64806   -146.92736   -118.52099   -146.92736            0    2636.2854    17.871693    23.093849    21.974161            0            0            0    9069.3119    3193.2652    1552.4735    3163.1175    669.52738    1468.2834    1041.8433    17.871693    23.093849    21.974161           90           90           90 
   27500    248.07901   -147.00821   -119.33463   -147.00821            0     1839.915    17.807631    23.180585    22.161883            0            0            0    9148.2328    534.16775    4696.6129    288.96444   -96.193897    523.51017    1227.8009    17.807631    23.180585    22.161883           90           90           90 
   28000    237.50138   -147.12043    -120.6268   -147.12043            0    1514.3159    17.937729    23.379665    22.040173            0            0            0    9243.1659    1520.0681    2394.3805    628.49903   -1028.6018   -89.231708    -700.8995    17.937729    23.379665    22.040173           90           90           90 
   28500    242.41714     -146.131   -119.08901     -146.131            0    3273.5846    17.999614    23.380875    21.757936            0            0            0    9156.7562    4893.2065     2545.037    2382.5102    344.93684    531.05651    1480.4646    17.999614    23.380875    21.757936           90           90           90 
   29000    240.98697    -146.8372   -119.95474    -146.8372            0    2047.1655    18.037923    23.306141    21.909553            0            0            0    9210.6524    -340.2243    4741.4907    1740.2301    363.09343    148.30438   -812.33121    18.037923    23.306141    21.909553           90           90           90 
   29500    251.93989   -146.60759   -118.50332   -146.60759            0     1656.122    17.927038    23.107667    22.179293            0            0            0     9187.817    2466.1002    2569.3697   -67.104049   -962.88417    547.65712   -1390.5508    17.927038    23.107667    22.179293           90           90           90 
   30000    257.14073   -145.07612   -116.39168   -145.07612            0     1402.286    17.935094    23.083773    22.152308            0            0            0    9171.2691    3168.4369    2486.3056   -1447.8844    -354.3635   -1498.4981   -590.40888    17.935094    23.083773    22.152308           90           90           90 
   30500    242.48031    -145.5652   -118.51616    -145.5652            0    2177.4701    18.049467    23.319204    21.948922            0            0            0    9238.2838    2324.0709    1899.9018    2308.4378   -2028.6441    1263.3566   -253.28925    18.049467    23.319204    21.948922           90           90           90 
   31000    239.45987   -145.19048   -118.47837   -145.19048            0    2846.8756    17.938804    23.430964    21.829528            0            0            0    9175.4631    3629.0779   -463.10568    5374.6544   -822.68094   -2662.6837    724.47804    17.938804    23.430964    21.829528           90           90           90 
   31500    243.93365    -146.1061   -118.89494    -146.1061            0    2332.2498    17.822706    23.364307    22.069047            0            0            0     9189.886    2244.1903    3275.9656    1476.5936   -1148.9254    2780.3229   -1130.6742    17.822706    23.364307    22.069047           90           90           90 
   32000    252.26035   -147.51074   -119.37072   -147.51074            0    2811.3604    17.855259     23.10981    22.232217            0            0            0     9173.716    4651.1687    3596.4232    186.48931   -429.22591   -615.14523   -355.54154    17.855259     23.10981    22.232217           90           90           90 
   32500    250.26615   -147.49976   -119.58219   -147.49976            0    3019.8559    18.136567    22.988947    21.905494            0            0            0    9133.2894   -94.466802    4629.7028    4524.3316    353.48189   -510.82363     974.3621    18.136567    22.988947    21.905494           90           90           90 
   33000    243.93999   -146.85215   -119.64028   -146.85215            0    1188.1892    18.306511     23.28665    21.824275            0            0            0      9303.63    2977.4898   -321.61192    908.68971   -1452.0024   -643.92749   -747.00215    18.306511     23.28665    21.824275           90           90           90 
   33500    250.63718   -147.14799   -119.18903   -147.14799            0     2627.828    17.887716    23.280435    21.886871            0            0            0     9114.433    3212.7374   -175.02485    4845.7715   -734.95423    551.68924    794.45005    17.887716    23.280435    21.886871           90           90           90 
   34000    244.18322   -148.74623   -121.50722   -148.74623            0    1421.6359    17.795314    23.354744     22.09512            0            0            0    9182.8422    2391.4065    2184.7913   -311.29014    752.71491   -676.96929    974.05261    17.795314    23.354744     22.09512           90           90           90 
   34500    243.46876   -149.49991    -122.3406   -149.49991            0     1195.044    17.860409    23.329372    22.057927            0            0            0     9190.923    4464.1208    796.60225   -1675.5909   -1156.7305    297.69045   -6.5499512    17.860409    23.329372    22.057927           90           90           90 
   35000    233.03185   -148.34741   -122.35236   -148.34741            0     1115.051    17.966699    23.239069    21.944264            0            0            0    9162.3748     3755.456   -1765.8082    1355.5053   -2049.7358    342.36748    938.11508    17.966699    23.239069    21.944264           90           90           90 
   35500    245.09822   -148.43497    -121.0939   -148.43497            0    3432.2731    18.076958    23.154284    21.957883            0            0            0    9190.6699    2481.2649    3425.7461    4389.8083    1094.1402   -390.62665  -0.66661246    18.076958    23.154284    21.957883           90           90           90 
   36000    238.24111   -147.47153   -120.89537   -147.47153            0    1923.0125    17.993802    23.222783    22.041602            0            0            0    9210.4397     1890.834    744.00318    3134.2002   -263.00936    369.73609    393.33302    17.993802    23.222783    22.041602           90           90           90 
   36500    240.80963   -146.99925   -120.13657   -146.99925            0    553.09528    17.796843    23.354143    22.038796            0            0            0    9159.9851    1574.8349   -1415.4692    1499.9202   -395.21987   -1137.6669   -935.76467    17.796843    23.354143    22.038796           90           90           90 
   37000    242.02608   -147.07772   -120.07935   -147.07772            0    4320.0506    17.841825    23.469144    21.983546            0            0            0    9205.2224    6507.3981    1421.7777     5030.976   -2435.4439    1340.3897    686.63551    17.841825    23.469144    21.983546           90           90           90 
   37500    250.62006   -148.39705   -120.44001   -148.39705            0    4032.1533    17.990279    23.257379    21.889781            0            0            0     9158.832     994.7003    4875.0612    6226.6984    1298.6049    788.16196    455.81424    17.990279    23.257379    21.889781           90           90           90 
   38000    247.63575   -146.68636   -119.06222   -146.68636            0     2036.816    18.145564    23.058696     22.08372            0            0            0    9240.1166   -112.75502    2676.1116    3547.0915    1230.5282   -456.63598    -737.2777    18.145564    23.058696     22.08372           90           90           90 
   38500    243.22793   -146.75875   -119.62631   -146.75875            0     4914.617    18.026953    22.927632    22.152151            0            0            0     9155.824    5277.4194    5828.8993    3637.5322    673.96252   -953.14303   -86.537678    18.026953    22.927632    22.152151           90           90           90 
   39000    237.27101   -146.47217   -120.00423   -146.47217            0   -326.19786    17.875865    23.323014     22.10093            0            0            0    9214.2989   -748.20884    2250.4421   -2480.8269    1528.4405    1199.1507   -692.72669    17.875865    23.323014     22.10093           90           90           90 
   39500    252.12221   -147.57015   -119.44554   -147.57015            0     4101.325    17.755915    23.507444     21.80241            0            0            0    9100.2425    5744.7853    3893.6571    2665.5325    1020.0762    45.317301    1672.2515    17.755915    23.507444     21.80241           90           90           90 
   40000    244.17212   -147.71893   -120.48117   -147.71893            0    846.25217    17.943373    23.562211     21.92957            0            0            0    9271.5053    2669.3302    506.72087   -637.29462   -586.67862   -466.06057   -273.21259    17.943373    23.562211     21.92957           90           90           90 
   40500    242.42215    -148.0493   -121.00674    -148.0493            0    2825.6817    17.964969    23.159153    22.070197            0            0            0    9182.3821    283.12783    3775.2827    4418.6345   -1200.2314   -143.74114    513.54502    17.964969    23.159153    22.070197           90           90           90 
   41000    247.88655   -147.48997   -119.83785   -147.48997            0    2660.9257    18.000533    22.908973    22.080612            0            0            0    9105.4644    1761.8558    4049.5858    2171.3355   -1447.0991   -516.29146    215.95351    18.000533    22.908973    22.080612           90           90           90 
   41500    250.40566   -147.78883    -119.8557   -147.78883            0    2778.4298    18.052262     23.14212    21.998552            0            0            0    9190.2829    240.66261    3807.8781    4286.7488    2121.6933    -800.8933   -862.53781    18.052262     23.14212    21.998552           90           90           90 
   42000    232.57912   -145.73552   -119.79097   -145.73552            0    3506.1772    17.948225    23.434945      21.8375            0            0            0    9185.1943    2643.1346     1634.304    6241.0929    389.74485   -991.77475    1411.3416    17.948225    23.434945      21.8375           90           90           90 
   42500    246.68937   -147.05642   -119.53785   -147.05642            0    1517.3676     17.85127    23.570777     22.01092            0            0            0    9261.4974   -278.21985   -288.02244     5118.345    1795.0646    -543.2909    413.80318     17.85127    23.570777     22.01092           90           90           90 
   43000    251.83194   -146.55207   -118.45984   -146.55207            0    2756.2221    17.709774    23.183138    22.077083            0            0            0    9064.1469    5742.8249    1295.1716    1230.6699   -1977.1584    1468.5458    -301.8649    17.709774    23.183138    22.077083           90           90           90 
   43500    236.88696   -146.61242   -120.18732   -146.61242            0    655.35143    17.961215    23.138604    22.190521            0            0            0    9222.3235   -797.48026    2712.5511    50.983448    1302.6466    703.69858   -514.64448    17.961215    23.138604    22.190521           90           90           90 
   44000     248.0201   -148.28587   -120.61885   -148.28587            0    3569.0677      18.1369     23.21404    21.989934            0            0            0    9258.4378    6274.2126    3567.3988    865.59173   -231.04637   -780.52167   -126.08427      18.1369     23.21404    21.989934           90           90           90 
   44500    247.48091   -147.01279   -119.40592   -147.01279            0   -499.79389    18.066901    23.212756    21.762481            0            0            0    9126.8052   -1843.2606    63.948327    279.93061    276.33435    676.08396    862.15147    18.066901    23.212756    21.762481           90           90           90 
   45000    239.76909   -148.41916   -121.67256   -148.41916            0    511.67746    17.932199    23.340874    21.942936            0            0            0    9184.2861   -82.441904    1100.0542    517.42007   -2644.8298   -559.70751    4.5954142    17.932199    23.340874    21.942936           90           90           90 
   45500     238.6668   -148.11604    -121.4924   -148.11604            0    4957.1589    17.780836    23.318096    22.094979            0            0            0    9160.9152    1855.7868    7883.3377    5132.3523    35.933287   0.26372287     606.0949    17.780836    23.318096    22.094979           90           90           90 
   46000    248.13195   -148.35809    -120.6786   -148.35809            0     260.0769    17.895817    23.346045    22.099385            0            0            0     9233.047   -382.85337   -695.39742    1858.4815   -2749.0192    -1817.658   -1685.7806    17.895817    23.346045    22.099385           90           90           90 
   46500     244.5716   -147.27999   -119.99766   -147.27999            0    1788.3075    18.001727    23.188704    21.909219            0            0            0    9145.7127    216.08364    2128.1134    3020.7256   -738.39805     436.0759    2965.2702    18.001727    23.188704    21.909219           90           90           90 
   47000    245.39784   -147.30403   -119.92954   -147.30403            0    1491.5299    18.058117    23.072818    21.924927            0            0            0    9135.0572    2509.1388    2508.5712   -543.12021   -968.08516     287.0188   -184.45475    18.058117    23.072818    21.924927           90           90           90 
   47500    242.07097   -146.44916   -119.44578   -146.44916            0    163.58292    18.024049     23.23925    22.154828            0            0            0    9279.8906    1390.5108    1512.7145   -2412.4765   -531.13539   -1813.1228    240.33786    18.024049     23.23925    22.154828           90           90           90 
   48000    250.45683   -146.98945   -119.05061   -146.98945            0    1481.3727    17.778653    23.426592    22.091249            0            0            0     9200.856    2448.9742    1562.8735    432.27051    256.73717   -773.55912   -1124.5093    17.778653    23.426592    22.091249           90           90           90 
   48500    244.83343   -146.53743    -119.2259   -146.53743            0    5052.6825    17.652715    23.495569     21.85606            0            0            0    9065.0321    7915.9032    6368.0834    874.06106    2024.2428   -1051.4736    616.66791    17.652715    23.495569     21.85606           90           90           90 
   49000    247.12625   -145.48465   -117.91735   -145.48465            0    1621.7142    17.975606    23.542246     21.92742            0            0            0    9279.3805    6181.7426     -1287.41   -29.190098   -28.513449    43.004735    -1575.622    17.975606    23.542246     21.92742           90           90           90 
   49500    265.72912   -145.19643   -115.55395   -145.19643            0    3271.8916    18.133506    23.092993    22.054216            0            0            0    9235.3558    590.97007    6443.4864    2781.2184     882.1524   -493.80042    2050.8853    18.133506    23.092993    22.054216           90           90           90 
   50000    247.68636   -145.72188    -118.0921   -145.72188            0    2118.5844    18.135997    22.918182    22.129207            0            0            0    9197.8742    2773.5571    2433.1134    1149.0828    1080.4433   -635.89621   -1472.8712    18.135997    22.918182    22.129207           90           90           90 
   50500    254.78646   -148.18434   -119.76253   -148.18434            0    2040.7076     17.96503     23.09076    22.004571            0            0            0    9128.0722    4324.4086    3740.6031   -1942.8889    584.07494    1231.7102    26.536799     17.96503     23.09076    22.004571           90           90           90 
   51000    244.55368   -145.93729   -118.65696   -145.93729            0    1912.8574    17.877994    23.409708    21.919253            0            0            0    9173.6153    243.21925    1028.9031    4466.4497   -2047.7559    2952.4966   -953.57197    17.877994    23.409708    21.919253           90           90           90 
   51500    245.73519   -147.71988   -120.30775   -147.71988            0    1386.3627    17.875231    23.491302    21.986647            0            0            0    9232.4669    1182.0581    1440.2321     1536.798   -1669.1665    324.07554    1082.0405    17.875231    23.491302    21.986647           90           90           90 
   52000    240.55376   -148.61428   -121.78015   -148.61428            0    1929.4872    17.906427    23.261474    21.977714            0            0            0    9154.3748     3425.829    1878.8927    483.73975    659.00718   -640.76194   -1569.9429    17.906427    23.261474    21.977714           90           90           90 
   52500    247.35865   -146.32295   -118.72972   -146.32295            0    2854.4493    17.989911    23.138591    22.025915            0            0            0    9168.5337    1331.1838    3768.2029    3463.9613    1467.6006   -163.76648   -984.07258    17.989911    23.138591    22.025915           90           90           90 
   53000     245.6382   -147.92139   -120.52008   -147.92139            0    2678.8627    17.977863      23.1834    22.068363            0            0            0    9197.8291     5338.187   -1025.8828    3724.2838   -136.14961   -726.22834   -257.66315    17.977863      23.1834    22.068363           90           90           90 
   53500    241.52828   -147.45231   -120.50947   -147.45231            0    2886.7122     17.89449    23.308728    21.989681            0            0            0    9171.8478    3499.8268    225.92576    4934.3842   -56.075098    243.43692    1339.8649     17.89449    23.308728    21.989681           90           90           90 
   54000    249.41161    -146.8342   -119.01195    -146.8342            0      1037.12    17.878747    23.444085    21.990162            0            0            0    9217.1953   -2016.4579   -656.35202    5784.1699    212.53574    1387.1763   -1018.4986    17.878747    23.444085    21.990162           90           90           90 
   54500    235.49464   -148.29512   -122.02534   -148.29512            0    2216.7034    17.906677    23.270802     21.95476            0            0            0    9148.6086    929.94023    1662.0574    4058.1127   -791.22541    980.88317    1468.4505    17.906677    23.270802     21.95476           90           90           90 
   55000    238.41814   -146.81017   -120.21427   -146.81017            0     1684.146    18.090913    23.032301    22.088551            0            0            0     9203.755    1634.3844    360.10978    3057.9438    152.65891   -1915.1732   -1121.9906    18.090913    23.032301    22.088551           90           90           90 
   55500     227.1888    -146.5725   -121.22924    -146.5725            0    388.93759    18.182326    23.022255    22.159187            0            0            0     9275.795    77.551751    3154.6551   -2065.3941    930.81052    30.712828    1890.7457    18.182326    23.022255    22.159187           90           90           90 
   56000    245.98967   -145.94673   -118.50622   -145.94673            0    3547.3652    17.898052    23.107206    21.870407            0            0            0     9045.031    2403.7732    3834.5839    4403.7385    624.44065     1095.592    117.08863    17.898052    23.107206    21.870407           90           90           90 
   56500    248.48467    -146.2171   -118.49826    -146.2171            0   -373.97478    17.899688    23.659782    22.016608            0            0            0    9324.0934    885.37152   -2646.1638    638.86793    53.096818    567.08775    251.03709    17.899688    23.659782    22.016608           90           90           90 
   57000    246.13049   -146.82441   -119.36819   -146.82441            0    2024.9444    17.727962    23.492512    21.929096            0            0            0    9132.9063    1761.6479    3153.1049    1160.0803    1158.8455    1392.8771   -621.30633    17.727962    23.492512    21.929096           90           90           90 
   57500    245.13335   -147.09524   -119.75024   -147.09524            0    1708.0022    17.904128    23.271853     22.01605            0            0            0     9173.257    878.36188    4909.4035    -663.7588    1124.5092   -2192.3945    984.16066    17.904128    23.271853     22.01605           90           90           90 
   58000    257.69551   -148.53235   -119.78603   -148.53235            0     369.5496     18.08892    23.181133     22.06983            0            0            0    9254.3576    3856.6267    128.26418   -2876.2421   -1496.8973    1417.7834   -1691.9378     18.08892    23.181133     22.06983           90           90           90 
   58500    239.69852    -146.7665   -120.02777    -146.7665            0    2515.4288    18.026023    23.087636    21.939243            0            0            0    9130.6355   -14.353132    3708.8307    3851.8087    3702.5175   -269.07497   -387.89414    18.026023    23.087636    21.939243           90           90           90 
   59000    242.94487   -146.01939   -118.91853   -146.01939            0    2489.0827    17.976611     23.30871    22.063694            0            0            0    9244.9436     4932.295    4267.2023   -1732.2492    954.95045    49.641205   -958.26625    17.976611     23.30871    22.063694           90           90           90 
   59500    252.32138   -147.37098   -119.22415   -147.37098            0    4129.0007    17.819309    23.440362    22.057171            0            0            0     9213.083    4208.3834     5404.417    2774.2016    1531.0716    1278.9933    1059.1353    17.819309    23.440362    22.057171           90           90           90 
   60000    239.02542   -146.71078   -120.04714   -146.71078            0    1170.8023    17.859358    23.417954    21.957849            0            0            0    9183.4229    1679.9693   -1085.5764    2918.0139   -3068.3547     369.4406   -447.28453    17.859358    23.417954    21.957849           90           90           90 
   60500    240.70605    -147.4556   -120.60448    -147.4556            0    651.17447    18.066823    23.299154     22.00524            0            0            0    9262.9233   -2671.6265      303.585     4321.565    -261.7213    364.06902    1036.1113    18.066823    23.299154     22.00524           90           90           90 
   61000    247.62005   -147.22457   -119.60218   -147.22457            0     1673.083    18.044206    22.979115    21.984704            0            0            0    9115.7352    2686.2263    2720.9864   -387.96355    596.55023     1632.176    1345.4907    18.044206    22.979115    21.984704           90           90           90 
   61500     237.4364   -146.35964   -119.87325   -146.35964            0    3106.3593    18.046177    23.181067    22.063652            0            0            0    9229.8796    2734.2017    4629.3474    1955.5289    463.88258   -267.11912   -226.50123    18.046177    23.181067    22.063652           90           90           90 
   62000    253.18455   -147.05669   -118.81357   -147.05669            0     1124.603    17.910735    23.436907    22.049068            0            0            0    9255.5865     313.9516   -911.92097    3971.7783    84.153347    1674.9608   -918.28391    17.910735    23.436907    22.049068           90           90           90 
   62500    248.94149   -147.54481   -119.77501   -147.54481            0    3089.5437    17.741652    23.406625    21.958157            0            0            0    9118.6122    2704.0387    2872.2341    3692.3583    -400.5236    530.45862   -437.37904    17.741652    23.406625    21.958157           90           90           90 
   63000    245.58965   -144.92734   -117.53145   -144.92734            0    282.67863    17.944244    23.383618    22.131565            0            0            0    9286.4346    964.64808   -3136.6134    3020.0012    804.51933    1239.8589    211.14782    17.944244    23.383618    22.131565           90           90           90 
   63500    240.50924   -147.05598   -120.22681   -147.05598            0    2257.6207    18.075836    23.075198    21.941918            0            0            0    9152.0508    2525.9514    3165.9781    1080.9327   -276.61908   -182.55717   -964.19844    18.075836    23.075198    21.941918           90           90           90 
   64000    249.97231    -146.7183   -118.83351    -146.7183            0    3372.6771     18.15743    23.089041    21.962567            0            0            0     9207.535    961.38749    3973.5796    5183.0641    1778.9852    256.06322   -1011.9193     18.15743    23.089041    21.962567           90           90           90 
   64500    246.92819   -147.08397   -119.53876   -147.08397            0    2557.8006    17.997076    23.169608    22.055512            0            0            0     9196.822    2115.6274       2792.6    2765.1743   -1361.5855   -1164.8233    956.59547    17.997076    23.169608    22.055512           90           90           90 
   65000    231.22755   -147.14043   -121.34664   -147.14043            0     2641.086    17.705028    23.448711    22.060012            0            0            0    9158.4364    3553.7504    4059.1021    310.40557    1938.0964    7.1254761     1828.424    17.705028    23.448711    22.060012           90           90           90 
   65500    237.46886   -146.99545   -120.50544   -146.99545            0      1626.67     17.70391    23.783348    22.001135            0            0            0    9263.7596    4613.6254    301.97993   -35.595239    318.52852    -1954.871    1614.7301     17.70391    23.783348    22.001135           90           90           90 
   66000    253.07651   -146.47134   -118.24028   -146.47134            0    2807.5311    17.928754    23.353585    21.826036            0            0            0    9138.5764    2289.7461    2406.5107    3726.3363   -3418.1683     97.11427    380.88089    17.928754    23.353585    21.826036           90           90           90 
   66500    256.86592   -147.12729   -118.47351   -147.12729            0    1062.5686    18.248334    22.854345    21.989377            0            0            0    9170.7516   -868.40711    4792.5865   -736.47362    1168.8177    203.69574    1729.5587    18.248334    22.854345    21.989377           90           90           90 
   67000    242.49493   -147.23386   -120.18319   -147.23386            0     3497.713    18.201084    22.925438    22.124661            0            0            0    9231.9096    4134.0755     2704.716    3654.3475   -740.58982    113.35139    342.37531    18.201084    22.925438    22.124661           90           90           90 
   67500    245.07704   -147.85417   -120.51546   -147.85417            0    1225.5479     17.92603    23.236697    22.085423            0            0            0    9199.5003   -2345.8056    4462.9138    1559.5356   -1578.8434   -141.03543    748.47612     17.92603    23.236697    22.085423           90           90           90 
   68000    237.80512   -146.82871   -120.30119   -146.82871            0    1101.0678    17.792916    23.447851    22.028457            0            0            0    9190.3969    3499.5305    2019.0528   -2215.3801     572.0916   -405.92099    1251.5988    17.792916    23.447851    22.028457           90           90           90 
   68500    242.25326   -146.79289   -119.76918   -146.79289            0    1401.1658    17.882967    23.436414    21.985184            0            0            0    9214.2683    939.87733    1865.2564    1398.3635   -2873.0947    -136.4944   -811.27461    17.882967    23.436414    21.985184           90           90           90 
   69000    244.50636   -148.56914   -121.29408   -148.56914            0     2125.043    17.977642    23.183222    21.976318            0            0            0    9159.2823    1921.8232    1462.0947    2991.2112    1454.4799    150.12334   -839.47358    17.977642    23.183222    21.976318           90           90           90 
   69500    234.95482    -147.5241   -121.31454    -147.5241            0    3538.8208    18.070365    23.043323    22.100838            0            0            0    9202.8164    3407.8529    4697.6836    2510.9258   -246.09823      1011.13   0.85757567    18.070365    23.043323    22.100838           90           90           90 
   70000    244.29305   -147.79506    -120.5438   -147.79506            0    49.058965    18.074399    23.099406    22.063179            0            0            0    9211.5508     325.4086    -521.4811     343.2494    1945.8298   -530.73789    699.69997    18.074399    23.099406    22.063179           90           90           90 
   70500    237.48379   -147.07042   -120.57874   -147.07042            0    297.79915    17.950401    23.404038     21.92596            0            0            0    9211.3556    315.50625    977.13773   -399.24653    -797.5222   -1450.7248    529.34337    17.950401    23.404038     21.92596           90           90           90 
   71000    245.67809   -147.66979   -120.26403   -147.66979            0    3779.7887     17.73082     23.47698    21.909597            0            0            0    9120.2228    4405.0529    2550.3604     4383.953   -622.87102   -282.60451   -936.04194     17.73082     23.47698    21.909597           90           90           90 
   71500    237.74575   -146.60106   -120.08016   -146.60106            0    1622.8108    17.867571    23.456757    22.221195            0            0            0    9313.2425    5313.4574    474.35499   -919.37997    575.67689   -111.04363    620.89318    17.867571    23.456757    22.221195           90           90           90 
   72000     256.2636   -145.44804   -116.86144   -145.44804            0    5956.9808     17.98741    23.029709    22.021964            0            0            0    9122.4846    4389.6477     7655.211    5826.0839     249.2944    1259.2929   -1291.0963     17.98741    23.029709    22.021964           90           90           90 
   72500     254.8371   -147.25385   -118.82639   -147.25385            0    1654.7837    18.181309     23.06685    21.956075            0            0            0    9208.0601   -284.32668    2733.8314    2514.8463   -32.850847    -1087.102    233.12231    18.181309     23.06685    21.956075           90           90           90 
   73000    247.99103   -147.91373   -120.24996   -147.91373            0    2073.9499    18.065416    23.206967    22.035549            0            0            0    9238.2612    1828.1411    3635.0928      758.616   -624.13441   -409.41091   -1527.6848    18.065416    23.206967    22.035549           90           90           90 
   73500    239.08646   -146.26329   -119.59284   -146.26329            0    5025.4192    17.772182    23.253356    22.004068            0            0            0    9093.4642    4699.5362    4950.8105    5425.9108   -786.13828    653.19469   -419.53036    17.772182    23.253356    22.004068           90           90           90 
   74000    244.59996   -147.59696   -120.31147   -147.59696            0   -63.592774    17.831242    23.450041    22.118346            0            0            0    9248.6394    2330.4067   -2144.2304   -376.95458   -2415.7465   -1645.3662   -749.59783    17.831242    23.450041    22.118346           90           90           90 
   74500    250.00592   -147.57752   -119.68898   -147.57752            0    1498.2602    17.932012    23.345651    21.977277            0            0            0    9200.4464    1661.9224    1500.5029    1332.3552   -3274.2321   -1029.6117    699.04543    17.932012    23.345651    21.977277           90           90           90 
   75000    241.08799   -146.24237   -119.34864   -146.24237            0    5938.4559    18.010548    23.208076    21.921227            0            0            0    9162.8574    7830.9993    1781.1194    8203.2489    1552.2977    2161.3984    24.266891    18.010548    23.208076    21.921227           90           90           90 
   75500    245.10787   -148.30841   -120.96626   -148.30841            0   -1563.3612    18.070697     23.23714    22.112842            0            0            0    9285.4325   -1728.8734    310.46109   -3271.6712    346.48959    -2527.513    611.56037    18.070697     23.23714    22.112842           90           90           90 
   76000    243.10377   -146.86114   -119.74255   -146.86114            0    3660.8964    17.897686    23.167512    22.037226            0            0            0    9137.6222    671.38299    1540.0537    8771.2524    1144.3705   -609.28448    1027.4903    17.897686    23.167512    22.037226           90           90           90 
   76500     234.0257   -149.56986   -123.46394   -149.56986            0    2980.2536    17.905298    23.268611     22.05504            0            0            0    9188.8226     2650.996    5901.3717    388.39304    637.06558   0.82102561    508.66003    17.905298    23.268611     22.05504           90           90           90 
   77000    237.14224   -148.77269   -122.31911   -148.77269            0     1758.797    17.933787    23.310148    21.941552            0            0            0    9172.4295    149.28592     807.1311     4319.974   -470.72364   -386.05672   -665.40746    17.933787    23.310148    21.941552           90           90           90 
   77500    238.09493   -146.79244   -120.23259   -146.79244            0    2247.7999    18.041951    23.288336     21.99373            0            0            0    9241.0399    1581.9285    4251.5894    909.88165   -77.006214   -2052.0533    850.22221    18.041951    23.288336     21.99373           90           90           90 
   78000    257.55407   -146.64618   -117.91564   -146.64618            0    1564.2414    17.970971    23.120805    21.988091            0            0            0    9136.1249    2230.2123    765.66733    1696.8446    3167.2037    -41.18853    451.81142    17.970971    23.120805    21.988091           90           90           90 
   78500    232.39997   -147.69587    -121.7713   -147.69587            0   -525.05863    18.003777    23.306445    22.156029            0            0            0    9296.7594    577.85041   -1447.0547   -705.97159    1592.1709   -1029.3001   -635.42395    18.003777    23.306445    22.156029           90           90           90 
   79000    238.65423    -147.8056   -121.18336    -147.8056            0    5329.9651    17.877185    23.334513    21.937847            0            0            0    9151.4914    6550.7166     4815.854    4623.3246    1003.6809    661.82402   -32.117703    17.877185    23.334513    21.937847           90           90           90 
   79500    249.34161   -146.33364    -118.5192   -146.33364            0    1812.9712    17.967992    23.352939    21.925563            0            0            0    9200.0852    2585.5263    1840.5128    1012.8746    1387.7114    722.29858    563.91444    17.967992    23.352939    21.925563           90           90           90 
   80000    243.05805   -145.82958   -118.71609   -145.82958            0    2691.6199    18.012836     23.29339    21.989792            0            0            0    9226.4773    2170.2318    2409.2822    3495.3458   -516.28869     1538.654   -1325.6542    18.012836     23.29339    21.989792           90           90           90 
   80500    248.20064   -147.43204   -119.74489   -147.43204            0    3137.6965    17.996462    23.203248    22.081161            0            0            0    9220.5709    5177.8728     3405.476     829.7409   -1028.2914   -1139.2222   -438.64488    17.996462    23.203248    22.081161           90           90           90 
   81000    232.84415    -146.3204   -120.34629    -146.3204            0    2152.3159    17.917569    23.211509    22.132024            0            0            0    9204.5716    3840.1335    2056.3883    560.42581   -2239.9083    540.62425   -456.22592    17.917569    23.211509    22.132024           90           90           90 
   81500    241.10164   -147.50765    -120.6124   -147.50765            0    86.272884    17.861478    23.339397    21.899777            0            0            0    9129.4942   -968.99526   -707.40303    1935.2169    -33.25006   -860.78791     -522.665    17.861478    23.339397    21.899777           90           90           90 
   82000    248.46376   -148.86193   -121.14542   -148.86193            0    1751.3318    17.984026    23.489181    21.878336            0            0            0    9242.0664      2521.39    743.98748     1988.618   -3760.0636    893.79007   -552.21468    17.984026    23.489181    21.878336           90           90           90 
   82500    253.15622    -146.5441   -118.30414    -146.5441            0    3992.1925    17.962179    23.257829      21.9785            0            0            0    9181.7668    1903.2572    2943.1892    7130.1312   -1610.4404   -1456.1095   -2141.0806    17.962179    23.257829      21.9785           90           90           90 
   83000    240.40046   -145.52538   -118.70835   -145.52538            0    1934.9199    18.053377    23.083294    22.305723            0            0            0    9295.4954    626.65024    1173.0211    4005.0885   -492.24444    1852.1859    658.30209    18.053377    23.083294    22.305723           90           90           90 
   83500    241.81598   -146.31826   -119.34332   -146.31826            0    5136.8358     17.95551    22.910926    22.136254            0            0            0    9106.3538    5509.3091    6163.2492    3737.9491    1975.2591   -479.52864    -1394.045     17.95551    22.910926    22.136254           90           90           90 
   84000    258.41748   -146.80594   -117.97908   -146.80594            0    4067.0834    18.010448    23.302641    21.893446            0            0            0    9188.4823    2315.5816    4006.5859    5879.0827    200.10685    728.33221   -1800.4085    18.010448    23.302641    21.893446           90           90           90 
   84500    241.30848    -145.9138   -118.99548    -145.9138            0    1327.4784    17.979277    23.627724    21.805196            0            0            0    9263.0521    1728.9829    2127.2534    126.19887    988.01945   -1168.4146   -726.97833    17.979277    23.627724    21.805196           90           90           90 
   85000    240.78912    -146.9772   -120.11681    -146.9772            0    3730.8849    17.879765    23.350324    21.961203            0            0            0    9168.7649    7183.9557    1469.0652    2539.6337   -3038.6258    207.25473    540.08203    17.879765    23.350324    21.961203           90           90           90 
   85500    254.64366   -146.82445   -118.41856   -146.82445            0    2075.1453    17.925156    23.076032    22.188592            0            0            0    9178.1215    3350.0582    4123.2141   -1247.8363    2002.4089    43.973108    505.05171    17.925156    23.076032    22.188592           90           90           90 
   86000    242.23559   -147.06427   -120.04253   -147.06427            0    1079.1936    18.010803    23.114196    22.161584            0            0            0    9225.9829    949.82107     2936.947   -649.18717   -2630.5347   -482.18052    895.12433    18.010803    23.114196    22.161584           90           90           90 
   86500    236.75214   -147.07508   -120.66502   -147.07508            0    2449.9629    18.024265    23.319237    21.929364            0            0            0    9217.1772    2563.8929    842.57468    3943.4212    -2925.207     597.0713   -1227.2426    18.024265    23.319237    21.929364           90           90           90 
   87000    236.13776   -147.73783   -121.39631   -147.73783            0    1400.4736     17.87101    23.368172     21.89903            0            0            0     9145.316     2411.207    288.96418    1501.2495   -391.39741   -1470.1159    1133.4854     17.87101    23.368172     21.89903           90           90           90 
   87500    239.76129   -147.00568   -120.25994   -147.00568            0    1647.8081    17.865103    23.397091    22.115728            0            0            0     9244.185    2285.0564   -43.247683    2701.6154    1615.9268    1228.2657   -1578.9584    17.865103    23.397091    22.115728           90           90           90 
   88000    241.59978   -146.94534   -119.99452   -146.94534            0    430.97871    17.918423     23.26969    22.119215            0            0            0    9222.7429   -2790.6034    3762.6117     320.9278   -2562.7029   -359.79116    309.01505    17.918423     23.26969    22.119215           90           90           90 
   88500    236.14972   -146.86133   -120.51848   -146.86133            0    3843.9792    18.036834     23.09487     21.91922            0            0            0     9130.634     6016.845    2597.9066     2917.186    609.05847   -1882.3769   -150.33888    18.036834     23.09487     21.91922           90           90           90 
   89000    235.25408   -148.34512   -122.10218   -148.34512            0    1662.7606    18.131107    23.093559    21.897596            0            0            0    9168.7813    2448.8348    174.97792    2364.4691    -156.1207   -452.44197   -924.67583    18.131107    23.093559    21.897596           90           90           90 
   89500    232.89205   -148.53747   -122.55801   -148.53747            0   -78.458138    17.986415    23.231765     22.04902            0            0            0    9213.3187   -1864.1381    360.59666     1268.167     983.1978   -320.92632   -707.59182    17.986415    23.231765     22.04902           90           90           90 
   90000    236.06754   -148.95227   -122.61858   -148.95227            0    2191.9055    17.723604    23.538704    22.138763            0            0            0    9236.0855    5149.3355   -1132.7012    2559.0823   -2055.9894    507.85178   -184.76549    17.723604    23.538704    22.138763           90           90           90 
   90500    243.20368   -147.11249   -119.98275   -147.11249            0    1913.7783    17.655525    23.591562     22.05185            0            0            0    9185.0677    438.12414    1227.2646    4075.9462   -1773.0037   -645.10339    1788.6675    17.655525    23.591562     22.05185           90           90           90 
   91000    242.06734   -147.27656   -120.27359   -147.27656            0   -867.09176    17.947686    23.243724    21.972417            0            0            0    9166.2566    754.24993   -3093.9065   -261.61869   -871.23875   -293.31823   -470.39894    17.947686    23.243724    21.972417           90           90           90 
   91500    235.82662   -148.96785   -122.66103   -148.96785            0    1693.6122    18.228037    22.910874    22.040431            0            0            0    9204.5307    1573.7314    5668.1372   -2161.0318   -1101.3161    17.555202    867.34107    18.228037    22.910874    22.040431           90           90           90 
   92000    240.18153   -147.67895   -120.88634   -147.67895            0    2164.9476    18.203026    23.004007    22.054235            0            0            0    9235.0466    2779.6307    776.38193    2938.8303   -1842.0268    251.68868    245.42902    18.203026    23.004007    22.054235           90           90           90 
   92500    235.17625   -146.73039   -120.49613   -146.73039            0    2400.2642    17.906592    23.272779    21.950725            0            0            0    9147.6605   -17.198794     4937.304    2280.6873    2047.4053    324.21011   -1351.7968    17.906592    23.272779    21.950725           90           90           90 
   93000    245.44597   -147.53818   -120.15831   -147.53818            0    958.52964    17.792547    23.516258    21.965131            0            0            0    9190.5209    233.82598    1140.9572    1500.8057   -1462.3362   -798.44578    1368.4535    17.792547    23.516258    21.965131           90           90           90 
   93500    237.12578   -147.20723   -120.75549   -147.20723            0    3959.9972    17.831726    23.397005    21.967287            0            0            0    9164.9492    4819.9757    3515.2341    3544.7817    1598.5737    1146.9386     782.4743    17.831726    23.397005    21.967287           90           90           90 
   94000    239.51274   -147.37445   -120.65644   -147.37445            0    1269.9447    17.950846     23.21222    22.061843            0            0            0    9192.7066    4007.1791    1365.1201   -1562.4651   -599.77776    1279.1589   -601.61086    17.950846     23.21222    22.061843           90           90           90 
   94500    245.11191   -148.43655   -121.09395   -148.43655            0    1769.6536    18.004955    23.106455    22.019119            0            0            0    9160.6293    905.31854    1717.4849    2686.1572    328.61347    972.50493    330.23474    18.004955    23.106455    22.019119           90           90           90 
   95000    237.47644   -148.62401   -122.13316   -148.62401            0    2963.7666    17.981475    23.217017    21.961659            0            0            0    9168.4699    6104.6309    2944.0152   -157.34648    309.47602   -286.10293   -218.03427    17.981475    23.217017    21.961659           90           90           90 
   95500    240.08534   -147.29329   -120.51141   -147.29329            0   -285.73215    17.929552    23.434083    21.998902            0            0            0    9243.1163   -2944.0894   -2513.6262    4600.5191    838.83612   -390.55817   -2296.2788    17.929552    23.434083    21.998902           90           90           90 
   96000    247.87225   -146.69495   -119.04443   -146.69495            0     2670.808    17.858537      23.3682    21.902621            0            0            0    9140.4424    3984.5347    3661.1489    366.74047   -1023.9455    543.72604     -899.869    17.858537      23.3682    21.902621           90           90           90 
   96500    249.18747   -146.73863   -118.94139   -146.73863            0    5246.1553    17.905811    23.196123    21.977902            0            0            0    9128.4203    4379.8934    6901.3329    4457.2395    629.01828   -1568.2625    982.04319    17.905811    23.196123    21.977902           90           90           90 
   97000    240.86624   -146.75301   -119.88402   -146.75301            0   -1335.0613    18.088641    23.172508    22.109552            0            0            0    9267.4219   -2160.9104    15.009812   -1859.2832   -26.645553    215.49173    1547.7098    18.088641    23.172508    22.109552           90           90           90 
   97500    245.16998   -147.18529   -119.83621   -147.18529            0    2099.8968    18.030967    23.220063    21.925965            0            0            0    9179.9672    3123.1914    4001.9175    -825.4184   -523.00537   -398.86914    839.58583    18.030967    23.220063    21.925965           90           90           90 
   98000    243.64633   -148.38813   -121.20901   -148.38813            0    5098.4752    17.838652    23.356299      21.8642            0            0            0    9109.6074    4284.9778    4156.7361    6853.7116    437.21893    1826.0715    723.53615    17.838652    23.356299      21.8642           90           90           90 
   98500    241.85809   -146.90827   -119.92864   -146.90827            0    581.51212    17.791613    23.485051    22.148474            0            0            0    9254.4505    2047.3477   -398.65446     95.84316   -329.69556   -38.429022   -438.64793    17.791613    23.485051    22.148474           90           90           90 
   99000    247.46891   -148.02708   -120.42155   -148.02708            0    1443.9057    17.767525    23.253294     22.14935            0            0            0    9151.0811    3064.0811   -318.99391      1586.63    552.51323   -300.00225    272.87177    17.767525    23.253294     22.14935           90           90           90 
   99500    248.43029   -145.71392   -118.00114   -145.71392            0    2583.1192      17.9889    23.116756    21.960445            0            0            0    9132.1417    2188.5053    2195.9969    3364.8553    667.46409    806.32253   -1484.5356      17.9889    23.116756    21.960445           90           90           90 
  100000    242.84333   -146.53865   -119.44911   -146.53865            0   -384.65792    18.250594    23.227293     21.82344            0            0            0    9251.2156   -120.34504   -210.26719   -823.36152    464.11673   -1053.2603    1365.3057    18.250594    23.227293     21.82344           90           90           90 
  100500    248.02209   -147.12578   -119.45854   -147.12578            0    2461.4843    18.062578    23.230764    21.955834            0            0            0    9212.8318    3137.6727    2239.5056    2007.2747   -1188.6063   -1158.5107   -364.78288    18.062578    23.230764    21.955834           90           90           90 
  101000     250.3586   -148.16588     -120.238   -148.16588            0    2829.4097    17.712555    23.231028    22.122026            0            0            0    9102.7902    2121.7562    1533.6694    4832.8037    214.94483    276.08633    47.786847    17.712555    23.231028    22.122026           90           90           90 
  101500    240.86602   -147.11313   -120.24416   -147.11313            0    824.86112    17.771964    23.467081    22.146852            0            0            0      9236.48    3376.4812   -1996.2804    1094.3825    1135.8058     319.6912    149.20798    17.771964    23.467081    22.146852           90           90           90 
  102000    249.11571     -148.123   -120.33376     -148.123            0    2805.2939    17.930692    23.426965    21.835312            0            0            0    9172.1782    2466.0212    1154.0477    4795.8128   -861.62206    1392.1078    48.626696    17.930692    23.426965    21.835312           90           90           90 
  102500    247.25061   -148.19635   -120.61517   -148.19635            0    1507.4222     18.11934    23.249754    21.846597            0            0            0    9203.3201   -273.36679    3187.2686    1608.3648    1910.0299   -166.63191   -467.35124     18.11934    23.249754    21.846597           90           90           90 
  103000    243.19482      -146.64   -119.51125      -146.64            0   -1349.9861    18.098896    23.172134    22.082716            0            0            0    9261.2712   -1052.7158   -1666.2029   -1331.0396   -995.20941   -749.71624   -319.74024    18.098896    23.172134    22.082716           90           90           90 
  103500    237.84065   -147.41873   -120.88724   -147.41873            0    4873.8575     17.83605     23.06279    21.977566            0            0            0    9040.4515    8317.0536    4149.0262    2155.4926   -1162.9619    7.9653481    1414.3536     17.83605     23.06279    21.977566           90           90           90 
  104000    243.46843   -147.13741   -119.97814   -147.13741            0    1361.1326    17.922218    23.441891    22.114918            0            0            0     9291.155   -105.29329   -231.91934    4420.6103   -2042.0619    611.43232   -62.738998    17.922218    23.441891    22.114918           90           90           90 
  104500    240.06585   -147.69491    -120.9152   -147.69491            0     2528.577    17.878354    23.417995     21.96661            0            0            0    9196.8751    3107.4372    2126.9759     2351.318   -1736.8508    792.65252    646.95344    17.878354    23.417995     21.96661           90           90           90 
  105000     250.7315   -146.78239   -118.81291   -146.78239            0    1832.2128    17.889226    23.287823    21.872203            0            0            0    9111.9843    2412.3114    -128.1467    3212.4738    50.014444   -623.72158   -1003.4059    17.889226    23.287823    21.872203           90           90           90 
  105500    249.32288   -146.75958   -118.94723   -146.75958            0    256.56655    18.058233     23.36549    22.135071            0            0            0    9339.6602    2124.6924    1354.1707   -2709.1635      2828.97    1086.6766    279.35357    18.058233     23.36549    22.135071           90           90           90 
  106000    244.10943   -147.10587   -119.87509   -147.10587            0    3931.8955    17.915495    23.087273    21.993612            0            0            0    9096.9961    3218.6586    4128.2233    4448.8045   -1602.9273   -2718.4557   -1873.9067    17.915495    23.087273    21.993612           90           90           90 
  106500    237.60765   -146.83884   -120.33335   -146.83884            0    3563.8566    18.048319    23.251933    22.099052            0            0            0    9274.0504    3111.1273    4275.5346    3304.9079    10.780737    752.16263    180.88612    18.048319    23.251933    22.099052           90           90           90 
  107000    248.23434   -147.99073   -120.29982   -147.99073            0    2921.6635    17.893788    23.249168    21.949662            0            0            0    9131.4032    5911.2791    1917.6785    936.03304    219.65267   -377.51955   -1072.1622    17.893788    23.249168    21.949662           90           90           90 
  107500     246.3966   -147.66164   -120.17573   -147.66164            0   -715.87342    17.919152    23.369075    22.064341            0            0            0    9239.5312   -1229.7727    1994.4839   -2912.3315    322.26325   -305.49901   -223.43811    17.919152    23.369075    22.064341           90           90           90 
  108000      245.137    -146.3659    -119.0205    -146.3659            0   -283.13046    17.918325    23.315168    22.127444            0            0            0     9244.155    2631.2067   -1829.1039   -1651.4942     2313.694    122.22588    311.13466    17.918325    23.315168    22.127444           90           90           90 
  108500    247.78334   -146.18279   -118.54218   -146.18279            0    3442.5808    17.952025    23.116518    21.901944            0            0            0    9089.0506    3153.7436    6043.4373    1130.5616   -1413.8506     -203.309    804.95159    17.952025    23.116518    21.901944           90           90           90 
  109000    249.37635   -148.07879   -120.26049   -148.07879            0    1819.2301    18.068928     23.20821    21.940453            0            0            0    9200.6736   -250.24298     3341.396    2366.5374   -312.10164   -604.41047   -791.99646    18.068928     23.20821    21.940453           90           90           90 
  109500     258.3505   -148.33174   -119.51235   -148.33174            0     2044.322    17.967684    23.319356    22.154953            0            0            0    9282.8101    1151.1634    2729.6294    2252.1732   -1854.0059   -1545.6227    255.53924    17.967684    23.319356    22.154953           90           90           90 
  110000    240.60191   -146.91781    -120.0783   -146.91781            0    4958.3288     17.79618    23.240028    22.081183            0            0            0    9132.4179    6583.1433     3024.068    5267.7751    2335.2242   -1004.7051    718.74831     17.79618    23.240028    22.081183           90           90           90 
  110500    240.95777   -148.13536   -121.25616   -148.13536            0    1914.8832    17.903329    23.438073    21.930241            0            0            0    9202.3575    2591.4605    3081.3316    71.857615     -2679.62   -869.91856   -656.25914    17.903329    23.438073    21.930241           90           90           90 
  111000    240.08322   -147.16588   -120.38423   -147.16588            0   -894.55871    18.036117    23.431234    21.889102            0            0            0    9250.5201   -2692.9266    663.35238   -654.10187    1545.5122     232.6156     158.1336    18.036117    23.431234    21.889102           90           90           90 
  111500    241.78723   -146.64655   -119.67483   -146.64655            0    4318.1754    18.002938    22.856597    22.086441            0            0            0    9088.2591    4176.9067    6452.1868    2325.4326    -1325.845   -694.17916    -1411.254    18.002938    22.856597    22.086441           90           90           90 
[...]
  373500    237.80982   -147.78657   -121.25853   -147.78657            0    2873.0274    17.814879    23.385659    22.111583            0            0            0    9211.9658    5117.3144   -75.523509    3577.2913    329.32465    598.17653   -1008.1947    17.814879    23.385659    22.111583           90           90           90 
  374000    245.95359   -146.50484   -119.06834   -146.50484            0    2603.8201    17.708372    23.556353    21.946346            0            0            0    9154.8012       3004.9    779.76077    4026.7997   -920.82279   -28.887416    272.85235    17.708372    23.556353    21.946346           90           90           90 
  374500    244.48975   -145.16071   -117.88751   -145.16071            0    1510.2716    17.864457    23.465282    21.961523            0            0            0    9206.1502    2249.8009   -367.72806    2648.7418   -1505.0757   -1459.0051   -804.59474    17.864457    23.465282    21.961523           90           90           90 
  375000    247.24567   -146.02436   -118.44374   -146.02436            0   -232.37772    18.105353    23.208276    22.085182            0            0            0    9280.0617   -2885.0147    1461.4874    726.39412   -1751.4411   -1025.9625    2161.3344    18.105353    23.208276    22.085182           90           90           90 
  375500    243.70764   -146.96134   -119.77539   -146.96134            0    3458.5577    18.070373    22.972348    21.999721            0            0            0    9132.4996    1693.9639    3509.7664    5171.9427   -1455.5353    1140.1291   -1300.4157    18.070373    22.972348    21.999721           90           90           90 
  376000    241.87598   -146.62244   -119.64081   -146.62244            0     512.5961    18.005462    23.212177    22.064711            0            0            0    9221.8573   -1151.8105    2376.0349    313.56396    1751.9035    70.743062    1883.6837    18.005462    23.212177    22.064711           90           90           90 
  376500    257.96324   -146.78943   -118.01324   -146.78943            0    2410.7439    17.883402    23.460743    22.033186            0            0            0     9244.197    1252.9285    1628.2864    4351.0169     2362.883   -1590.6027   -1557.9069    17.883402    23.460743    22.033186           90           90           90 
  377000    231.00035    -147.1125   -121.34406    -147.1125            0    1714.5044    17.793296     23.43015    21.921961            0            0            0    9139.2567    916.49457   -68.105115    4295.1236   -694.71735    1437.5739    486.58532    17.793296     23.43015    21.921961           90           90           90 
  377500    242.64706   -147.67985    -120.6122   -147.67985            0    2000.8468    17.929584    23.268365    22.004772            0            0            0     9180.217    4063.2409     1426.917    512.38261   -1038.9583    166.54224    1242.6372    17.929584    23.268365    22.004772           90           90           90 
  378000    237.56024   -146.74577   -120.24557   -146.74577            0    3158.7808    18.154571    23.221053    22.099471            0            0            0    9316.4356    2267.5115    1546.6529    5662.1781    349.56941   -256.62561    -878.4017    18.154571    23.221053    22.099471           90           90           90 
  378500    238.77554   -147.99906   -121.36329   -147.99906            0    2221.3042    17.969215    23.101803    21.968539            0            0            0    9119.6075    4422.9613    2382.4965   -141.54526    365.99534   -237.40153   -849.84139    17.969215    23.101803    21.968539           90           90           90 
  379000     235.0937    -146.3234   -120.09835    -146.3234            0   -996.96149    17.899103    23.325876    22.142686            0            0            0    9244.8426    1449.8953   -2925.1472   -1515.6325      1996.38     2340.572    1211.6134    17.899103    23.325876    22.142686           90           90           90 
  379500    245.77535   -148.14218   -120.72557   -148.14218            0    3942.1983    17.828231    23.409979    22.091063            0            0            0    9219.8934    3564.9159    456.03317    7805.6458    449.33336   -121.68554   -364.28446    17.828231    23.409979    22.091063           90           90           90 
  380000    233.84754   -146.70451   -120.61847   -146.70451            0    2758.5051    17.856463    23.394813    21.865361            0            0            0    9134.2241    1944.6034    4667.1702    1663.7415   -793.96771    473.23518    1789.9469    17.856463    23.394813    21.865361           90           90           90 
  380500    240.87305   -148.84636   -121.97661   -148.84636            0    2005.5504    18.085773    23.393719    22.013509            0            0            0    9313.7727    3021.7484   -391.18809     3386.091    -1572.364   -25.283881   -211.69436    18.085773    23.393719    22.013509           90           90           90 
  381000    234.85923   -146.45221   -120.25331   -146.45221            0    1755.4908    18.027595    23.074209    22.089007            0            0            0    9188.4197    1962.8462    2487.0974    816.52872     1475.574   -482.93154    595.66715    18.027595    23.074209    22.089007           90           90           90 
  381500    260.36727   -146.46684   -117.42248   -146.46684            0    4040.2988    17.928248    23.100666    22.156781            0            0            0    9176.3298    5816.9618    2289.2202    4014.7146   -1151.1827   -906.17424     1500.777    17.928248    23.100666    22.156781           90           90           90 
  382000    239.50892   -146.17101   -119.45343   -146.17101            0   -1417.8589    17.923016    23.454369    22.103878            0            0            0    9291.8739   -3639.5004    -1200.785    586.70881    611.27312   -1156.3605    2308.5392    17.923016    23.454369    22.103878           90           90           90 
  382500    269.39993   -147.59764   -117.54567   -147.59764            0    1239.2457    17.823187    23.446589    21.850188            0            0            0    9131.0392    2370.0856   -1437.2882    2784.9396    977.21599    1795.7499    19.109192    17.823187    23.446589    21.850188           90           90           90 
  383000    252.78389   -146.94703   -118.74861   -146.94703            0    2116.5126    18.021989    23.447909    22.061611            0            0            0    9322.7505    2611.9523    5369.1453   -1631.5596    845.78796    758.23323    263.91276    18.021989    23.447909    22.061611           90           90           90 
  383500    255.65249   -145.80023   -117.28181   -145.80023            0    2871.1143    17.974575    23.167555    22.063014            0            0            0    9187.6338    4522.3959    3238.7899     852.1571   -1356.2857    88.425942    -265.2626    17.974575    23.167555    22.063014           90           90           90 
  384000     241.9475   -146.98653   -119.99692   -146.98653            0    1819.1754    17.955984    23.101637    22.052553            0            0            0    9147.6778   -441.06085    3521.5619    2377.0253    1822.1884   -2078.3148    594.73996    17.955984    23.101637    22.052553           90           90           90 
  384500    246.00738   -148.35577   -120.91327   -148.35577            0    1814.0179    18.027559    23.293454    22.053526            0            0            0    9260.8073    2537.3028    1953.5466    951.20429    1446.8855    257.25332    928.03012    18.027559    23.293454    22.053526           90           90           90 
  385000    237.92303   -147.83206   -121.29139   -147.83206            0    2925.6674    17.891398    23.380902    21.888416            0            0            0    9156.2974    865.19847    4674.8569    3236.9469   -598.97927   -772.50043   -383.59331    17.891398    23.380902    21.888416           90           90           90 
  385500    240.19283   -148.60664   -121.81277   -148.60664            0    714.95395     17.88972    23.510482    21.947126            0            0            0    9230.8718    716.87641   -567.07221    1995.0576     1756.653    178.65482   -148.60745     17.88972    23.510482    21.947126           90           90           90 
  386000    245.91667   -147.43311   -120.00073   -147.43311            0    4096.3266     17.85199    23.240848    22.180326            0            0            0    9202.5152    4272.1165    4262.1686    3754.6949   -1039.1975    447.32162   -762.28541     17.85199    23.240848    22.180326           90           90           90 
  386500    248.60174   -146.10245   -118.37055   -146.10245            0    2567.8504    17.919776    22.941155    22.263476            0            0            0    9152.5227    1874.5231    5099.1681    729.85985    2826.8687   -1275.1694   -856.59154    17.919776    22.941155    22.263476           90           90           90 
  387000    243.53898   -146.82034    -119.6532   -146.82034            0    395.74675    18.222097    23.168385    22.038692            0            0            0    9304.2188   -1898.5615   -237.83296    3323.6347   -244.14394     2532.252    587.05973    18.222097    23.168385    22.038692           90           90           90 
  387500    242.31616   -146.38902   -119.35829   -146.38902            0    2550.7061    18.103427    23.321193    21.696234            0            0            0    9160.0092   -379.63025    1776.3513    6255.3973    1565.9364   -61.835145    1756.6845    18.103427    23.321193    21.696234           90           90           90 
  388000    228.73657   -147.53176   -122.01585   -147.53176            0    835.99676    17.864653    23.384371    21.875055            0            0            0    9138.3843    2950.8164   -1623.9801     1181.154    -1612.233    2074.7646    213.35544    17.864653    23.384371    21.875055           90           90           90 
  388500    230.70972   -147.38224   -121.64622   -147.38224            0    421.70554    17.840243    23.407922    22.215175            0            0            0     9277.124    646.20384    1581.4999   -962.58708   -163.45531     995.8202    1272.8396    17.840243    23.407922    22.215175           90           90           90 
  389000    244.01761   -148.30329   -121.08276   -148.30329            0    2697.9707    17.853615    23.236357    22.056544            0            0            0    9150.2232    2625.6173    1705.0363    3763.2584   -685.12394    409.18685   -406.15904    17.853615    23.236357    22.056544           90           90           90 
  389500    236.76184   -147.96147   -121.55033   -147.96147            0    562.70984    18.051389    23.302112     22.00143            0            0            0    9254.5826    1426.5816    1074.1586   -812.61064    879.21506    1347.4392    769.41848    18.051389    23.302112     22.00143           90           90           90 
  390000    236.66696   -148.41073   -122.01018   -148.41073            0    2075.5324    17.988497    23.171676    21.937841            0            0            0    9144.2104    1326.2498    1808.7919    3091.5554    1352.0409    648.67201    332.99682    17.988497    23.171676    21.937841           90           90           90 
  390500     243.2588   -147.28117   -120.14528   -147.28117            0      1138.49    17.941275    23.232016    22.052999            0            0            0    9191.9545    728.35484    544.18508    2142.9301   -415.68342    1169.9597   -910.73439    17.941275    23.232016    22.052999           90           90           90 
  391000    250.03599   -146.80536   -118.91347   -146.80536            0    4472.2969    17.940179    23.422612    22.056381            0            0            0    9268.2204    4698.0078    7148.6857    1570.1971    1706.2544    2234.9848    662.62791    17.940179    23.422612    22.056381           90           90           90 
  391500    258.48375    -146.0312   -117.19695    -146.0312            0    2868.7107    17.857745    23.412073    21.896772            0            0            0     9154.752    2871.2374    3057.0831    2677.8116    417.59197    61.177521    -368.5274    17.857745    23.412073    21.896772           90           90           90 
  392000    229.45545   -147.64123   -122.04513   -147.64123            0    2319.9977    17.917963    23.275604    22.095197            0            0            0    9214.8334    2300.0241     1057.434    3602.5349    277.83005   -58.154165   -44.218621    17.917963    23.275604    22.095197           90           90           90 
  392500    229.20039   -147.36888   -121.80123   -147.36888            0    3106.1379    17.956692    23.008054    22.155025            0            0            0    9153.3163    5465.4996    4749.8343   -896.92021    562.31899    191.88059    631.74714    17.956692    23.008054    22.155025           90           90           90 
  393000    257.90278   -148.07574   -119.30629   -148.07574            0   -500.69331    18.120635    23.115926    22.135101            0            0            0    9271.8459   -3245.8721    2130.5543   -386.76221   -871.00581    919.05984    491.79743    18.120635    23.115926    22.135101           90           90           90 
  393500    256.46702   -145.39142   -116.78214   -145.39142            0    80.981339    18.049954    23.315938    21.823631            0            0            0    9184.5104    2204.4122   -3430.9379    1469.4697   -903.45291   -328.45497   -277.90469    18.049954    23.315938    21.823631           90           90           90 
  394000    250.87076   -148.30196   -120.31695   -148.30196            0    3508.8211    17.839851    23.456923    21.897907            0            0            0    9163.5739     2626.367    3956.3988    3943.6976    1196.4959    717.30437   -431.34686    17.839851    23.456923    21.897907           90           90           90 
  394500    232.03782   -146.70622   -120.82205   -146.70622            0    3798.6622     17.78097    23.374909    22.204529            0            0            0     9228.836    2113.4418    6120.6098    3161.9349     -1143.41    733.86155   -357.12404     17.78097    23.374909    22.204529           90           90           90 
  395000    247.88765   -146.44961   -118.79737   -146.44961            0    501.83905    17.910365    23.149411    22.146726            0            0            0    9182.3517    2571.9394   -1191.5222    125.10002    695.83104   -654.34453   -171.48671    17.910365    23.149411    22.146726           90           90           90 
  395500    244.75578   -147.75176   -120.44889   -147.75176            0    1780.6372     18.11568    23.223661     21.95967            0            0            0    9238.7054   -139.21582    2831.4299    2649.6976    134.84567   -1556.1742   -18.370854     18.11568    23.223661     21.95967           90           90           90 
  396000    243.03737   -148.28823   -121.17704   -148.28823            0    6476.2244    18.065656    23.288164     21.74776            0            0            0    9149.6293    7942.2677    6877.9002    4608.5054   -456.01878   -370.66223   -555.71966    18.065656    23.288164     21.74776           90           90           90 
  396500    244.36612   -148.96798   -121.70857   -148.96798            0    2358.9407    17.896141    23.411143    21.923591            0            0            0    9185.3075    6097.5715   -900.32668    1879.5773    1302.8248     575.5895   -380.07818    17.896141    23.411143    21.923591           90           90           90 
  397000    238.44925   -146.80795   -120.20858   -146.80795            0    1122.2314    17.802134     23.34692    22.241099            0            0            0    9243.9569    2294.7654    129.99856     941.9303   -1369.0105    889.03374    -686.6451    17.802134     23.34692    22.241099           90           90           90 
  397500    239.53757   -146.30772   -119.58695   -146.30772            0    2943.9522    17.771784    23.133512    22.134887            0            0            0    9100.1786    6292.1799    1750.1202    789.55655   -936.21284    969.28774   -1503.8723    17.771784    23.133512    22.134887           90           90           90 
  398000    243.76922   -147.65016   -120.45734   -147.65016            0   -1196.3977    18.063929     23.26071    21.920144            0            0            0    9210.4023   -2733.4334    107.17288   -962.93254    344.82627    487.10447   -857.95722    18.063929     23.26071    21.920144           90           90           90 
  398500    253.62968   -146.98143   -118.68865   -146.98143            0    963.18091    18.125498    23.360525    21.823093            0            0            0     9240.359    1028.6389    600.79854    1260.1053    2417.3255   -777.73571    412.69717    18.125498    23.360525    21.823093           90           90           90 
  399000    232.53177   -148.80371   -122.86444   -148.80371            0    1953.6357     17.86686    23.197826    21.920885            0            0            0    9085.6002    1100.7876    527.51261    4232.6069   -393.61071   -634.10761    447.76397     17.86686    23.197826    21.920885           90           90           90 
  399500     239.7995   -147.59994   -120.84995   -147.59994            0    2810.8811    17.833738    23.302939    22.240684            0            0            0    9242.7503    2763.0094    1947.1491     3722.485    466.05873    835.39008    642.39656    17.833738    23.302939    22.240684           90           90           90 
  400000    234.03615     -147.834   -121.72691     -147.834            0    4615.3883    17.779372     23.20531    22.065749            0            0            0    9103.7945    2109.9075     4605.158    7131.0994   -1280.5332    232.68563    767.95748    17.779372     23.20531    22.065749           90           90           90 
Loop time of 2129.65 on 1 procs for 400000 steps with 864 atoms

Performance: 8.114 ns/day, 2.958 hours/ns, 187.824 timesteps/s
74.6% CPU use with 1 MPI tasks x 1 OpenMP threads

MPI task timing breakdown:
Section |  min time  |  avg time  |  max time  |%varavg| %total
---------------------------------------------------------------
Pair    | 1837.5     | 1837.5     | 1837.5     |   0.0 | 86.28
Bond    | 0.064905   | 0.064905   | 0.064905   |   0.0 |  0.00
Neigh   | 249.47     | 249.47     | 249.47     |   0.0 | 11.71
Comm    | 8.2933     | 8.2933     | 8.2933     |   0.0 |  0.39
Output  | 17.954     | 17.954     | 17.954     |   0.0 |  0.84
Modify  | 14.748     | 14.748     | 14.748     |   0.0 |  0.69
Other   |            | 1.655      |            |       |  0.08

Nlocal:        864.000 ave         864 max         864 min
Histogram: 1 0 0 0 0 0 0 0 0 0
Nghost:        3766.00 ave        3766 max        3766 min
Histogram: 1 0 0 0 0 0 0 0 0 0
Neighs:         0.00000 ave           0 max           0 min
Histogram: 1 0 0 0 0 0 0 0 0 0
FullNghs:      173318.0 ave      173318 max      173318 min
Histogram: 1 0 0 0 0 0 0 0 0 0

Total # of neighbors = 173318
Ave neighs/atom = 200.59954
Ave special neighs/atom = 0.0000000
Neighbor list builds = 40000
Dangerous builds not checked

unfix		3
unfix		2

write_data	data.final.${pid}
write_data	data.final.0
System init for write_data ...

write_restart   restart.lmp.${pid}
write_restart   restart.lmp.0
System init for write_restart ...
Unloading pair style deepmd
Unloading compute style deepmd
Unloading fix style deepmd
Total wall time: 0:36:15
