LAMMPS data file via write_data, version 29 Sep 2021, timestep = 400000

1920 atoms
2 atom types

-0.04245525574655851 24.76686025574609 xlo xhi
-0.005933226721825946 24.73033822672259 ylo yhi
-0.09734629628437297 22.889718296284773 zlo zhi

Masses

1 1.008
2 15.999

Atoms # full

4 0 1 0 3.0103836178145817 1.5401633061859685 1.9681333342985572 0 0 0
5 0 2 0 3.4354318344562005 1.5634936580354584 2.8550325518806203 0 0 0
6 0 2 0 3.553332576588181 2.0497389507274923 1.3645523337257326 0 0 0
17 0 2 0 1.007840644215757 2.1383586798826775 1.8228220267209367 0 0 0
99 0 2 0 -0.0075957022072703426 3.7722254863293103 4.167356128912082 1 0 0
16 0 1 0 0.11712123064148305 1.8167592408039035 1.8859338210098917 0 0 0
11 0 2 0 2.5957842535899918 3.8244018852718766 3.9866235627625697 0 0 0
1455 0 2 0 1.4090981424744986 3.4580457238809967 -0.007613491590093127 0 0 1
18 0 2 0 0.015817224113286475 1.044581206233735 1.3101606426918635 0 0 0
19 0 1 0 4.701129115276234 3.317593297026188 0.33504690623672717 0 0 0
2 0 2 0 5.2406573291702845 1.707047451678538 3.6295293913194895 0 0 0
46 0 1 0 6.335799514436463 1.454598261985791 2.138464135144652 0 0 0
47 0 2 0 7.304867212782601 1.4725145659841326 2.013415157289825 0 0 0
48 0 2 0 6.0341451915991655 2.108956995587091 1.414908946537196 0 0 0
1 0 1 0 4.509252690403606 1.7154120788638496 4.205553824547469 0 0 0
54 0 2 0 7.46023744539425 3.8059614243853575 0.7549900551169927 0 0 0
386 0 2 0 5.386626505409674 0.13320374448513086 1.3658519128850644 0 1 0
32 0 2 0 11.747968671301699 2.0401448637788135 3.340614144722798 0 0 0
34 0 1 0 9.087412537644393 1.5436675170694034 2.299609822546497 0 0 0
35 0 2 0 9.793594250740634 1.7960691836782128 2.9757395959571085 0 0 0
36 0 2 0 9.231286413949025 2.1950892200287635 1.6533627646688176 0 0 0
49 0 1 0 10.524462738209415 3.1969352547754175 0.72042610727241 0 0 0
51 0 2 0 11.240483640818573 2.945622402335228 1.3342673464485042 0 0 0
31 0 1 0 11.144775028311775 1.7333566999712064 4.043324157924205 0 0 0
42 0 2 0 9.055974599549172 3.8999171113658577 3.9761330260752477 0 0 0
416 0 2 0 9.965576636844254 0.2932074283348315 1.3474797824426628 0 1 0
78 0 2 0 12.469543069560123 0.9397806863632093 1.3074116748671065 0 0 0
76 0 1 0 12.698049117095303 1.7807916554497984 1.7523055867191246 0 0 0
64 0 1 0 15.30566457397838 1.637144739656483 2.045979122086486 0 0 0
65 0 2 0 15.771459308842335 1.7753001897979415 2.85119420531763 0 0 0
66 0 2 0 15.7227575889321 0.9253529343431286 1.5563343552751592 0 0 0
77 0 2 0 13.603500742607677 1.6984214184261086 2.095858678954582 0 0 0
38 0 2 0 12.657118832794787 4.062176571818998 3.961970143230853 0 0 0
75 0 2 0 14.56229656381653 3.4655476507904592 4.479586400694594 0 0 0
80 0 2 0 16.21998989151149 2.739870888801617 1.0825450275503947 0 0 0
1514 0 2 0 13.713902403639443 3.1567007164382686 -0.0973139211325873 0 0 1
62 0 2 0 17.876421906650613 1.6507874573128116 3.6887585838846935 0 0 0
79 0 1 0 16.78996321294145 3.2356908289115927 0.49328970133842875 0 0 0
106 0 1 0 18.804103916538104 1.4654747906742278 1.9559666512298817 0 0 0
107 0 2 0 19.753412532624004 1.3416436481827705 2.230420525326657 0 0 0
108 0 2 0 18.59810854965015 2.330506801937405 1.5505103525006345 0 0 0
61 0 1 0 17.03497078494742 1.8207247042465529 4.142956786422634 0 0 0
1545 0 2 0 19.70658797710886 2.9995270040472533 0.11316372889027118 0 0 1
68 0 2 0 18.701802830062462 3.9698064521486653 4.025212192487491 0 0 0
446 0 2 0 17.736535122161143 0.08805646321133712 1.162528741266346 0 1 0
120 0 2 0 20.436433305026313 -0.003689194031294162 3.9830345029477634 0 0 0
92 0 2 0 24.0427759342626 1.435964524915654 3.555401659709267 0 0 0
94 0 1 0 21.63203643929735 1.8426495885831937 1.9288702114512022 0 0 0
95 0 2 0 22.030988694023343 1.8756184821499937 2.7710011802750913 0 0 0
96 0 2 0 22.04481371501629 2.5551934157793474 1.4238601427889086 0 0 0
109 0 1 0 23.19336938032812 3.554116154558913 0.36938336863066135 0 0 0
110 0 2 0 23.877626348339625 3.2011609890335206 0.9922544840054328 0 0 0
91 0 1 0 23.308793208125948 1.5087715715149257 4.2252451587758815 0 0 0
476 0 2 0 22.769067257625636 0.17707780382279442 1.0984144426398084 0 1 0
105 0 2 0 20.838801710474662 3.178335023898378 4.457168288792685 0 0 0
22 0 1 0 1.2890923333491449 4.346708051030769 1.3951156000685627 0 0 0
10 0 1 0 2.9812248685025606 4.56687613699955 3.5123063549948115 0 0 0
23 0 2 0 1.214187629984388 5.122925374594462 0.8058630799874307 0 0 0
24 0 2 0 2.0585969288756414 4.393048892803898 2.0119633221547746 0 0 0
124 0 1 0 2.600520966994883 7.885626364695259 2.2611325858271636 0 0 0
126 0 2 0 1.6484192372739659 7.79216625054996 2.1521944516052103 0 0 0
27 0 2 0 3.6745490531913627 6.470175945552812 0.9944265460738251 0 0 0
136 0 1 0 0.019205175343577026 7.8472103633790375 2.058066319304424 0 0 0
149 0 2 0 1.9259365651979221 5.940293792414936 4.372878778211875 0 0 0
12 0 2 0 3.946640922211753 4.525439261542067 3.5837417277390133 0 0 0
122 0 2 0 3.7261807311528083 7.271221128577773 3.687962124931276 0 0 0
150 0 2 0 0.3287567341859789 6.046055539482893 4.399828515868407 0 0 0
98 0 2 0 0.11634591873075034 4.406070035309683 2.748683606841786 1 0 0
21 0 2 0 4.7250774392602874 4.257865675870179 0.19188299363206146 0 0 0
25 0 1 0 4.498266470305233 6.160929312006312 0.5467902759278167 0 0 0
8 0 2 0 6.1406229256562375 4.807913345355441 3.0584167414646743 0 0 0
7 0 1 0 5.682253072836897 4.693792445448707 3.9094723301309413 0 0 0
52 0 1 0 7.330927823014486 4.457308652418801 1.5771952121465658 0 0 0
168 0 2 0 5.8243184524154845 7.044919989486768 2.0001492823950944 0 0 0
166 0 1 0 6.407407055715617 7.782941988249675 2.0879440263261277 0 0 0
167 0 2 0 6.259169808181251 8.14729213256881 2.979181051299774 0 0 0
1619 0 2 0 7.538668902569711 5.908604987134691 0.23675845132202178 0 0 1
156 0 2 0 8.057067303282649 7.788458057672003 1.8755682275160763 0 0 0
53 0 2 0 8.158750693606311 4.431983030280992 2.143136731186857 0 0 0
180 0 2 0 8.568305833933511 6.256760374866641 4.362206018402117 0 0 0
50 0 2 0 10.598815757312686 4.187200588503166 0.6150752594536304 0 0 0
41 0 2 0 10.366716551637316 4.529379465512307 3.4851792531478165 0 0 0
40 0 1 0 9.448316503130302 4.758496648406793 3.6409635129249476 0 0 0
55 0 1 0 10.871412159785482 5.911583608306588 0.4777923385785533 0 0 0
56 0 2 0 10.234034970607945 6.278399874071472 1.1540217356511548 0 0 0
57 0 2 0 11.71793567179769 6.167654236767972 0.8506055541352927 0 0 0
152 0 2 0 10.259151362356672 7.3583948487755775 3.332815414918069 0 0 0
154 0 1 0 9.01332992482203 7.66864346589075 2.1222961672231238 0 0 0
153 0 2 0 11.68695926971917 7.677996861640693 3.8162874852154545 0 0 0
37 0 1 0 12.183146180370517 4.635117147301785 3.3661099681726094 0 0 0
151 0 1 0 10.811233183795038 7.398667758811141 4.118379215763315 0 0 0
39 0 2 0 12.28153597217247 5.511214650322041 3.775685229709661 0 0 0
70 0 1 0 15.623215903988154 4.747628716106657 3.6932253352825697 0 0 0
196 0 1 0 12.760385103669572 7.302141721988113 2.139591925587188 0 0 0
72 0 2 0 15.333589206432393 4.691856676597319 2.7382687633403338 0 0 0
82 0 1 0 14.13210543104162 4.5193886927429325 1.4712561456828763 0 0 0
83 0 2 0 13.39856292534898 4.711755349679592 2.040808644981213 0 0 0
84 0 2 0 14.090414084300743 5.245967202271644 0.8459153318793341 0 0 0
184 0 1 0 15.400295411337666 7.973166268090741 2.0885539548019336 0 0 0
198 0 2 0 13.694583870812773 7.4937115575093785 2.0657820288903004 0 0 0
186 0 2 0 15.797285113818388 7.9712574653545065 2.953263788813341 0 0 0
71 0 2 0 15.111573763233887 5.568874713776645 3.9677770592966297 0 0 0
86 0 2 0 16.24258430284084 6.580016343857657 1.1825347782818016 0 0 0
197 0 2 0 12.382789000836956 7.911648034718146 1.5397445837834531 0 0 0
87 0 2 0 16.526185934293274 5.1966883174895475 0.5023646684862045 0 0 0
112 0 1 0 19.896816585597726 4.588103703164602 1.2274209862193022 0 0 0
113 0 2 0 19.033800002938193 4.593053761242045 1.6835061369938134 0 0 0
67 0 1 0 18.366041969602314 4.718547121240735 3.547335567606452 0 0 0
69 0 2 0 17.384282059698982 4.652993039721695 3.556084959185684 0 0 0
85 0 1 0 16.910694609467846 6.086064378622391 0.6240086694443295 0 0 0
226 0 1 0 18.597858887069783 7.878702072169695 2.0309686541916063 0 0 0
228 0 2 0 18.313440339002668 7.069387232678094 1.5950799211076943 0 0 0
183 0 2 0 17.8221150492843 7.706444472976447 3.527071678531297 0 0 0
181 0 1 0 17.133753179794688 7.699594360684872 4.272136925151256 0 0 0
1679 0 2 0 20.00084676834529 6.197196797611997 -0.05848937200785967 0 0 1
216 0 2 0 20.54353029391656 7.7430251116025515 2.14204956970087 0 0 0
114 0 2 0 20.522732066089823 4.49418514064147 1.9929425223018788 0 0 0
240 0 2 0 19.25175080725147 5.996755662926164 4.196415428065428 0 0 0
111 0 2 0 23.266830435591245 4.531542660316441 0.47648676000904455 0 0 0
137 0 2 0 24.367707703584152 7.747916451117056 2.9452245174198217 -1 0 0
138 0 2 0 24.369593789644703 7.117697906946764 1.545383152845118 -1 0 0
97 0 1 0 24.369006045378313 4.434383666609226 3.5650968940760728 0 0 0
102 0 2 0 22.57156033487155 4.642372606387579 3.246214422479976 0 0 0
100 0 1 0 21.606916698670922 4.634039960774688 3.4278212501732606 0 0 0
115 0 1 0 23.301824991608093 6.016577004353917 0.8257056360270044 0 0 0
116 0 2 0 22.470339420597554 6.37702909934916 1.2938775499950124 0 0 0
214 0 1 0 21.491819405806105 7.710314727137214 2.0538245797308012 0 0 0
213 0 2 0 22.305814444391054 7.465156009584946 3.451387794795512 0 0 0
101 0 2 0 21.36766734390485 5.413898224971471 3.989342382294635 0 0 0
211 0 1 0 23.019325186674145 7.352803934320199 4.134200638430457 0 0 0
117 0 2 0 23.230823705091602 6.458666493941225 -0.06218953352123724 0 0 0
125 0 2 0 2.8328773206509457 8.37099754874445 1.5012837682627653 0 0 0
130 0 1 0 3.1232037294045125 10.612119838569658 3.460220722177296 0 0 0
142 0 1 0 1.6870583241905333 10.62409160218729 1.2049453776941161 0 0 0
143 0 2 0 2.3667786405740667 10.532082049894697 1.9553992923363142 0 0 0
144 0 2 0 1.6772842591463744 9.760222852391498 0.7217914668479385 0 0 0
132 0 2 0 2.9902868300946546 11.493401570528532 3.783909910293542 0 0 0
218 0 2 0 0.13059329761867966 10.109868309906549 3.9937634930760595 1 0 0
131 0 2 0 4.088335736333136 10.614284982948124 3.30458581724312 0 0 0
219 0 2 0 0.3747425858997028 10.696464063780372 2.6457253053076792 1 0 0
135 0 2 0 2.1080678260457915 9.585701762219017 4.301559616959041 0 0 0
1709 0 2 0 1.9517950755563171 11.866533217366998 -0.09163406820792375 0 0 1
127 0 1 0 5.941214485739257 10.830243817043062 3.783302442161289 0 0 0
129 0 2 0 6.574854927461523 10.581954479643494 3.130339310901816 0 0 0
139 0 1 0 4.534589238165597 9.355276596398564 0.6086820077974348 0 0 0
140 0 2 0 5.1894014699047695 8.989016351434435 1.2189704663644607 0 0 0
141 0 2 0 4.653866694288327 10.340878091623168 0.6467881939965144 0 0 0
172 0 1 0 7.644853349281462 10.554482673276071 1.309284587028701 0 0 0
173 0 2 0 7.653376048202232 9.923595205407024 0.5902935401117293 0 0 0
145 0 1 0 4.593875349098762 12.176378546215625 0.8902951452866513 0 0 0
147 0 2 0 5.380869192671023 12.310522773050012 1.4254104879976814 0 0 0
300 0 2 0 6.967313779640483 12.118342133453352 4.207541454572888 0 0 0
1740 0 2 0 7.6518723489506595 11.984363939259572 0.16871324064234305 0 0 1
155 0 2 0 9.65052904534246 8.297958128205487 1.652795878886056 0 0 0
174 0 2 0 8.510664754425814 10.393621700940399 1.710117602832207 0 0 0
160 0 1 0 9.666448201827261 10.671806566428108 3.280495442424187 0 0 0
161 0 2 0 10.568916101399436 10.415070462833727 3.545924660484893 0 0 0
169 0 1 0 10.961393560171212 8.943819362744533 0.7251634796022708 0 0 0
171 0 2 0 11.01363997655447 9.942792458415466 0.6921006135208654 0 0 0
162 0 2 0 9.355266146949367 11.472265695369302 3.669855207440796 0 0 0
175 0 1 0 11.260199412821217 11.795209707270983 0.8028768042076333 0 0 0
165 0 2 0 8.81410931666298 9.572039839953314 4.070592125958351 0 0 0
176 0 2 0 10.680824139513087 12.182198717755494 1.4148758969324982 0 0 0
177 0 2 0 11.243419255491059 12.161443914927895 -0.07545199267386647 0 0 0
157 0 1 0 12.521252096852 10.270240764916482 3.4094995308191542 0 0 0
185 0 2 0 15.826683785925097 8.613336159350553 1.507526291910977 0 0 0
159 0 2 0 12.960353365966215 10.336424810582075 2.5102247367950747 0 0 0
158 0 2 0 13.062469334718903 9.762846082608249 4.003910141988107 0 0 0
190 0 1 0 15.615175113813494 11.182488080098866 3.61146039813107 0 0 0
192 0 2 0 15.230910671450111 11.032161632119813 2.726553030643376 0 0 0
202 0 1 0 14.029250692599428 10.660904573884752 1.2144809901093063 0 0 0
203 0 2 0 13.601120448006254 11.417834170157132 0.8299886729399406 0 0 0
204 0 2 0 14.13518654496102 10.022607001752801 0.4780972260339166 0 0 0
191 0 2 0 16.59631065403783 11.133187661592592 3.5535627353614574 0 0 0
227 0 2 0 18.16220823943631 8.539109167270997 1.5610095322732953 0 0 0
200 0 2 0 16.839463178648685 10.370772544412485 0.46726048024865185 0 0 0
199 0 1 0 16.96971456336332 9.421573829845507 0.49777408596682715 0 0 0
187 0 1 0 18.24695051747519 10.928085808445628 3.4848367131678253 0 0 0
188 0 2 0 18.743044625774267 10.394916387241045 4.049208262519395 0 0 0
189 0 2 0 18.711371673594023 10.832244283558985 2.589336492006971 0 0 0
232 0 1 0 20.026219750930267 11.016693609747092 1.2820440102704163 0 0 0
234 0 2 0 20.02752154668765 10.20111231938327 0.7262466374098431 0 0 0
205 0 1 0 17.07378097423897 12.079315470044298 0.6231819307285213 0 0 0
359 0 2 0 19.383712738444032 12.182539094988671 4.1499104928704185 0 0 0
1800 0 2 0 19.837286991869483 11.987485102587776 -0.0710007379351014 0 0 1
233 0 2 0 20.82399794341159 10.97659093437921 1.8855886166944678 0 0 0
215 0 2 0 21.758220304722386 8.43859626939833 1.4134803360590626 0 0 0
217 0 1 0 24.584058840350842 10.729759433529264 3.3830950829547253 0 0 0
220 0 1 0 21.802018083437893 10.804276880892939 3.348880409020685 0 0 0
221 0 2 0 22.770629089111075 10.814498656269391 3.3590782341268364 0 0 0
222 0 2 0 21.346647308948214 11.62158471497169 3.7376857405897654 0 0 0
229 0 1 0 23.161839308592462 9.215010734541178 0.6176167644057089 0 0 0
230 0 2 0 23.88859991194375 9.051914484642076 1.2909980416195668 0 0 0
231 0 2 0 22.997250925916127 10.173074866659533 0.4808909141933857 0 0 0
235 0 1 0 23.203849593612915 12.13485084840657 0.39344000869722495 0 0 0
244 0 1 0 2.703475164990934 13.685688421940435 2.010415270619602 0 0 0
245 0 2 0 1.7766750981954644 13.571505345390461 1.977967988212915 0 0 0
246 0 2 0 3.242604112101279 12.99194265270204 1.5159216790434433 0 0 0
256 0 1 0 0.13925095035498886 13.693507104200943 1.7522828413997957 0 0 0
242 0 2 0 3.8306885304661478 13.917949386663548 3.3612884499220064 0 0 0
260 0 2 0 4.012425487059456 14.950760560475537 1.3334098741438238 0 0 0
269 0 2 0 0.7726423875782542 12.47296361153899 4.415102611021522 0 0 0
1694 0 2 0 1.748890436708545 15.534598508022015 0.006138230324620672 0 0 1
251 0 2 0 2.8593470809125305 16.296475875729325 3.9166514926594926 0 0 0
255 0 2 0 0.8774195445763279 15.921236642182231 4.406282339174813 0 0 0
259 0 1 0 4.824960716410284 15.31410111611344 0.9194314089559494 0 0 0
286 0 1 0 6.646171496965481 13.755038644522823 2.16348926849443 0 0 0
287 0 2 0 6.094507188621925 13.82370561904016 2.9719809282869742 0 0 0
288 0 2 0 6.186423884830305 14.430106352287657 1.7039697035899983 0 0 0
248 0 2 0 6.432189514355481 16.143210327792623 4.188549032962904 0 0 0
241 0 1 0 4.517406084070525 13.916341301628082 4.0096343372353065 0 0 0
1725 0 2 0 7.804041140763179 15.44287124022465 0.025844486393129265 0 0 1
276 0 2 0 8.18906799490833 13.944113774824974 2.1756065774248663 0 0 0
146 0 2 0 4.757341953463453 12.64593122201498 0.06476428568938686 0 0 0
261 0 2 0 4.838203557379283 14.838575064818077 0.045789364183001335 0 0 0
272 0 2 0 11.653962552897791 13.772476338566314 3.4126971371951322 0 0 0
274 0 1 0 9.122966223907708 14.115361530165142 1.9691990384249358 0 0 0
275 0 2 0 9.483339231586372 14.096178113957247 2.8631208187460784 0 0 0
289 0 1 0 10.844197363415084 15.457598504841334 0.4668998580347842 0 0 0
291 0 2 0 10.065691642148838 15.040917291095294 0.9295436768930778 0 0 0
271 0 1 0 10.95948884454815 13.895636571912023 4.090147353773173 0 0 0
281 0 2 0 8.965394114708307 16.17645300287347 4.262854538638912 0 0 0
290 0 2 0 10.750135217949428 16.431830077148337 0.6909664678113494 0 0 0
317 0 2 0 12.062863111633444 14.652385285356807 1.5701958335415118 0 0 0
278 0 2 0 11.5010841927782 16.42460547823803 3.549822718872706 0 0 0
318 0 2 0 12.403947978131638 13.21814653140132 1.3816466304780985 0 0 0
316 0 1 0 12.513881365585801 13.910790034847324 2.0655313168129483 0 0 0
304 0 1 0 15.305444772516731 13.917956061454552 1.8331569831102046 0 0 0
305 0 2 0 14.362738936347954 14.141705503302829 1.963389011286793 0 0 0
306 0 2 0 15.447987028872888 13.181725312116125 1.1802862712883555 0 0 0
311 0 2 0 15.364619965124339 16.29863576860652 4.151515957897494 0 0 0
320 0 2 0 16.440989472868303 15.17530225685911 0.9075997896598234 0 0 0
302 0 2 0 16.215490131185376 14.074478324403358 3.521962904326103 0 0 0
1754 0 2 0 14.112623168474963 15.446545590590166 -0.06944789684502514 0 0 1
207 0 2 0 17.750326991151034 12.639982294339806 1.0567745861471003 0 0 0
319 0 1 0 17.175657046090436 15.480658105993113 0.3574972159221298 0 0 0
346 0 1 0 18.77573488648845 13.775916617641245 1.9853207954400562 0 0 0
347 0 2 0 18.41616464633281 14.467097376708342 1.3992883859431378 0 0 0
348 0 2 0 18.253193752786707 13.881635261979786 2.8328592556276195 0 0 0
301 0 1 0 17.00285686360194 14.103457884510277 4.083006795171336 0 0 0
309 0 2 0 18.484796341391245 16.263995164279443 3.824230994434721 0 0 0
335 0 2 0 20.61247631803743 13.66663800519142 1.9032298949861879 0 0 0
345 0 2 0 20.60450850710547 15.628509744003056 4.245159474903081 0 0 0
321 0 2 0 17.175107083658894 16.442243825885864 0.46807286584860675 0 0 0
257 0 2 0 24.6403807317028 13.822722899967077 2.6441422734066036 -1 0 0
258 0 2 0 24.37933753158711 12.942134751058411 1.4317531067052398 -1 0 0
237 0 2 0 22.416323185432546 12.396127086778998 0.8557664563510895 0 0 0
332 0 2 0 22.769302372084255 14.01724848878618 3.56294266112295 0 0 0
334 0 1 0 21.597893215776587 13.700301636826403 1.9732779374368326 0 0 0
336 0 2 0 21.954178545282858 14.37177246374424 1.3482601047864928 0 0 0
349 0 1 0 23.358886554152043 15.521817118991814 0.2957956297716166 0 0 0
350 0 2 0 24.049427568101777 15.265689537211799 0.9074889153807413 0 0 0
351 0 2 0 23.194550991388112 16.457159632728036 0.37996080747832955 0 0 0
331 0 1 0 23.46279456732786 13.922952403114493 4.288907372999399 0 0 0
264 0 2 0 0.5273211735738483 16.814892074156074 2.160343964640017 0 0 0
262 0 1 0 1.2563732506792398 16.80491748072996 1.4988391245719785 0 0 0
250 0 1 0 3.2641828303996276 16.98830977216136 3.3611695606101417 0 0 0
263 0 2 0 1.9936187825950227 16.974913388398292 2.081099705511234 0 0 0
366 0 2 0 1.931621483839882 20.064823391552576 2.023607625064603 0 0 0
364 0 1 0 2.894467469459522 20.054004265941458 2.281572887052671 0 0 0
376 0 1 0 0.050538473220881605 20.03487113945067 1.9405798676434194 0 0 0
363 0 2 0 3.65838006610453 20.185709889514115 3.6521655237422648 0 0 0
267 0 2 0 3.7051804434086546 18.604772115821635 1.2726154647944747 0 0 0
1829 0 2 0 1.3249941742072078 18.342664540150345 0.01809234652057011 0 0 1
252 0 2 0 4.224349825845788 16.91714618036158 3.5911101323955186 0 0 0
247 0 1 0 6.022724041211349 16.87205242191761 3.6744812058387697 0 0 0
266 0 2 0 4.340526834264638 17.268934707592848 0.8663554667344427 0 0 0
249 0 2 0 6.387057854166612 16.80963101583922 2.779650339286728 0 0 0
265 0 1 0 4.2979126231802995 18.229209784897968 0.6408347265519321 0 0 0
408 0 2 0 6.018736276556736 19.08147638040314 1.8019132329882177 0 0 0
406 0 1 0 6.231634508977546 19.863474159816136 2.2848651626851155 0 0 0
407 0 2 0 5.6210432818195875 19.93536335810667 3.0489060271442625 0 0 0
292 0 1 0 7.599507066132447 16.8864760147175 1.4411680438417716 0 0 0
294 0 2 0 7.869004231896504 17.551875218645378 0.779038463135836 0 0 0
361 0 1 0 4.3623173323196145 20.19711447806738 4.3145387214750235 0 0 0
395 0 2 0 7.900916232766371 19.816399776851114 2.152885302459371 0 0 0
293 0 2 0 8.283408254928473 16.869247485886735 2.088811904470753 0 0 0
280 0 1 0 9.45585048946987 16.841629392896422 3.725943227943952 0 0 0
295 0 1 0 10.768634444931244 18.203878827980354 0.8281459224522352 0 0 0
296 0 2 0 10.036484517116508 18.67762653917108 1.2113919716170682 0 0 0
394 0 1 0 8.869342423890165 19.874686567900802 2.0143592125564016 0 0 0
396 0 2 0 9.343082637818624 19.72341029873473 2.8496844069406446 0 0 0
282 0 2 0 9.209553658521902 17.68434104043137 4.1828109777782565 0 0 0
393 0 2 0 11.402662087026332 20.024915528941793 3.621755854450065 0 0 0
391 0 1 0 10.668563406552302 19.804978636807018 4.194587734898056 0 0 0
297 0 2 0 11.051727838823535 18.762716567287445 0.045870887005670435 0 0 0
437 0 2 0 12.216093273007132 19.155904400024284 1.6278244349786486 0 0 0
277 0 1 0 12.394399374046197 16.775989783193317 3.429308760840957 0 0 0
279 0 2 0 12.48550859924815 17.564189572079425 4.015218906003019 0 0 0
436 0 1 0 12.65071144774252 19.856045398907227 2.1106705885556574 0 0 0
324 0 2 0 14.841852878234198 16.766824494537797 2.099104814910406 0 0 0
322 0 1 0 14.210357022633863 16.796131192104976 1.3516521039899965 0 0 0
323 0 2 0 13.357523474837604 16.69424849665854 1.8156341607580933 0 0 0
310 0 1 0 15.586194958804647 17.05820653346287 3.6492687432585056 0 0 0
312 0 2 0 15.096592308799432 17.856861460057253 4.055111981721039 0 0 0
424 0 1 0 15.404403195783328 19.749927868918192 2.4585593860935484 0 0 0
425 0 2 0 14.420921354776643 19.78138572302548 2.4216772745749626 0 0 0
1890 0 2 0 13.932239706814599 18.19961830814014 0.12248061845828481 0 0 1
326 0 2 0 16.283732713092633 18.57750656146751 1.1298485494368118 0 0 0
423 0 2 0 16.45250201325134 20.217520642493948 4.091789342969303 0 0 0
426 0 2 0 15.61783756804272 20.587197316445955 1.9928789762174768 0 0 0
325 0 1 0 17.069080349083542 18.265876665816705 0.6839624305717172 0 0 0
308 0 2 0 17.33859862592547 17.045298376532223 3.1146281858275082 0 0 0
353 0 2 0 19.4938674479813 16.64918363031063 1.8226226522820832 0 0 0
307 0 1 0 18.336379023913075 17.016708928963656 3.209298891477971 0 0 0
468 0 2 0 18.312480881103305 19.29280400626181 1.9467428247559289 0 0 0
466 0 1 0 18.773689692633873 20.09879237700684 2.2361820982890377 0 0 0
467 0 2 0 18.316360687218264 20.323672618938865 3.04263598537853 0 0 0
352 0 1 0 20.375902094769387 16.742611653028185 1.3439435610818942 0 0 0
354 0 2 0 20.23552163177375 17.577989055479915 0.810493569457779 0 0 0
480 0 2 0 19.405920075978486 18.366991025459907 4.252861002345553 0 0 0
455 0 2 0 20.607503680491057 20.28205626094987 2.208778667314163 0 0 0
338 0 2 0 24.742302771274943 17.730106572953147 4.226890163641657 0 0 0
337 0 1 0 24.422840125076412 17.071948814674446 3.5825554591130153 0 0 0
378 0 2 0 24.522708032070554 19.860664772309132 2.8537762685146633 -1 0 0
342 0 2 0 21.412222959044357 16.830546181879317 2.6939990905858693 0 0 0
339 0 2 0 23.420520934893965 17.02619893531703 3.71764771152093 0 0 0
340 0 1 0 21.836246103171227 16.758569522039465 3.6047273618333406 0 0 0
341 0 2 0 21.325563010668553 17.49535442718719 4.053668085016352 0 0 0
355 0 1 0 23.131060050496558 18.164260444310862 0.6199172433210999 0 0 0
356 0 2 0 23.8286844617312 18.77169710281552 0.9698211204440765 0 0 0
456 0 2 0 21.787469544333398 19.36059357835379 1.6316604546466469 0 0 0
454 0 1 0 21.599705488272086 20.160667954904543 2.152058829749522 0 0 0
453 0 2 0 22.63272782636666 20.2681236519476 3.809223503624882 0 0 0
451 0 1 0 23.337876416056034 20.259771595789108 4.458249479233536 0 0 0
387 0 2 0 3.969317035468234 24.717991842609614 1.121841495944883 0 0 0
365 0 2 0 3.338001194952165 20.821751713038747 1.9060042672441022 0 0 0
370 0 1 0 3.4127047347503168 23.108698661165885 3.76389516876544 0 0 0
371 0 2 0 3.1181591501232293 23.043728789687634 2.8581830965865747 0 0 0
382 0 1 0 1.9441245357519108 23.20463298123415 1.443298014749492 0 0 0
383 0 2 0 1.9303816412775876 22.431759554015933 0.883783682348701 0 0 0
384 0 2 0 1.7718038241750322 23.890490868016123 0.8073893069041387 0 0 0
372 0 2 0 2.8850956276620163 23.81758684827338 4.196725010103871 0 0 0
458 0 2 0 0.4002667036674288 22.454424693739238 4.086890074732436 1 0 0
459 0 2 0 0.3814634530206844 23.266466749392936 2.7812887625659544 1 0 0
29 0 2 0 0.8225672722092039 24.516878094333084 4.3787794813816925 0 -1 0
385 0 1 0 4.8170528430480415 24.4916327050045 0.6977669545891795 0 0 0
381 0 2 0 4.693441281873114 22.526901398602867 0.7927264433725689 0 0 0
367 0 1 0 6.059429337729946 23.212580895862963 3.882016719399729 0 0 0
368 0 2 0 5.054547467874847 23.06777458739557 3.7834700978107256 0 0 0
379 0 1 0 4.428973726938348 21.620816447770242 0.7989558862150657 0 0 0
380 0 2 0 5.120941051800566 21.13327971323551 1.2260247099880908 0 0 0
412 0 1 0 7.513476389130008 23.04256267683345 1.4754230441285718 0 0 0
414 0 2 0 6.914562153660911 23.16872322402788 2.249844361359437 0 0 0
369 0 2 0 6.448036806307588 22.418090120334753 4.32414265399981 0 0 0
413 0 2 0 7.525643641270455 23.922535220282377 0.9523396335440109 0 0 0
1845 0 2 0 7.631725463204276 21.79219517910744 0.16711921246749945 0 0 1
59 0 2 0 8.414976596694727 24.44371095872393 4.4876425448225525 0 -1 0
415 0 1 0 10.703431766032873 24.65792921981285 0.7716989481885181 0 0 0
400 0 1 0 9.347530568295532 22.97431882887659 3.865805443282069 0 0 0
401 0 2 0 10.340874001596339 23.140971365927822 3.9039342432443878 0 0 0
402 0 2 0 9.055639183104311 22.906321603084614 2.9881225677756618 0 0 0
409 0 1 0 10.761127571478509 21.93947859014897 0.8583448429743958 0 0 0
410 0 2 0 9.93407582995843 21.676597291878405 1.2381462187168244 0 0 0
411 0 2 0 10.720922003700142 22.8799751637151 0.6906568656780343 0 0 0
397 0 1 0 11.952452538946876 23.26194265434684 3.6463751510498583 0 0 0
438 0 2 0 12.3258256554087 20.710108483952386 1.7828247301654754 0 0 0
399 0 2 0 12.35955161586633 23.153474365165206 2.76290937118158 0 0 0
398 0 2 0 12.432772040197287 24.033469097891786 3.9701794767613787 0 0 0
430 0 1 0 15.519642521007238 23.092870709788972 3.5074548281374986 0 0 0
442 0 1 0 13.91139518000618 23.16392132246212 1.3621637559828652 0 0 0
443 0 2 0 14.537124264545605 23.18883704115193 2.0836143822748814 0 0 0
444 0 2 0 14.074960875713595 23.88949867146672 0.6799283936509771 0 0 0
431 0 2 0 15.053145237236775 22.48723799180359 4.1331289342987185 0 0 0
432 0 2 0 16.466633881921524 22.834072094849617 3.5366600035383624 0 0 0
1875 0 2 0 13.968909210988501 21.822307479944353 -0.02312726488041905 0 0 1
441 0 2 0 16.45288356912981 21.237287464231134 -0.07617680859323198 0 0 0
445 0 1 0 16.91823493834412 24.61251526150338 0.6724377933799692 0 0 0
447 0 2 0 16.909539084972508 23.665800016694444 0.5362874460470349 0 0 0
427 0 1 0 18.380204697507082 23.05837697252195 3.4691979465781975 0 0 0
428 0 2 0 18.97197474028866 22.50044458128342 3.916007828561039 0 0 0
439 0 1 0 16.828044022214677 21.72979760633749 0.6815313360628104 0 0 0
440 0 2 0 17.451129364315335 21.18447046628208 1.0688620290465907 0 0 0
474 0 2 0 19.399883604606444 22.94730760746962 1.7222827871078787 0 0 0
429 0 2 0 18.445953414439252 23.941815314983383 3.8081563689512357 0 0 0
473 0 2 0 20.223655786717167 23.71373512023699 0.6700810488976779 0 0 0
472 0 1 0 20.271486010814733 22.97664587480865 1.3368462935885888 0 0 0
1905 0 2 0 20.45945284640107 21.578865311204538 0.23782490569428216 0 0 1
475 0 1 0 23.42640731346502 24.480270137038342 0.5380732746807749 0 0 0
377 0 2 0 24.53934181200674 20.861684994129757 1.5824867140118546 -1 0 0
457 0 1 0 24.704697998011945 23.11929140394401 3.607042749103749 0 0 0
460 0 1 0 21.865111579987506 23.14658864722874 3.592725719759137 0 0 0
461 0 2 0 21.544623201779054 22.86944189170405 2.7563785937031757 0 0 0
462 0 2 0 22.831908146850374 23.209191662576025 3.5399044762696037 0 0 0
469 0 1 0 23.34683317090098 21.742011241927965 0.5295046561851426 0 0 0
471 0 2 0 22.52147263974645 21.365562700487693 0.7879792808587427 0 0 0
477 0 2 0 23.270183635987607 23.509611207262026 0.5877835564411361 0 0 0
465 0 2 0 20.977356896795733 21.823674847970512 4.394033467998597 0 0 0
14 0 2 0 1.610256416431393 2.0655170746012295 5.240638000626334 0 0 0
13 0 1 0 1.4545075081366559 3.0120171591595115 5.061780164142113 0 0 0
15 0 2 0 1.4621844146295442 3.42563937839388 5.961176134220771 0 0 0
484 0 1 0 2.923153248752091 1.2313091260092193 7.872004088298215 0 0 0
485 0 2 0 1.950217528077266 1.3307846008888584 7.787178157819854 0 0 0
486 0 2 0 3.3456373073823857 1.9735632675321026 7.428053028386935 0 0 0
496 0 1 0 0.0692731692454297 1.436724297472964 7.582937125281023 0 0 0
866 0 2 0 3.861227670944856 -0.0015683174140181154 6.964621408114486 0 1 0
28 0 1 0 1.5721202488100912 0.1824752961368967 4.938013229685411 0 0 0
45 0 2 0 7.006139002654853 3.36326880032942 4.509062118685563 0 0 0
44 0 2 0 7.783474418102351 2.0296987584923043 4.6003226876639856 0 0 0
500 0 2 0 4.149035866162068 2.852772509127324 5.548037410242095 0 0 0
3 0 2 0 4.6415617263683995 1.0825045639216808 4.964849934604444 0 0 0
43 0 1 0 7.859478718983709 2.975259948047516 4.79646338755263 0 0 0
499 0 1 0 4.234909967177844 3.1358375601089286 6.486760686155642 0 0 0
501 0 2 0 5.084108713964742 2.7288431567832045 6.788479688283795 0 0 0
526 0 1 0 6.246110649163358 1.7424433243809079 7.861131711317512 0 0 0
527 0 2 0 7.225516269484735 1.6577932791477887 7.959558086958337 0 0 0
528 0 2 0 5.838840150117085 1.7338371155979218 8.746872578476438 0 0 0
867 0 2 0 5.342514704991016 0.22556494854140213 6.831385105949347 0 1 0
58 0 1 0 7.729372678066231 0.2495713571239659 4.876110397924882 0 0 0
534 0 2 0 7.886166795415572 3.9714805960801733 6.338228492330889 0 0 0
33 0 2 0 11.090119599890494 2.500522296954955 4.690289722217786 0 0 0
514 0 1 0 9.131224035493013 1.615300867438245 7.747352606692877 0 0 0
516 0 2 0 9.305698042714248 0.8220066554502063 7.204821769083832 0 0 0
529 0 1 0 10.867104684730771 3.199689105942725 6.283536068208653 0 0 0