LAMMPS (29 Sep 2021 - Update 2)
  using 1 OpenMP thread(s) per MPI task
echo both

include		in.partitions
variable        pid world 0
include		in.temp
variable        temperature equal 260
variable        tempDamp equal 0.100 # this is 0.1 ps
include		in.pressure
variable        pressure equal 9119.25
variable        pressureDamp equal 1.0 #this is 1ps
include		in.seed
variable        seed world 745823

units           metal
atom_style	full
include		in.box
read_data       iceVI.data
Reading data file ...
  orthogonal box = (0.0000000 0.0000000 0.0000000) to (24.724405 24.724405 22.792372)
  1 by 1 by 1 MPI processor grid
  reading atoms ...
  1920 atoms
Finding 1-2 1-3 1-4 neighbors ...
  special bond factors lj:    0        0        0       
  special bond factors coul:  0        0        0       
     0 = max # of 1-2 neighbors
     0 = max # of 1-3 neighbors
     0 = max # of 1-4 neighbors
     1 = max # of special neighbors
  special bonds CPU = 0.003 seconds
  read_data CPU = 0.036 seconds
include 	in.setup
variable	out_freq equal 500
variable	out_freq2 equal 500

timestep        0.0005

neigh_modify    delay 7 every 1

include         in.deepmd
# This is deepMD model

# create groups ###
#group ox type 2
#group hy type 1

mass 2 15.999
mass 1 1.008

pair_style      deepmd ../graph.pb
pair_coeff      * *

bond_style      none
angle_style     none
dihedral_style  none
improper_style  none
neigh_modify exclude none


neighbor        2.0 bin
neigh_modify    every 10 delay 0 check no

thermo          ${out_freq}
thermo          500
thermo_style 	custom step temp pe etotal epair emol press lx ly lz xy xz yz vol pxx pyy pzz pxy pxz pyz

restart 	${out_freq} restart.lmp.${pid} restart2.lmp.${pid}
restart 	500 restart.lmp.${pid} restart2.lmp.${pid}
restart 	500 restart.lmp.0 restart2.lmp.${pid}
restart 	500 restart.lmp.0 restart2.lmp.0


include         in.dump
dump            myDump all atom ${out_freq2} dump.water.${pid}
dump            myDump all atom 500 dump.water.${pid}
dump            myDump all atom 500 dump.water.0
dump            myDump2 all dcd ${out_freq2} dump.dcd
dump            myDump2 all dcd 500 dump.dcd
dump_modify     myDump append yes
dump_modify     myDump2 append yes


timer           timeout 03:55:00 every 1000
New timer settings: style=normal  mode=nosync  timeout=03:55:00

fix             2 all nph aniso ${pressure} ${pressure} ${pressureDamp}
fix             2 all nph aniso 9119.25 ${pressure} ${pressureDamp}
fix             2 all nph aniso 9119.25 9119.25 ${pressureDamp}
fix             2 all nph aniso 9119.25 9119.25 1
fix             3 all temp/csvr ${temperature} ${temperature} ${tempDamp} ${seed}
fix             3 all temp/csvr 260 ${temperature} ${tempDamp} ${seed}
fix             3 all temp/csvr 260 260 ${tempDamp} ${seed}
fix             3 all temp/csvr 260 260 0.1 ${seed}
fix             3 all temp/csvr 260 260 0.1 745823
velocity 	all create ${temperature} ${seed} dist gaussian
velocity 	all create 260 ${seed} dist gaussian
velocity 	all create 260 745823 dist gaussian

run             400000

CITE-CITE-CITE-CITE-CITE-CITE-CITE-CITE-CITE-CITE-CITE-CITE-CITE

Your simulation uses code contributions which should be cited:

- USER-DEEPMD package:

@article{Wang_ComputPhysCommun_2018_v228_p178,
  author = {Wang, Han and Zhang, Linfeng and Han, Jiequn and E, Weinan},
  doi = {10.1016/j.cpc.2018.03.016},
  url = {https://doi.org/10.1016/j.cpc.2018.03.016},
  year = 2018,
  month = {jul},
  publisher = {Elsevier {BV}},
  volume = 228,
  journal = {Comput. Phys. Commun.},
  title = {{DeePMD-kit: A deep learning package for many-body potential energy representation and molecular dynamics}},
  pages = {178--184}
}

CITE-CITE-CITE-CITE-CITE-CITE-CITE-CITE-CITE-CITE-CITE-CITE-CITE

Neighbor list info ...
  update every 10 steps, delay 0 steps, check no
  max neighbors/atom: 2000, page size: 100000
  master list distance cutoff = 8
  ghost atom cutoff = 8
  binsize = 4, bins = 7 7 6
  1 neighbor lists, perpetual/occasional/extra = 1 0 0
  (1) pair deepmd, perpetual
      attributes: full, newton on
      pair build: full/bin
      stencil: full/bin/3d
      bin: standard
Per MPI rank memory allocation (min/avg/max) = 9.089 | 9.089 | 9.089 Mbytes
Step Temp PotEng TotEng E_pair E_mol Press Lx Ly Lz Xy Xz Yz Volume Pxx Pyy Pzz Pxy Pxz Pyz 
       0          260   -333.91511   -269.42205   -333.91511            0    45349.205    24.724405    24.724405    22.792372            0            0            0     13932.89    46027.764    47375.334    42644.518   -806.37542   -394.03199   -354.33178 
     500     239.7467   -312.59116   -253.12194   -312.59116            0    5097.8591    24.817037     24.85601     22.86527            0            0            0      14104.5    7237.1102     6489.947    1566.5202   -1509.1848   -1970.9009     1177.917 
    1000    263.36696   -312.58933    -247.2611   -312.58933            0    8210.0416    24.829478    24.841593    22.836334            0            0            0    14085.537    8190.6222    6937.4573    9502.0452     380.3334   -1188.6653   -929.63418 
    1500    259.80503   -311.27783   -246.83313   -311.27783            0    15003.417    24.869813    24.735631    22.787911            0            0            0    14018.452    14389.258    16008.791    14612.204    1014.3213   -1129.7373    2871.0763 
    2000    257.23038   -308.82693   -245.02087   -308.82693            0    2603.5873    24.865206    24.863825    22.891475            0            0            0     14152.52    639.43813    4176.7695    2994.5542    1088.1068   -1056.9831   -1411.1239 
    2500    268.21688    -309.9381   -243.40684    -309.9381            0     9232.698    24.727327      24.8153    22.850907            0            0            0    14021.683    8958.3691    10198.836    8540.8885   -46.474523   -2006.2758    799.84907 
    3000    267.74142   -311.20029   -244.78698   -311.20029            0    10621.878     24.81799    24.869821    22.893828            0            0            0    14130.505     10187.27    11758.139    9920.2258    572.27456    867.94238   -1860.0964 
    3500    254.94506   -309.73646   -246.49728   -309.73646            0    7279.3429    24.847254    24.758208    22.819165            0            0            0    14037.745    5423.3881    7726.9335    8687.7071   -1040.7327   -304.34488   -1144.8109 
    4000     254.8831   -310.56536   -247.34155   -310.56536            0     7702.608     24.88344    24.824082    22.864605            0            0            0    14123.662    7451.7387    7699.7497    7956.3356    1388.9546    1915.5819   -1559.5803 
    4500    258.70188   -311.38922   -247.21816   -311.38922            0    9885.8775    24.805704    24.821009    22.806493            0            0            0    14042.017    10307.613    7646.5564    11703.463    451.29064   -702.08195    3282.6077 
    5000    255.31733   -308.96797   -245.63645   -308.96797            0     6166.992    24.790483    24.838115    22.868331            0            0            0    14081.149    6494.7364    5971.4442    6034.7955    -721.0407   -767.05513    294.45159 
    5500    261.01415   -311.76174   -247.01712   -311.76174            0    10232.609    24.800043    24.752347    22.919341            0            0            0     14069.25    10101.075    10483.906    10112.847    230.83551    629.06869    1770.1143 
    6000    260.32811   -310.46792   -245.89347   -310.46792            0    9116.3368    24.852665    24.677558    22.844347            0            0            0    14010.508    6954.4495    9141.7521    11252.809    1184.8245   -1066.4846    552.98437 
    6500    255.41705   -310.88042   -247.52416   -310.88042            0    9333.8968    24.901449    24.939178    22.858799            0            0            0     14195.81    8415.8329     10803.46    8782.3979   -1488.2691   -2654.3452   -676.20593 
    7000    263.23301   -309.37642   -244.08142   -309.37642            0    14162.857    24.686117    24.805005    22.718603            0            0            0    13911.493    15081.237    11085.653     16321.68   -738.82679   -983.83512   -1036.6087 
    7500    261.97992   -310.57885   -245.59468   -310.57885            0    5917.8286    24.920058    24.852281    22.970889            0            0            0    14226.338    9223.8935    1257.2939    7272.2984   -259.30776   -784.08517    1454.7317 
    8000    257.97591   -310.06025   -246.06926   -310.06025            0    10488.741    24.760269    24.660761      22.8392            0            0            0    13945.777    8726.3913    12085.913    10653.919   -827.49413    2238.3846    2456.6123 
    8500    253.87366   -310.72671    -247.7533   -310.72671            0    7328.1529    24.868524    24.858281    22.903297            0            0            0     14158.56     8435.204    7152.0047    6397.2499   -468.74475    15.042941   -1679.7193 
    9000    265.62624   -309.06079   -243.17215   -309.06079            0    7333.9907    24.790066    24.828344    22.790888            0            0            0    14027.707     5632.315    7835.9421    8533.7151   -225.41977   -157.97907   -61.934986 
    9500    263.72873   -310.26763   -244.84966   -310.26763            0    10235.078    24.817603    24.843817    22.854576            0            0            0    14091.308     11362.45    6817.0572    12525.727   -1289.2837    -386.7579    953.33045 
   10000    259.89478   -307.87726    -243.4103   -307.87726            0    9379.0084    24.812468     24.76271    22.914213            0            0            0    14079.041    7994.0729    11450.668    8692.2846    92.698539    542.85266    556.29696 
   10500    266.68837   -307.45039   -241.29828   -307.45039            0    8094.8286    24.829896    24.768124    22.970813            0            0            0    14126.819    9820.8147    6145.1602    8318.5109   -477.16964   -435.79444    21.875233 
   11000    267.27361    -310.1223   -243.82502    -310.1223            0     8567.084    24.854668    24.831254    22.840618            0            0            0    14096.603    9404.1065    10360.184    5936.9616   -995.85887    392.61416    1944.6364 
   11500    257.62242   -309.86763   -245.96433   -309.86763            0    12198.294    24.848185    24.854713    22.699979            0            0            0    14019.382    13020.656    12335.431    11238.797   -479.57735   -1020.4387   -898.39821 
   12000    258.78776   -308.61838   -244.42602   -308.61838            0    5574.1239    24.880068    24.871635    22.880029            0            0            0    14158.344    5134.3418    5610.4779    5977.5522   -434.13731    489.20534   -2205.6636 
   12500    266.36912   -309.49309   -243.42018   -309.49309            0    11885.878    24.738961     24.67458    22.965954            0            0            0    14018.958    12167.881    11317.943     12171.81   -1401.8117   -1684.3855    1943.3782 
   13000    256.13103   -307.01927   -243.48592   -307.01927            0    7787.2601    24.853685    24.804733    23.006874            0            0            0    14183.485    7362.9376    8904.2187     7094.624   -948.53438    1236.5438    261.10809 
   13500    260.16033    -310.0442   -245.51137    -310.0442            0    9145.6587    24.799477    24.850033    22.718302            0            0            0    14000.559    9321.0571    8884.1931    9231.7259   -1893.5656    28.700494    2430.3797 
   14000    255.77838   -311.76327   -248.31739   -311.76327            0    7479.4606    24.896569    24.964758    22.710259            0            0            0    14115.262    6156.7074    7583.9949    8697.6794    518.39725    -977.3653    718.86554 
   14500    252.77478   -310.96102   -248.26018   -310.96102            0    8363.1136    24.780615    24.791459     22.87399            0            0            0    14052.581    9641.4953    8023.4118    7424.4338   -1149.1109   -3218.6158    827.11292 
   15000    261.54285   -310.45004   -245.57428   -310.45004            0    8678.9672    24.734111    24.752957    23.008942            0            0            0     14087.05    10742.195    7441.7779    7852.9288   -2265.2552   -1141.5844   -278.52003 
   15500    262.21887   -310.62835    -245.5849   -310.62835            0    6846.3423    24.789255    24.825803    22.930304            0            0            0    14111.611    7276.2702    7538.6387     5724.118   -1419.2375    -576.1163    2271.8856 
   16000    267.08812   -310.58056    -244.3293   -310.58056            0    10775.725    24.867318    24.818926    22.705156            0            0            0    14013.171      11390.7    9829.4584    11107.017    1785.1308    151.77779   -1683.6294 
   16500     261.7837   -309.87009   -244.93458   -309.87009            0    5729.2527    24.925461    24.887304    22.805964            0            0            0    14147.168    5257.0143    7553.4988    4377.2451     910.1964   -626.75214   -1007.0852 
   17000    256.11671   -308.84803   -245.31822   -308.84803            0    8149.4071    24.741699    24.772565    22.877434            0            0            0    14021.931    9183.1123     8482.654    6782.4551    198.97458    111.86188    327.57546 
   17500    261.60692   -310.72438   -245.83272   -310.72438            0    7469.8211    24.817951    24.831083     22.95033            0            0            0    14143.293    7179.1712    7838.2289    7392.0632     61.78033    325.41627   -2663.0395 
   18000    261.22857   -312.51347   -247.71566   -312.51347            0     9717.671    24.824821    24.777591    22.790004            0            0            0    14018.114    11104.075    8435.9756    9612.9623   -224.40504    953.03023   -1570.6951 
   18500    250.10973   -309.12643   -247.08665   -309.12643            0    7620.7825    24.809486     24.85767    22.793088            0            0            0    14056.634    8587.1961    6795.6187    7479.5326    899.36331    2058.1067   -1337.4654 
   19000    255.33596   -309.37886   -246.04272   -309.37886            0    9470.2301    24.809308    24.835488    22.883077            0            0            0    14099.437     9499.522    8723.0088    10188.159    1476.3963    2042.6799    2190.7878 
   19500    254.84981   -308.98616   -245.77061   -308.98616            0    11324.995    24.765277    24.754952     22.87068            0            0            0    14021.173    11481.272    9701.0709    12792.643    1254.4161   -821.67211   -2255.3621 
   20000    252.69936   -310.69279   -248.01066   -310.69279            0    6830.1294    24.857679     24.85184    22.859639            0            0            0     14121.75    4125.3595    8444.9918     7920.037   -822.54569   -1132.9531   -626.62036 
   20500    258.25851   -310.92427   -246.86319   -310.92427            0    8794.3911    24.757946    24.789955    22.748935            0            0            0    13962.121    9234.7838    6915.2941    10233.095   -358.03399     677.5887   -804.57317 
   21000    255.41676   -310.50872   -247.15253   -310.50872            0    8654.4641    24.885391    24.828161    22.922778            0            0            0    14163.033    7812.9106    10480.421    7670.0606    44.989823    1165.8051    461.21236 
   21500    248.58492    -310.8116   -249.15006    -310.8116            0    9912.4202    24.740917    24.706997    22.841614            0            0            0    13962.479    7979.6667    10909.894      10847.7    463.36291    456.51864    2251.3326 
   22000    258.68906   -310.52166   -246.35379   -310.52166            0    6989.1303    24.837986    24.874728    22.912779            0            0            0    14156.389    7921.6618    5526.7464    7518.9828   -1772.7014   -1103.8941   -273.11545 
   22500    262.67766   -310.37753   -245.22028   -310.37753            0    10621.947     24.74775    24.846578     22.83187            0            0            0    14039.245    10405.481    10370.903    11089.458     976.3971    844.79552   -96.002501 
   23000     251.3319    -311.1679   -248.82496    -311.1679            0    9025.7273    24.790487    24.801879    22.851855            0            0            0    14050.479    8210.0522    10139.083    8728.0465    534.57958     7.901435   -575.40161 
   23500    262.49897   -310.58503    -245.4721   -310.58503            0    8750.8128    24.833779    24.840127     22.92729            0            0            0    14143.255    10392.007    8253.7657    7606.6652    1024.7768   -1115.0771   -946.92529 
   24000    267.90331   -309.52479   -243.07132   -309.52479            0    14492.341    24.647083    24.794784     22.87956            0            0            0    13982.136    16647.821    13740.742    13088.461    401.44873   -1835.1239    769.76074 
   24500    255.00943   -309.41491   -246.15976   -309.41491            0    5150.7142    24.884368    24.899292    22.927703            0            0            0    14206.077    4515.2083    5723.8421    5213.0923    749.34613    -1069.004    561.90509 
   25000    268.45639    -308.6257   -242.03503    -308.6257            0    12032.697    24.837388    24.708859    22.736978            0            0            0    13953.764    10376.585    13662.528    12058.977    691.84501    146.92609    1054.7265 
   25500    263.91699   -309.48483   -244.02016   -309.48483            0    7439.8159     24.94172    24.924526    22.927645            0            0            0    14253.213    8698.6013     4900.017    8720.8294    231.30019   -100.40819   -1080.9631 
   26000    271.30191   -308.36199   -241.06549   -308.36199            0    6530.5631    24.731144    24.746444    22.875845            0            0            0    14000.197    5241.0649     8640.089    5710.5354    609.17184    326.05171    1262.2602 
   26500    259.92875   -310.80068    -246.3253   -310.80068            0     7310.095     24.84454    24.848854    22.951646            0            0            0     14169.39    8243.2669    7826.1481      5860.87   -658.54835   -346.40971    797.99119 
   27000    264.95783   -310.11784   -244.39499   -310.11784            0    9223.3024    24.779092    24.791792    22.834816            0            0            0    14027.841    10602.107    9302.2181    7765.5821   -908.99545    620.17992     332.4072 
   27500    262.44429   -310.98824   -245.88888   -310.98824            0    8208.8666     24.85081    24.882698    22.806199            0            0            0    14102.333    7780.0026    7895.3978    8951.1995    113.35557    2433.0322     421.0739 
   28000    262.02991   -311.41047   -246.41389   -311.41047            0    8316.1801    24.862052    24.883837    22.815026            0            0            0    14114.818    5739.9833    9744.0187    9464.5383    16.250742   -963.97019   -548.29139 
   28500    261.42459   -309.84603    -244.9996   -309.84603            0    9275.4684    24.811084    24.743886    22.846823            0            0            0    14026.182    8324.2989     8807.838    10694.268    332.45349   -1198.4423   -3241.8445 
   29000    256.53647   -310.37284   -246.73891   -310.37284            0    9529.4092    24.815113    24.828993    23.036877            0            0            0    14193.809    9731.1055    8640.2098    10216.912     697.9666   -300.59069   -583.34687 
   29500    265.70851   -308.78453   -242.87548   -308.78453            0    11019.503    24.698325    24.771159    22.883676            0            0            0    14000.373    13143.327    9875.3602     10039.82    1092.4371    771.52475   -2700.9641 
   30000    269.33048   -308.49306   -241.68557   -308.49306            0    6632.8407    24.942803    24.915949    22.904466            0            0            0    14234.521    6624.6461    5416.5333    7857.3427    1634.6277    233.02307    736.27942 
   30500    261.45239   -307.08782    -242.2345   -307.08782            0    8386.5224     24.85541    24.773471     22.75726            0            0            0    14012.892    9709.9271    6598.2169    8851.4234    811.84013   -1458.4436    -2915.197 
   31000     264.4059   -308.74517   -243.15923   -308.74517            0    8311.2794    24.871011    24.817331    22.930708            0            0            0     14153.57    9835.1231    5007.7832    10090.932   -1077.3197   -34.385358    644.25837 
   31500    265.52852   -309.34203   -243.47762   -309.34203            0    9231.4001    24.796104    24.760812    22.983018            0            0            0    14110.922    9925.8905    10654.243    7114.0669   -360.21948    89.303379   -1027.7807 
   32000    259.05512    -309.5673   -245.30862    -309.5673            0    11080.219    24.783636    24.789223    22.863936            0            0            0    14046.849    9837.5324    10941.828    12461.296   -1168.2254   -1576.6737    81.156737 
   32500    262.83169   -308.82604   -243.63059   -308.82604            0    7745.4959    24.859551    24.934036    22.879221            0            0            0    14181.661    8403.6316    7900.7017    6932.1545   -240.10215   -1883.3288    3113.0771 
   33000    256.40266   -307.07479   -243.47406   -307.07479            0    8913.4815    24.775081    24.744934    22.827908            0            0            0    13994.826    10230.906    7088.8286    9420.7093    276.13612   -663.31154    698.68182 
   33500    256.70563    -311.1568   -247.48091    -311.1568            0    6616.6613    24.867465    24.829915    22.956834            0            0            0     14174.86    7134.4416     8341.598    4373.9442   -248.77147   -744.79551   -686.46737 
   34000    257.95345   -311.42512   -247.43971   -311.42512            0    13556.121     24.71213     24.75768    22.809045            0            0            0    13954.916    14099.368    10323.687    16245.309    1008.9382    496.10399    1097.2879 
   34500    251.55445   -311.87748   -249.47935   -311.87748            0    7467.7509    24.889097    24.897328    22.869252            0            0            0    14171.436    6929.7894    7503.4831    7969.9803    534.41273   -266.83612     1246.816 
   35000     256.1137   -311.91689   -248.38783   -311.91689            0     9798.525    24.774459    24.742857    22.784073            0            0            0     13966.43    9716.8609    9071.2766    10607.438    -536.0835    1110.5849   -289.14169 
   35500    254.61672   -309.94592   -246.78819   -309.94592            0    9246.8548    24.855023    24.856151    22.927004            0            0            0    14164.308    6133.1839    9535.2197    12072.161    1395.8671    -1957.242   -1104.8168 
   36000    254.74783   -309.72367   -246.53342   -309.72367            0    6840.9482    24.735359    24.771416    22.929732            0            0            0    14049.732    10423.627    5893.3442    4205.8736    1433.7046    -502.3257    1120.2328 
   36500    256.28486    -310.4375   -246.86598    -310.4375            0    9248.2584    24.773505      24.7416    22.899259            0            0            0    14035.784    8264.3676    10536.964    8943.4436    969.21781     905.9685    645.31308 
   37000    258.53564   -311.35203   -247.22221   -311.35203            0    7644.3156     24.87909    24.810163    22.865221            0            0            0    14113.655     8067.634    6571.0604    8294.2524    376.54164   -2282.8522    582.07294 
   37500    263.27052   -311.98995   -246.68564   -311.98995            0    10568.458    24.818391    24.767756    22.760999            0            0            0    13991.091    9999.6566    11089.013    10616.706    -542.1926   -1297.7328    -570.7555 
   38000    264.48969   -310.25124   -244.64452   -310.25124            0    9532.9199    24.867681    24.856712     22.91227            0            0            0    14162.734    8730.7464    10539.959    9328.0545   -195.05856    1896.2505    280.21651 
   38500    265.54489   -310.53366   -244.66519   -310.53366            0    12388.597    24.700495    24.783052    22.904138            0            0            0    14020.852    14734.929    10288.583    12142.278    221.35844    670.72179   -1796.4477 
   39000     254.2367   -309.84161   -246.77814   -309.84161            0     7375.464    24.833633    24.838564    22.893183            0            0            0    14121.243    7075.2841    6802.1569    8248.9509    221.25435    1021.9692     916.0762 
   39500     265.2295    -309.2038   -243.41356    -309.2038            0    8398.0084    24.825348    24.826072    22.775581            0            0            0    14036.952     8174.762    7673.8734    9345.3897    267.13699   -491.25429   -2473.4605 
   40000    249.71722   -308.93661    -246.9942   -308.93661            0    9499.2359    24.836286     24.86547    22.813146            0            0            0    14088.621     9607.386    10341.806    8548.5158    77.596212   -235.95155    -1093.165 
   40500     258.4252   -311.17485   -247.07243   -311.17485            0    8402.5587    24.796149     24.86309     22.86875            0            0            0    14098.788    9761.3748    4243.4665    11202.835   -369.25858   -1569.9747    152.61111 
   41000    259.84264   -311.78545   -247.33143   -311.78545            0    9329.8098    24.764917    24.722746    22.917166            0            0            0     14031.19    8624.3975    10195.908    9169.1245   -970.37858    375.84051   -374.96401 
   41500    263.33204   -311.15898   -245.83941   -311.15898            0    9161.5267    24.829497    24.767614    22.974339            0            0            0     14128.47    8356.0595    11290.724    7837.7966   -387.29989   -1365.3368   -2540.7558 
   42000    253.76627   -307.90159   -244.95481   -307.90159            0    10614.506    24.823504    24.874548    22.737573            0            0            0    14039.847    10447.445    10344.866    11051.207   -2309.3591   -1159.7172    53.947939 
   42500    266.69235   -311.73484   -245.58174   -311.73484            0    9114.6003    24.859829    25.019451    22.766662            0            0            0    14160.392    7231.4163    8558.7283    11553.656    1958.3582    973.02351    1575.7111 
   43000     263.5428    -309.4638   -244.09195    -309.4638            0    12572.829    24.759498    24.695252    22.872107            0            0            0    13984.968    14287.619    12710.011    10720.857    902.54143   -601.85192   -1829.0399 
   43500    261.94792   -309.76246   -244.78622   -309.76246            0    8143.2483    24.876631    24.740779    23.062173            0            0            0    14194.012    8145.7497    10545.772    5738.2234    -1751.689    -605.2414    1312.4952 
   44000    259.02816    -310.9931   -246.74111    -310.9931            0    11758.866    24.721614    24.776323     22.81625            0            0            0    13975.197    11632.871    12242.045    11401.682    1162.2853   -1620.9757   -322.66909 
   44500    259.00048    -311.1365   -246.89137    -311.1365            0    7812.3933    24.848693     24.96836    22.792835            0            0            0    14141.384     10368.49    4526.6684    8542.0217    393.13641    1545.1109   -121.22669 
   45000    254.88824    -310.3773   -247.15222    -310.3773            0    9620.1651    24.834329    24.765615     22.83437            0            0            0    14043.992    9441.5242    8856.7721    10562.199    501.18548    403.27033    199.54623 
   45500    256.83523   -312.32121   -248.61317   -312.32121            0    12019.852    24.816343    24.731506    22.915149            0            0            0     14064.07    10533.541    12696.285    12829.729   -847.98889   -628.41285    1913.6139 
   46000     265.0371   -312.02591    -246.2834   -312.02591            0     11023.01    24.747226    24.813914    22.917429            0            0            0    14073.032    12507.826    9616.8464    10944.356   -913.85306   -393.23395    1206.1538 
   46500    262.29565   -310.16114   -245.09864   -310.16114            0    10281.247    24.766095    24.888205    22.827915            0            0            0    14070.753    9601.2432    11848.114    9394.3845   -1054.4986   -244.47757    988.47426 
   47000    263.38738   -311.25795   -245.92466   -311.25795            0    10414.341    24.919103    24.840362    22.743911            0            0            0     14078.47    10373.196    10417.756     10452.07     1199.342   -376.75912    -2232.069 
   47500    264.91669    -309.7302   -244.01755    -309.7302            0      6687.67    24.854349    24.817392    22.820442            0            0            0    14076.108      7068.91    8970.1307    4023.9693   -419.62244    810.68073    865.70338 
   48000    255.80093   -309.38178   -245.93031   -309.38178            0    8191.5655    24.719399    24.854214    22.965346            0            0            0    14109.478    7066.8095    11174.071    6333.8164    416.85985    683.84105    1166.0358 
   48500     263.8425   -311.12274   -245.67655   -311.12274            0    8708.6239    24.695391    24.769442    22.903124            0            0            0    14009.636    8264.1448    7293.6176    10568.109   -512.77515    320.99288   -573.42196 
   49000     260.5799   -308.16768   -243.53078   -308.16768            0     7346.398     24.96414    24.816153    22.874237            0            0            0    14170.908     6095.021    8501.6571    7442.5159    693.77439    105.35279   -45.223919 
   49500    271.35485   -307.11406   -239.80443   -307.11406            0    11351.695    24.842889    24.782289    22.769991            0            0            0    14018.656    12067.545     12562.21    9425.3316   -508.10539    1268.2931   -1061.6143 
   50000    267.69235   -309.99725    -243.5961   -309.99725            0    9436.1229    24.749895    24.941946    22.943595            0            0            0    14163.323    10313.391    6443.7693    11551.209   -969.71735   -1253.8648    1253.3191 
   50500    263.88875    -310.3124   -244.85474    -310.3124            0    11543.095    24.660112    24.754739    22.916278            0            0            0    13989.348    10352.088    11301.187     12976.01    1414.0607   -1722.1802     1586.275 
   51000    267.63333   -310.66713   -244.28062   -310.66713            0    9080.1907    24.957104    24.764962     22.87938            0            0            0    14140.869    6496.0395    12223.049    8521.4833    921.48068   -500.42089   -1311.5885 
   51500    262.65089   -309.80658   -244.65597   -309.80658            0    8486.4762    24.918014     24.78582    22.757598            0            0            0    14055.397    8873.6989    5784.7151    10801.015    419.75417    259.63961    114.57241 
   52000     257.1585    -311.3478   -247.55958    -311.3478            0    9119.0678    24.743477    24.905117    22.809507            0            0            0    14056.112    6929.3922    8699.7329    11728.078    417.49041   -24.161739    331.65437 
   52500    264.99602   -309.67003   -243.93771   -309.67003            0    11536.415    24.767136    24.827432     22.94754            0            0            0    14110.543    11361.045    13051.701    10196.498   -970.83845   -1004.7298   -982.78444 
   53000    257.81474   -310.41706   -246.46606   -310.41706            0    9885.0964     24.83839     24.72599    22.893374            0            0            0    14060.052    10245.271    10336.842    9073.1761    1742.7034   -97.433628    2710.5897 
   53500    262.37703   -310.72023   -245.63755   -310.72023            0    8900.2727    24.860341    24.802931    22.830694            0            0            0    14077.619    8328.6546    8217.4355    10154.728   -352.61671     127.5936    444.74296 
   54000    261.43626    -308.4576   -243.60828    -308.4576            0    10346.005    24.779177    24.872894    22.819981            0            0            0    14064.635    12713.331     8771.501    9553.1816    1057.9876    1829.7158    1277.2928 
   54500    257.28518   -311.58698   -247.76733   -311.58698            0    8123.8293    24.790225    24.835353    22.827297            0            0            0    14054.173     5705.416    8705.8761    9960.1958    828.38252   -2067.8957    1001.1871 
   55000    260.88307   -310.50367   -245.79157   -310.50367            0    9608.0238     24.86541    24.692695    22.875701            0            0            0    14045.543    10021.426    12461.046    6341.5997    -868.4332   -1588.5919    209.09149 
   55500    259.39766   -311.64617   -247.30252   -311.64617            0    8453.9237    24.840153    24.793633    22.935259            0            0            0    14125.314    10005.467    7625.9331    7730.3711    -364.3984   -2317.1254    2792.8903 
   56000    263.39079   -308.50169   -243.16754   -308.50169            0    9008.6336    24.656864    24.891817    22.829915            0            0            0    14011.955    9021.9292    8880.7229    9123.2488    1290.0567    467.74758    582.96539 
   56500    251.45499   -308.11311   -245.73964   -308.11311            0    9122.7622    24.878255    24.839429    22.940307            0            0            0     14176.23    8120.3385    8677.2079     10570.74    -961.6309   -889.04239    346.19394 
   57000    255.20476   -309.04536   -245.74177   -309.04536            0    6725.9306    24.886863    24.600248    22.885206            0            0            0    14010.849    6449.5484    6583.1304    7145.1131   -83.256024    -1468.605    77.754802 
   57500    259.93888   -310.59551   -246.11761   -310.59551            0    8876.5465    24.810377    24.837772    22.962962            0            0            0    14150.569    9690.7592    9159.9905    7778.8898    1164.5579    1624.9797    649.74639 
   58000    260.34794    -310.5877   -246.00833    -310.5877            0    8047.1649    24.663802    24.922159    22.840447            0            0            0    14039.456    11368.691    4163.6959    8609.1072   -103.63001    -317.7346    1033.2491 
   58500    266.60208   -311.20774   -245.07704   -311.20774            0    6585.4864    24.835703    24.832715    22.809345            0            0            0    14067.388    8789.2711    5189.9181    5777.2699    564.49946     31.59816    124.80549 
   59000    264.81066   -311.27497   -245.58863   -311.27497            0     8276.957    25.017655    24.720285    22.862699            0            0            0    14139.289    6177.6242    10826.044    7827.2028     322.2159    1804.4325    1737.8123 
   59500    259.57427   -309.45146   -245.06401   -309.45146            0    10309.083    24.835931    24.773291     22.81084            0            0            0    14034.775    10392.739    9699.3069    10835.203   -1099.5455   -58.412215    966.17924 
   60000    259.30469   -311.26757   -246.94699   -311.26757            0    6621.0692    24.725833    24.957166    22.903551            0            0            0    14133.478    8569.1747    5498.2591    5795.7738    1750.9717    1113.1271    -1038.406 
   60500    258.44766   -310.54636   -246.43836   -310.54636            0    6613.8398    24.722529    24.821063    22.859051            0            0            0    14027.215    8854.3974    6635.0554    4352.0664   -19.750078   -613.27431   -2679.7901 
   61000    256.86285    -310.2082   -246.49332    -310.2082            0    8197.3536    24.951377    24.772692    22.851782            0            0            0    14124.979    5186.0007     11320.87    8085.1895     1356.703   -1021.3477    1655.0511 
   61500    266.11129   -310.12084   -244.11187   -310.12084            0     10158.54    24.806456    24.796149    22.798979            0            0            0    14023.756    7653.4022    11453.627    11368.592   -439.83399   -430.70022   -1185.0296 
   62000    257.53863    -308.1748   -244.29229    -308.1748            0    8674.3969    24.731852    24.947785    22.911143            0            0            0    14136.288    9248.1622    8231.6358    8543.3928    42.834846   -1292.4592   -2454.0071 
   62500    262.58357   -310.76722   -245.63331   -310.76722            0    10443.039    24.792346    24.780132     22.90497            0            0            0    14071.843    9606.4032     12600.41    9122.3042   -2305.9482    251.39758   -138.41097 
   63000    269.01437   -307.96101   -241.23194   -307.96101            0    8574.5361    24.970731    24.712492    22.866048            0            0            0    14110.386    5867.4786    12000.409    7855.7206   -393.85565   -903.60805   -874.28327 
   63500     256.3006   -309.65001   -246.07459   -309.65001            0    6832.2832    24.822781    24.806424     22.88082            0            0            0    14089.195    8617.5757    8551.4544    3327.8194    -1101.529         1627   -766.92205 
   64000    266.02091   -309.72491   -243.73837   -309.72491            0    10022.867    24.739949    24.911916    22.899759            0            0            0    14113.568    11614.773    9408.8441    9044.9854    1677.0126   -2246.6219     835.8442 
   64500    261.31116   -310.74772   -245.92943   -310.74772            0    9195.1234    24.799725    24.831085    22.907572            0            0            0    14106.576    9867.4526    9338.7493    8379.1685    334.09786     1423.548    1360.6106 
   65000    254.01355   -311.54281   -248.53469   -311.54281            0    9010.4446    24.824837    24.719371    22.858323            0            0            0    14027.109     8733.916    10023.692    8273.7254   -381.42826    -1507.895    405.01195 
   65500    256.25963   -310.90831   -247.34305   -310.90831            0    9681.2161    24.871161    24.800632    22.892419            0            0            0    14120.514    8657.5363    12086.991    8299.1211   -972.90788     2773.314    668.76376 
   66000    266.88727   -308.68643   -242.48499   -308.68643            0    11048.712    24.781692    24.816507    22.804553            0            0            0    14024.687    12056.919    10487.545    10601.672   -587.18171    1406.2849   -615.12574 
   66500    264.40855   -309.25056   -243.66396   -309.25056            0    6253.4167    24.812479    24.879941    22.938795            0            0            0    14160.875    7326.7588    5517.5979    5915.8935    78.191249    125.79934   -322.60363 
   67000    264.80157   -312.37208   -246.68799   -312.37208            0    7855.9438    24.748093    24.738681    22.875581            0            0            0    14005.235     3990.073    11005.882    8571.8769   -336.16148    298.29244   -780.73197 
   67500    256.45853    -310.5078    -246.8932    -310.5078            0    7411.3265    24.946857    24.833764    22.851562            0            0            0    14157.099    5778.2758    7301.7645     9153.939    97.178917   -1550.4303    664.03649 
   68000     261.0524   -311.26041    -246.5063   -311.26041            0    10211.434    24.804015    24.789213    22.720938            0            0            0     13970.47    10925.716    8612.9932    11095.593   -476.46379    594.32231   -1155.2856 
   68500    259.79657   -309.95692   -245.51433   -309.95692            0    7999.4921    24.791147    24.937265     22.87461            0            0            0    14141.619    9257.1069    8335.8859    6405.4835   -1830.7777    828.53197    1790.5611 
   69000    256.16971    -311.3746   -247.83165    -311.3746            0     9314.581    24.705535    24.752538    22.896686            0            0            0    14001.889    11605.212    8094.6089    8243.9223   -826.90934   -2031.6994    790.77973 
   69500    253.52385   -311.07479   -248.18814   -311.07479            0    10217.373    24.886845    24.686964    22.945509            0            0            0    14097.277     9219.319    11109.149    10323.651   -605.47917   -691.38768   -456.43673 
   70000    254.82152   -309.91144    -246.7029   -309.91144            0    10764.058    24.854438    24.778751    22.776992            0            0            0    14027.482    9116.5743    13213.136    9962.4636    4.7963524    1.9507877   -1883.6304 
   70500    253.55124   -310.14245   -247.24901   -310.14245            0    7738.5198    24.778024    24.926683    22.742684            0            0            0    14046.654    9506.8685    5499.7272    8208.9638    226.32741    1074.3927   -507.45385 
   71000    255.90339   -311.14713   -247.67024   -311.14713            0    9065.2113     24.81899    24.829188    22.856021            0            0            0    14084.688     6509.236    10963.544    9722.8537    1511.4374   -33.335303   -169.35692 
   71500    255.24597   -309.33013   -246.01631   -309.33013            0    10559.631    24.844786    24.659952    22.937137            0            0            0    14052.924    11590.582    9746.4073    10341.903    1133.7755   -1310.4852   -2271.3262 
   72000    269.35683   -308.85818   -242.04416   -308.85818            0    8994.0651    24.837094    24.814285    22.904626            0            0            0    14116.458    9434.6972    8228.0187    9319.4794   -115.04065    2907.5816    191.09703 
   72500     258.2936    -309.7798   -245.71002    -309.7798            0    7206.3713     24.78056    24.930179    22.787541            0            0            0    14077.774     8398.881    6629.6519     6590.581    876.95856    821.59906   -1298.1299 
   73000     256.8587   -310.80661   -247.09275   -310.80661            0    8690.0409    24.859803    24.759645    22.819524            0            0            0    14045.871    5457.7122    9661.4807     10950.93   -1410.9261    712.24318    1530.0183 
   73500    260.42179   -309.12308    -244.5254   -309.12308            0    9056.4624    24.843811    24.670378    22.974504            0            0            0    14081.216    7866.8495    11464.311    7838.2265   -394.38512   -609.20899    2058.0215 
   74000    257.33577   -309.38441   -245.55222   -309.38441            0     8697.559    24.759458    24.788148    22.912997            0            0            0    14062.648    10005.236    7576.9541    8510.4868    1941.5534   -2719.8104   -402.80017 
   74500    264.60202   -311.41305   -245.77846   -311.41305            0    10206.876    24.759112    24.980886    22.731442            0            0            0    14059.501    9404.1884    10070.482    11145.957    116.09711   -1085.7237   -484.86061 
   75000     258.2254    -308.7464   -244.69354    -308.7464            0    7459.9592    24.915755    24.826692    22.779428            0            0            0    14090.802    4965.6492     9965.243    7448.9853    357.30222    1043.6545    796.08433 
   75500    266.46949   -311.78805   -245.69024   -311.78805            0    9290.4403    24.909051    24.604368    22.934976            0            0            0    14056.192    7128.5009    12367.751    8375.0688    1458.2997    1410.4761   -1071.6745 
   76000    259.12177   -310.55449   -246.27928   -310.55449            0     9992.172    24.726329    24.787857    22.997457            0            0            0    14095.434     8101.097    11204.827    10670.593   -2157.9095   -281.20585   -368.43998 
   76500    248.17844   -312.77152   -251.21081   -312.77152            0    10331.297     24.69345     24.94775    22.798789            0            0            0    14045.103    13725.151    7983.6566    9285.0842    474.05781   -1549.7118   -1686.3778 
   77000    252.30412   -313.19339    -250.6093   -313.19339            0    9752.5615    24.869547    24.813827    22.713366            0            0            0    14016.614    9499.9372    9469.4549    10288.292   -331.33597   -1219.6233   -568.95708 
   77500    255.19803   -310.65241   -247.35048   -310.65241            0    6755.7795    24.918204    24.716657    22.894732            0            0            0    14100.744    3746.1687    10803.148    5718.0221   -859.16879    1348.0572     1422.288 
   78000    263.25327   -308.11353    -242.8135   -308.11353            0    10126.855    24.781547      24.7575    22.943486            0            0            0    14076.497    10205.513    9772.5951    10402.456    443.37369   -1557.0729    3063.6612 
   78500    260.21651   -311.69292   -247.14615   -311.69292            0    6833.4919    24.772592    24.898728    22.867611            0            0            0     14104.88    4885.0141    8283.0428    7332.4189   -992.65032    144.27249   -307.38425 
   79000    253.57346   -310.63377   -247.73482   -310.63377            0    10830.605    24.824962    24.836717    22.738129            0            0            0     14019.66    10906.209    9492.1486    12093.457   -321.11269   -967.67086    1082.7019 
   79500    257.14336   -309.57737    -245.7929   -309.57737            0    7832.0374    24.926141    24.805436    22.813488            0            0            0    14105.666    6331.1739    8069.6392     9095.299    947.61605   -641.20314    1163.3856 
   80000    261.59293   -310.12834   -245.24016   -310.12834            0    8466.0395    24.825893    24.790288    22.831642            0            0            0    14051.529    6795.2695    9961.5119    8641.3371   -578.02801    162.83562    1386.3459 
   80500    256.47627   -309.68974   -246.07075   -309.68974            0    8454.7102    24.714876    24.893217    22.894538            0            0            0     14085.47    7937.4981    9117.4999    8309.1326    1719.8736    -1467.924    1260.2795 
   81000    262.07524   -311.12368   -246.11586   -311.12368            0    9773.2633    24.777602    24.752161     22.88222            0            0            0    14033.647    13369.193    7929.2578    8021.3389   -22.717153   -1596.7112    1037.4732 
   81500    255.22396   -311.37015   -248.06179   -311.37015            0    8509.9349    24.934894     24.74213    22.808665            0            0            0    14071.633    7280.8019    9001.2961    9247.7069   -358.66245   -1375.7496    641.80181 
   82000     256.8652   -309.68996   -245.97449   -309.68996            0      8581.54    24.866739    24.874327    22.711811            0            0            0    14048.241    10209.194    6765.6686    8769.7576    1069.0381   -577.72676    1809.5139 
   82500    264.33852   -308.17453    -242.6053   -308.17453            0    8788.9146    24.708669    24.949709    22.826101            0            0            0      14071.7    10412.696    7880.2514    8073.7964    474.83443   -1129.3399   -1047.7642 
   83000    264.91548   -310.66629   -244.95395   -310.66629            0    8511.6889    24.769363    24.730645    22.990484            0            0            0    14083.104    8180.2288    11359.821    5995.0169    903.84775    1702.3276     2198.426 
   83500    261.48044    -310.5804   -245.72012    -310.5804            0    8036.8022    24.879147    24.660688    22.910185            0            0            0    14056.243    8200.2617    7971.6439     7938.501    1712.9028   -762.92027    1931.3171 
   84000    265.30053   -308.91614   -243.10829   -308.91614            0    10679.051    24.882653    24.929706    22.739753            0            0            0    14105.861    10008.164     10760.33     11268.66    55.304207   -1972.9352    3284.3816 
   84500    261.96283   -310.63777   -245.65783   -310.63777            0    9505.6451     24.77952     24.99834    22.654524            0            0            0    14033.274    10381.873    9184.8264    8950.2358   -1173.6798   -714.34226   -175.05833 
   85000    258.36111   -311.07958   -246.99305   -311.07958            0    10755.307    24.860161    24.810675     22.85171            0            0            0    14094.875    14457.493    8609.2366    9199.1906    326.98089   -3506.6395   -63.741463 
   85500    262.04142   -308.76402   -243.76459   -308.76402            0    11335.469    24.830361     24.65229    22.988485            0            0            0    14071.833    10577.809    13199.768    10228.829   -1586.9616    160.02603   -1046.3159 
   86000    261.03919   -310.15738   -245.40656   -310.15738            0    8723.0953    24.778022    24.797983     22.92448            0            0            0    14085.831    10113.915    7817.1338    8238.2366   -750.95446   -1046.2146    2266.5405 
   86500    260.58076   -311.77658   -247.13946   -311.77658            0    8745.2808    24.808833    24.937253    22.699236            0            0            0    14043.203    9162.5264    7422.3501    9650.9659    1435.1519   -494.42949   -1075.2904 
   87000    259.94487   -311.16896   -246.68958   -311.16896            0    9884.6726    24.868782    24.822198    22.753131            0            0            0    14045.458    8794.1692    10721.426    10138.422   -275.67419   -680.32705    428.54326 
   87500    267.81966   -312.60792   -246.17519   -312.60792            0    8986.0562      24.8731    24.707059    22.945545            0            0            0    14100.982    7616.8377    10514.857    8826.4742   -377.59345     585.7386   -809.97303 
   88000    262.83234   -308.84349   -243.64787   -308.84349            0    9505.2408    24.734875    24.746672    22.951162            0            0            0     14048.54    9500.5402    11700.547    7314.6348   -1498.0811   -369.25586    1178.4985 
   88500    263.00268   -311.67592   -246.43804   -311.67592            0    9124.3886    24.769331    24.921877    22.861056            0            0            0     14112.09    10415.043    7177.0223    9781.1008    907.22322    134.08823    1509.8626 
   89000    252.08509   -312.09327   -249.56351   -312.09327            0     8097.177    24.839109     24.82823     22.73464            0            0            0    14020.705    8100.1309    8630.0106    7561.3897    -110.7508    587.80272    645.81217 
   89500    249.86731   -311.71681   -249.73717   -311.71681            0    9595.9374    24.885909    24.752594    22.852617            0            0            0    14077.001    11799.376    8792.6384    8195.7979    654.58174   -656.05552   -302.26826 
   90000    253.00762   -312.23729   -249.47869   -312.23729            0    12618.812    24.677419    24.749722    22.931529            0            0            0    14005.644     12531.28    14569.566    10755.589   -993.01376   -2112.5245     31.67882 
   90500    261.82778   -310.95331   -246.00687   -310.95331            0    8488.6679    24.720388    24.874032    22.921528            0            0            0    14094.349    9910.8414    5368.7934    10186.369   -808.91415   -1200.7721    296.56121 
   91000    260.15079   -310.91054   -246.38009   -310.91054            0    8185.2194    24.871851    24.781756    22.786444            0            0            0    14044.838    8006.4911    9256.5836    7292.5836   -729.67293    581.64183    1524.3797 
   91500    263.34126   -313.05018   -247.72832   -313.05018            0    8086.2592    24.923259    24.807901    22.749289            0            0            0    14065.743    5780.8906    7952.3865      10525.5   -495.73754    278.68289    4209.3704 
   92000    257.00175   -309.58872   -245.83938   -309.58872            0    9129.4282    24.733743    24.873742    22.875798            0            0            0    14073.665    7724.7072    11095.445    8568.1328   -1234.0863    711.76087   -1043.9625 
   92500    268.93232   -312.23429   -245.52557   -312.23429            0    10928.647    24.668916    24.856215    23.035786            0            0            0    14124.988    11223.734     10450.27    11111.937   -302.80104   -1303.2919    2005.5116 
   93000    267.38476   -311.11977   -244.79492   -311.11977            0    9989.1332     24.83138    24.636025     22.89149            0            0            0    14003.789    8482.6693    13597.729    7887.0017    870.62506    -127.4096    2357.5677 
   93500    256.59425   -311.39076    -247.7425   -311.39076            0     6055.649    24.937232    24.861652    22.799993            0            0            0    14135.558    6249.2961    5088.4451    6829.2057    1731.0334    -1596.212   -883.46716 
   94000    261.27682   -311.43573   -246.62596   -311.43573            0    11870.107    24.712277    24.847616    22.745642            0            0            0    13966.761    11283.933    13115.301    11211.086    198.95526    -248.4987    -641.9566 
   94500    263.74722   -313.01785    -247.5953   -313.01785            0    8313.7514    24.794884    24.849474     22.95421            0            0            0    14143.002    7640.2852    10969.328    6331.6411    150.96792    133.09732   -164.28626 
   95000    255.43688   -310.90834   -247.54717   -310.90834            0    8667.0689    24.771202    24.677173    22.884562            0            0            0    13988.949    7307.8014    12585.875    6107.5304   -2043.2496   -996.75449    841.58416 
   95500    259.46638   -310.80239    -246.4417   -310.80239            0    8439.4845    24.932153    24.888173    22.782065            0            0            0    14136.629      7976.93    7729.8059    9611.7178    1047.0628   -1681.8544     486.9599 
   96000    260.03878   -310.40023   -245.89755   -310.40023            0    8326.0418    24.821116    24.833791    22.718832            0            0            0    14003.943    6697.8852    8625.2552     9654.985   -1.6032879    470.62904      1468.17 
   96500    255.18873   -309.99792    -246.6983   -309.99792            0    6256.4004      24.7893    24.846023    22.910107            0            0            0     14110.69    7801.5502    5802.7416    5164.9094    284.61309   -983.25245   -1212.2508 
   97000    256.29277   -310.04577    -246.4723   -310.04577            0    8333.4672    24.723804    24.750459    22.939874            0            0            0    14037.494     8524.771    5889.3483    10586.282    207.53785   -327.71786   -1851.3726 
   97500    261.89624   -311.95173   -246.98831   -311.95173            0    8354.2967    24.819989    24.801342    22.840832            0            0            0    14060.109     7072.426    8358.9092     9631.555   -585.11828     2465.341   -1091.1758 
   98000    255.36176   -310.55848   -247.21594   -310.55848            0     7183.608     24.89832     24.85857    22.742802            0            0            0    14076.353    5533.9976    6735.6213    9281.2053   -784.72898   -72.935613   -2051.4694 
   98500    250.91332   -310.22988   -247.99077   -310.22988            0    8794.1851    24.767548    24.798025    22.784367            0            0            0    13993.846    9262.3797    7882.1146     9238.061    937.23358    1248.9924    192.10368 
   99000    258.59061   -310.23594   -246.09249   -310.23594            0    11102.527    24.751492    24.854569      22.9383            0            0            0    14111.359    9506.0947    13617.184    10184.303    -38.25994   -918.64598     87.37871 
   99500    268.18503   -309.07229   -242.54894   -309.07229            0    11963.166    24.764483    24.766076    22.909628            0            0            0    14050.912    14460.237    8963.0134    12466.249   -1193.0475    421.64491    -859.1148 
  100000    260.27164   -310.60686   -246.04642   -310.60686            0    7349.9918    24.904703    24.781056    22.874953            0            0            0    14117.617    6490.1912    7591.0491     7968.735    -2251.853    559.12483    1064.4041 
  100500    259.64953   -310.39482    -245.9887   -310.39482            0     11552.13    24.803568    24.851038     22.76425            0            0            0    14031.756    12453.419    10612.512     11590.46   -769.42569    311.38906    1380.6945 
  101000    263.07209   -311.46322   -246.20814   -311.46322            0    6980.6379    24.717029    24.919964     22.93974            0            0            0    14129.675    6425.3556    6643.1798    7873.3781   -1366.2027    493.05064     473.2689 
  101500    264.03025   -311.18505   -245.69229   -311.18505            0    9932.6208    24.712294    24.711417    22.991995            0            0            0    14040.655    11976.782    10998.931    6822.1501   -1800.6772   -1789.4511   -739.77873 
  102000    259.67896    -309.0906   -244.67718    -309.0906            0    11580.029    24.948005    24.658762    22.895157            0            0            0    14084.801    8628.0242    15679.631    10432.431    909.48588    478.32078    1397.4344 
  102500    258.78174   -311.38226    -247.1914   -311.38226            0    5731.5975    24.860053    24.880538    22.732425            0            0            0    14060.721    9021.9969    1790.5148    6382.2807   -1260.0621   -974.58525    351.12277 
  103000     250.0258   -309.54743   -247.52848   -309.54743            0    10348.361    24.700125    24.959355    22.752752            0            0            0    14027.053    9614.0429    9653.2399    11777.801   -906.44979    1117.4948   -553.23172 
  103500    255.77444   -310.70266   -247.25775   -310.70266            0    11230.524    24.790071    24.800083    22.894622            0            0            0    14075.518    10588.136    10499.532    12603.903     761.1449    653.96072    3731.0733 
  104000    254.29494   -309.06838   -245.99047   -309.06838            0    9533.5158    24.913564     24.58815     22.95643            0            0            0    14062.614    7774.6251     11580.01    9245.9121   -19.249045   -859.56274     603.2509 
  104500    251.34541   -309.75074   -247.40445   -309.75074            0    10981.465    24.840437    24.744821    22.896139            0            0            0     14073.62    11475.353    12139.088    9329.9536   -733.11561    1132.2364     -683.226 
  105000      262.767   -309.32525   -244.14584   -309.32525            0     13704.96    24.726552    24.960074    22.795033            0            0            0    14068.561    14479.549    10271.869    16363.461    792.23251   -1290.1283      424.627 
  105500    266.06858   -308.46989   -242.47152   -308.46989            0    5554.0092     24.84055    24.895741    22.774238            0            0            0    14084.133    6593.4871    3369.2545    6699.2859    173.62503   -1519.7849     1240.037 
  106000    263.67464   -311.15548   -245.75093   -311.15548            0    9933.2092    24.919261    24.728012    22.843064            0            0            0    14075.982    11038.573    9052.4963    9708.5581   -133.76023   -1703.5283   -323.88141 
  106500    261.31278   -308.72236   -243.90367   -308.72236            0        10462    24.818508    24.756639    22.900923            0            0            0     14070.85     11299.48    9744.7115     10341.81    459.55474      -823.87   -2690.0004 
  107000    264.09931   -311.88243   -246.37254   -311.88243            0    8745.8197    24.699173    24.907977    22.888313            0            0            0    14081.037     8819.028    9315.3709    8103.0602   -1518.0468   -132.54057    47.017616 
  107500    266.58304   -310.03551   -243.90952   -310.03551            0    9562.7173    24.824151    24.854175    22.773975            0            0            0    14051.174    12109.022    7594.5749    8984.5546   -1141.9157    553.60826   -449.50417 
  108000    263.87565   -309.95841     -244.504   -309.95841            0    6863.3465    25.043351    24.728778    22.800715            0            0            0    14120.288    4398.4262    6060.5649    10131.048   -1754.0601    1516.7421   -587.39056 
  108500    257.98802   -308.60094   -244.60695   -308.60094            0    10308.763    24.840026    24.740445    22.864426            0            0            0    14051.408     10351.05    10118.497    10456.741   -1612.2902    1147.9855   -3044.1822 
  109000    261.26237   -311.38978   -246.58359   -311.38978            0    8721.3415    24.623368    24.915235    22.954751            0            0            0     14082.67    9509.9405    7628.3347    9025.7491   -152.50809    194.12155    231.37857 
  109500    265.28067   -311.73319   -245.93026   -311.73319            0    9484.4249    24.779158     24.84131    22.909634            0            0            0    14101.951    11738.896    8461.0605    8253.3178   -951.30301   -2063.1275    -962.9946 
  110000    267.24814   -312.02252   -245.73156   -312.02252            0    10776.947     24.94208    24.701897    22.800984            0            0            0    14048.067    7616.8935     13041.57    11672.379   -508.00028   -2030.5583   -1122.6661 
  110500    256.66247   -311.66598    -248.0008   -311.66598            0    10610.508    24.847712    24.827022    22.842154            0            0            0    14091.203    9108.3251    13181.896    9541.3027    1412.4606    837.69435     1285.023 
  111000     265.4261   -311.72601     -245.887   -311.72601            0    9662.3435    24.715471    24.806078    22.879211            0            0            0    14027.105    10307.028    9013.6641    9666.3388    496.13737   -452.22981   -77.634428 
  111500    253.54571   -309.21112   -246.31905   -309.21112            0     9595.867    24.803897    24.794362    22.924206            0            0            0    14098.313    9219.6382    11235.188    8332.7747   -55.945189     120.0683   -697.79577 
  112000    253.94852   -310.10623   -247.11425   -310.10623            0    10596.665    24.820676    24.752354    22.849434            0            0            0    14038.011    9677.5218    12407.999    9704.4736    767.16975    -2391.035    81.551147 
  112500    255.48145   -310.98753    -247.6153   -310.98753            0     10968.27    24.819118    24.820738    22.808655            0            0            0    14050.789    12304.259    9606.2107     10994.34     1422.031   -119.58307     575.0637 
  113000    254.10352   -309.78678   -246.75635   -309.78678            0    9046.3817    24.797505    24.894788    22.834449            0            0            0    14096.359    11788.718    7678.4619    7671.9652    737.34026   -614.57505   -389.07019 
  113500    264.13792   -310.55203   -245.03256   -310.55203            0    7836.5474    24.757944     24.78785     22.87684            0            0            0     14039.43    9021.3938    6406.3039    8081.9445    322.56535   -1688.0704    1038.3243 
  114000    255.20393    -310.3024   -246.99901    -310.3024            0    10206.941    24.794496    24.707302    22.918988            0            0            0    14040.289    10922.403    7920.9654    11777.454    1882.6504   -3507.1737   -107.01051 
  114500    267.03054    -310.7814   -244.54442    -310.7814            0     6150.537     24.88733    24.845169    22.905353            0            0            0    14163.065    5084.7581    8591.3716    4775.4815   -753.16914    -139.8013    1187.8132 
  115000    261.79473   -307.60362   -242.66538   -307.60362            0    11435.377    24.724685    24.855573    22.658524            0            0            0     13924.71    11155.849    10660.124    12490.156   -1438.5939   -846.01946    757.14562 
  115500    258.01091   -310.49381   -246.49415   -310.49381            0    5419.5087     24.93311    24.985955    22.828717            0            0            0    14221.779    7169.5639    3251.3158    5837.6465    -2199.561   -250.88688     771.9178 
  116000    256.55443   -311.81393   -248.17555   -311.81393            0    10658.947    24.737357    24.682267     22.82678            0            0            0     13937.44    9356.2903    12287.791    10332.759    -695.2753    632.89834    1033.5688 
  116500    253.53852   -308.46415   -245.57386   -308.46415            0    8310.5487    24.821164    24.830616    22.965388            0            0            0    14154.138    8342.4167    6873.2468    9715.9827    1063.4423    370.29353    1986.6478 
  117000    253.79259   -310.89937   -247.94606   -310.89937            0    9296.7013    24.736781    24.828837    22.804644            0            0            0    14006.282    11085.306    7057.7445    9747.0533    378.06167    814.73305   -641.52972 
  117500    255.28162   -312.64863   -249.32597   -312.64863            0    8818.7394    24.827476    24.821404    22.814213            0            0            0    14059.322    9770.6421    7649.2984    9036.2777   -390.97765   -515.62097    381.01643 
  118000    255.87264   -312.11114   -248.64187   -312.11114            0    6773.8367    24.784335    24.832871    22.860409            0            0            0    14069.809    9105.9164    4468.2655    6747.3282    222.82543   -588.21534    1648.7421 
  118500    258.02859   -310.67124   -246.66719   -310.67124            0    10114.121    24.746976    24.783979    22.868434            0            0            0    14025.863    9541.4731     11336.13    9464.7607    -787.4448   -1715.6444    1666.8831 
  119000    256.19089   -310.16628   -246.61808   -310.16628            0    5803.0098    24.818983    24.795353    22.913983            0            0            0    14101.161    6703.3092    5763.6426    4942.0777   -2186.3356    180.04003    125.63739 
  119500    256.55466   -308.94766   -245.30922   -308.94766            0    8977.0401    24.821294    24.780218    22.807029            0            0            0    14028.081    10260.959    9490.7243    7179.4371    1076.9098   -412.72082     639.3687 
  120000    258.90603   -309.62723   -245.40553   -309.62723            0    8410.6336    24.845762    24.875169    22.838066            0            0            0    14114.896    7689.6602     9290.533    8251.7077    615.41955    683.39828   -669.19235 
  120500    263.37403   -310.73594   -245.40595   -310.73594            0    11716.792    24.718351    24.758453    22.836322            0            0            0    13975.558    11099.146    12969.853    11081.376    738.06953    447.98288    152.37204 
  121000    262.98586   -312.68369   -247.44999   -312.68369            0    8299.6077    24.891401    24.836145    22.927186            0            0            0    14173.734    7835.0336    8846.9425    8216.8471   -148.31188   -256.90768   -244.60151 
  121500    255.28324   -309.78874   -246.46568   -309.78874            0     10019.98    24.762889    24.812046    22.729437            0            0            0    13965.374    10674.146    11455.826    7929.9677    328.64014   -747.15104    2643.6232 
  122000    254.80328   -309.49263   -246.28862   -309.49263            0    6085.0322    24.882406    24.955597    22.781678            0            0            0    14146.403    8396.5596    2578.8342    7279.7026    -870.2005   -2517.4174     649.9114 
  122500    259.09902    -307.9699   -243.70033    -307.9699            0    12435.395    24.831503    24.720559    22.826892            0            0            0    14012.256    10168.524    13728.588    13409.071    1039.9078   -1864.9466    1704.1738 
  123000    260.57684   -312.03708   -247.40094   -312.03708            0    8917.3626    24.875189    24.668368    22.970804            0            0            0    14095.582    8773.0133    9164.4316    8814.6428    1117.6179    1060.6793   -573.02183 
  123500    259.01518   -309.94774   -245.69896   -309.94774            0    8458.9319    24.790931      24.8223    22.865035            0            0            0    14070.409    10679.768    5453.1584    9243.8693    3126.6305   -423.99484    58.794868 
  124000    263.85261   -311.04883   -245.60013   -311.04883            0    9549.7499    24.778988    24.852649    22.782845            0            0            0    14030.211     10006.96    8037.4311    10604.859    775.05895   -902.11351    57.617867 
  124500    261.39876    -309.0583   -244.21828    -309.0583            0    8918.7116    24.854892     24.83593    22.919813            0            0            0    14148.271    7557.6446    11097.339     8101.151   -669.11916   -565.49733      -1672.1 
  125000    264.83049   -307.74907   -242.05781   -307.74907            0    9549.6343     24.75619    24.757942    22.872241            0            0            0    14018.678    10207.405    9406.7655    9034.7326    1956.3149   -2875.4678    112.69467 
  125500    261.68298   -310.12268   -245.21216   -310.12268            0    7723.1327    24.860151    24.868522    22.880992            0            0            0    14145.835    6927.9929    8971.6224    7269.7826    652.20002   -327.09676    329.49563 
  126000    276.00483   -312.53595   -244.07289   -312.53595            0    11330.663    24.790165    24.824035    22.774226            0            0            0    14015.075    11957.966    11743.954    10290.069    200.90912   -789.14642     1309.123 
  126500    259.10279   -311.88498   -247.61448   -311.88498            0     7936.913     24.84965    24.835224    22.861382            0            0            0    14108.825    8327.1506    10542.106    4941.4821   -1239.1906    1476.3672    948.10989 
  127000    263.71982   -311.17879   -245.76304   -311.17879            0     9186.115    24.823585    24.714076    22.882477            0            0            0    14038.216    10263.005    8916.9854    8378.3545    730.53987   -1797.6023    642.38523 
  127500    254.86499   -309.29185   -246.07253   -309.29185            0    10897.429    24.821559    24.754665    22.965341            0            0            0    14111.039     9211.624    12558.269    10922.395   -1407.8952   -787.37398   -584.28283 
  128000    259.39418   -310.30181   -245.95903   -310.30181            0    8078.4852    24.734016    24.827273    22.867048            0            0            0    14042.155     10945.98    7280.6642    6008.8118    258.56065   -2691.4191   -1082.2147 
  128500    253.85992   -308.54914   -245.57913   -308.54914            0    9649.6393    24.873683    24.957425    22.725549            0            0            0    14107.636    10004.488    8234.9253    10709.504    764.91511    54.145769    2057.4759 
  129000    261.68707   -309.91579   -245.00426   -309.91579            0    9294.7112    24.871628    24.755764     22.68359            0            0            0    13966.653    8002.2816    10951.731    8930.1205    1095.3292     215.8281   -671.12455 
  129500    259.09652   -309.12867   -244.85972   -309.12867            0    5445.7768    24.837162    24.760927    23.006343            0            0            0    14148.697    8235.8819      5726.44    2375.0085   -1997.6476    1675.7183    332.71524 
  130000    255.28476    -309.3562   -246.03276    -309.3562            0     10664.71    24.608993    24.766897    22.964562            0            0            0    13996.634    13185.123    10656.805    8152.2012    1524.1659   -2156.3314   -37.942702 
  130500    258.47489   -309.22312   -245.10837   -309.22312            0    9196.5277    24.827612    24.903938    22.832798            0            0            0    14117.641    12890.411    6927.5534    7771.6184   -2840.8237    217.47833    977.60909 
  131000    250.80243   -310.79414   -248.58254   -310.79414            0    8636.3838    24.934413    24.795991    22.689857            0            0            0    14028.537    9706.7715    6193.2263    10009.154    479.30635     500.4579    61.969801 
  131500    257.29597   -312.99839   -249.17607   -312.99839            0    8034.8471    24.842684    24.770367     22.82139            0            0            0    14043.426    6992.9648    8121.4598    8990.1169   -1207.5499   -1576.5876    831.89415 
  132000    260.33894   -311.70916   -247.13203   -311.70916            0    9898.6929    24.721334    24.790648    22.947743            0            0            0    14063.706    8982.9981    12482.987    8230.0937   -71.835085   -505.38461    -1373.104 
  132500     263.4384   -309.52284   -244.17688   -309.52284            0    7652.3813    24.776404    24.755354    22.935324            0            0            0     14067.35    9285.1423    8286.9599    5385.0418    146.10193   -2596.5891    2522.5636 
  133000    268.69682   -310.79932   -244.14902   -310.79932            0    8844.6393    24.863815    24.820657    22.828911            0            0            0    14088.548    7904.7176    9495.2532    9133.9472   -1079.4684    1087.4469   -2265.9006 
  133500    258.17026   -310.76306   -246.72387   -310.76306            0    9648.4847    24.776269    24.896393    22.785914            0            0            0    14055.257    9224.6049    10775.203    8945.6456    1143.0817    2628.0775    617.21513 
  134000     256.7089   -311.55155   -247.87485   -311.55155            0    9484.1638    24.754931    24.842164    22.864982            0            0            0    14061.188    11595.761    8461.2069    8395.5239   -59.717431    741.83725   -359.03414 
  134500    264.15725   -310.30782   -244.78356   -310.30782            0    10213.873    24.832465    24.687341    22.893045            0            0            0    14034.524    10080.109    12763.849     7797.661    2179.1287    -1663.479    2118.2571 
  135000    253.67507   -311.65253   -248.72837   -311.65253            0    9129.1525    24.907913    24.764169    22.907487            0            0            0    14129.883    10114.155    9370.1523    7903.1502    571.43466   -1712.3202   -901.17619 
  135500    260.53437   -311.38866   -246.76305   -311.38866            0    10532.508    24.710645    24.847835    22.740734            0            0            0    13962.948    11566.103    8592.5851    11438.836     342.1754   -176.83519    -404.9004 
  136000    256.21779   -310.10262   -246.54774   -310.10262            0    7849.5822    24.811101    24.966882    22.874561            0            0            0     14169.78    8435.3375    8433.3891    6680.0202    378.84421   -558.31199    1579.5678 
  136500    263.57972   -310.12099   -244.73998   -310.12099            0    9957.4874     24.76503    24.669423    22.844304            0            0            0    13956.477    10366.253     12403.48    7102.7297   -1637.8969    -1549.152     624.3191 
  137000    268.69973   -312.03854   -245.38752   -312.03854            0    6809.2328    24.895439    24.764569    22.978382            0            0            0    14166.743    5527.6563    7277.2033    7622.8387    468.35441    73.420965    1237.0043 
  137500    270.14019   -309.90688   -242.89854   -309.90688            0    12238.705    24.731786    24.814528    22.840758            0            0            0    14017.547    12280.191    14250.739    10185.184    217.05961   -1103.8023    309.05742 
  138000    258.98972   -308.89218   -244.64972   -308.89218            0    9053.6635    24.834013    24.900587    22.837335            0            0            0    14122.185    8049.8563    8435.6707    10675.464    1341.4395     939.5569    101.77142 
  138500    252.93353    -308.2654   -245.52518    -308.2654            0     7195.019     24.84064    24.795202    22.784284            0            0            0    14033.495    8103.7303    9228.1525    4253.1741    460.18198     234.8914   -3389.3639 
  139000    256.80485   -314.18667   -250.48617   -314.18667            0     11278.02    24.821538    24.777223    22.829043            0            0            0    14040.062    12982.569    9994.5284    10856.962   -404.64657   -605.09647   -134.03186 
  139500    257.79128   -309.77901   -245.83382   -309.77901            0    10751.565    24.801048    24.792537     22.89907            0            0            0      14080.2    9266.8425    12100.462    10887.391    1010.4083    707.77956     627.8119 
  140000    261.59778   -309.87269   -244.98331   -309.87269            0    7076.4096    24.771562    24.796009    22.902733            0            0            0     14067.68    6790.2604    8911.1148    5527.8537   -749.44361    -2711.896   -1163.6095 
  140500    264.87391   -309.52419   -243.82215   -309.52419            0    11609.737     24.82758    24.809202     22.80906            0            0            0    14049.296    11069.615     11784.66    11974.935    1373.3437    79.325687     577.7269 
  141000    257.97046   -310.33838   -246.34875   -310.33838            0    8297.8311     24.90269    24.914314    22.728072            0            0            0    14101.256    7259.3467    9198.9448    8435.2019   -2025.4111   -225.43221   -637.71629 
  141500    258.17246   -310.07105   -246.03132   -310.07105            0    10703.438    24.758753     24.81841    22.747794            0            0            0    13977.902    13629.228    9700.3357    8780.7501   -286.26865    575.44092    650.53586 
  142000    264.56181   -312.01334   -246.38873   -312.01334            0    9501.0801    24.758893    24.742399     23.09488            0            0            0    14147.795    10986.003    10385.698     7131.539   -2090.0763    382.82727     207.3526 
  142500    269.28632   -310.64536   -243.84883   -310.64536            0    8202.7174    24.693896    24.664276    23.029166            0            0            0    14026.077    12286.497    7327.8227    4993.8331    739.89447   -105.06395   -2026.9528 
  143000    255.29505   -309.16551   -245.83952   -309.16551            0    9960.5561    24.885707    24.942015    22.761953            0            0            0    14128.337    9237.2794    11641.653    9002.7357    46.570993   -2792.0774    1594.5488 
  143500    262.52034   -309.51942    -244.4012   -309.51942            0    8302.0246    24.844325    24.938817     22.61168            0            0            0    14009.927    8755.1859    7074.8632    9076.0248    -30.86043    516.63172    740.22578 
  144000    262.32015   -310.55408   -245.48551   -310.55408            0    8956.4729    24.863256    24.830095     22.84806            0            0            0     14105.41    7271.2188    10566.435    9031.7645   -299.87307   -851.40784    -2282.283 
  144500    264.09468   -310.21347   -244.70473   -310.21347            0     10934.79    24.739555    24.727325    22.980747            0            0            0    14058.311    9769.0849     12047.27    10988.016   -315.76108    359.96762   -1248.3331 
  145000    255.94996   -309.52361   -246.03516   -309.52361            0    9057.0624    24.766552    24.773881    22.908087            0            0            0    14055.569    8162.4642    9309.1186    9699.6044    1987.9237    367.78803    1148.1824 
  145500    255.07971   -308.71612   -245.44354   -308.71612            0    10096.466    24.865287    24.846759     22.79543            0            0            0    14083.513    11184.998    8782.9587    10321.441    312.28149     1465.033   -1682.8424 
  146000    255.74119   -310.26383   -246.82717   -310.26383            0    9257.4978    24.845744    24.769972    22.781477            0            0            0    14020.368    8068.8195    9255.9428    10447.731   -216.60483   -1983.1876   -4702.1668 
  146500     257.0201   -311.06303   -247.30914   -311.06303            0    6103.5653    24.759032    24.817535    22.924244            0            0            0    14085.988    5988.4484    5159.2597    7162.9879    486.65333   -83.639433   -755.71053 
[...]
  365000    260.03289   -309.61914   -245.11792   -309.61914            0    6670.8141    24.799999    24.882977    22.777951            0            0            0    14056.224    8198.2549    4902.5833    6911.6041    1319.9225    123.37062    622.22048 
  365500    262.51738   -310.24022   -245.12272   -310.24022            0    8909.3637     24.91137    24.682617    22.860916            0            0            0    14056.669    7722.9226     10029.37    8975.7982     949.0907   -2129.0466   -762.47598 
  366000    264.14289   -308.78604   -243.26534   -308.78604            0    10113.291    24.856343    24.746686    22.885852            0            0            0    14077.365    8522.1594    11566.638    10251.075   -436.66543    1270.1197   -1256.0379 
  366500    259.07898   -309.77109   -245.50649   -309.77109            0    6513.2769    24.684076    24.882951    22.855636            0            0            0    14038.221    9519.3398    3874.2563    6146.2348    426.63036   -2272.5147    1172.4783 
  367000    254.69808   -310.87151   -247.69359   -310.87151            0    8541.0946    24.797599    24.808453    22.854909            0            0            0    14060.113    9484.9509    8845.5795    7292.7535    1034.5993   -2452.5971    951.16408 
  367500    257.14351   -309.26443   -245.47992   -309.26443            0     10953.98    24.907381    24.719038    22.861807            0            0            0    14075.706      11808.2    11316.829     9736.911   -1031.2544    530.41111    1627.5034 
  368000    265.59012   -310.73464   -244.85495   -310.73464            0    10442.666    24.732866    24.765705    22.882529            0            0            0    14016.164    11388.529    9898.7719    10040.697   -377.07032     219.3697    83.267729 
  368500    258.66131   -310.98141   -246.82042   -310.98141            0    8019.3246    24.698709    24.886929    22.992717            0            0            0    14133.049    7436.2484    9294.6868    7327.0387   -3398.1824   -1722.1548    288.52462 
  369000    263.57722   -310.07518   -244.69479   -310.07518            0    10792.798    24.759642    24.728303    22.828494            0            0            0    13977.064    9881.7121    12496.829    9999.8545   -1460.6301   -1032.2761   -903.78267 
  369500     261.4291   -310.13261   -245.28507   -310.13261            0     8165.912    25.059384    24.801159    22.790751            0            0            0    14164.492    5471.9278    7545.1768    11480.631   -185.60642    1593.1479    1256.6989 
  370000    261.98786   -309.59198   -244.60583   -309.59198            0    10462.271    24.765716     24.79724    22.735765            0            0            0     13962.52    11636.922    7687.3597     12062.53    1608.2519    813.65261   -900.40388 
  370500     254.9576   -311.44019    -248.1979   -311.44019            0     11681.89    24.643713    24.975859     22.99672            0            0            0    14154.433    12008.799    11493.341    11543.529   -705.86098   -2325.5831    534.69532 
  371000    257.46211   -312.22916   -248.36563   -312.22916            0    11288.966    24.723115    24.717912    22.884217            0            0            0    13984.632    11829.969    10754.617    11282.312   -272.47668    412.80737    368.95717 
  371500    257.98899   -311.02342    -247.0292   -311.02342            0     8284.359    24.950692    24.702892    22.846199            0            0            0    14081.352    6163.9877    9434.0098    9255.0797   -487.44087    802.99919    1397.7847 
  372000     259.2192   -309.41974   -245.12036   -309.41974            0    9108.6294    24.845485    24.845085    22.839048            0            0            0    14098.274    9412.9005    7117.1695    10795.818    286.47419    2156.6562   -1951.0503 
  372500    257.05147   -311.36217    -247.6005   -311.36217            0     9428.227    24.710048    24.893371    22.799192            0            0            0    14024.156    10081.124    9417.0747    8786.4827   -1122.7089    504.04154   -226.36422 
  373000    248.39906   -312.68636   -251.07091   -312.68636            0    8422.9474    24.822347    24.819002    22.821794            0            0            0    14059.729    9931.7116     7627.263    7709.8677    2897.5759    1760.7935   -10.503616 
  373500    265.96151   -311.62877   -245.65696   -311.62877            0    10833.917    24.916006    24.657598    22.852666            0            0            0    14039.967     7745.451    13421.066    11335.234   -581.64025   -1807.1825   -1027.0447 
  374000    255.22623   -309.18595   -245.87703   -309.18595            0     10509.23    24.831309    24.804422    22.876834            0            0            0    14090.443    13052.505    8183.0798    10292.104   -702.75055    433.59463    1258.9521 
  374500     268.6257   -309.57299   -242.94033   -309.57299            0    8063.6334    24.727567    24.937692    22.798483            0            0            0    14058.649    8589.3843    6856.2157    8745.3002   -1883.9002   -52.383898   -381.58909 
  375000    266.29584   -310.83095    -244.7762   -310.83095            0     7125.116    24.848658    24.889937    22.829849            0            0            0     14119.84    8168.7352    5740.3135    7466.2995   -128.38326    2234.3313    769.59687 
  375500    261.97398   -310.63676   -245.65406   -310.63676            0    8838.6009    24.899574    24.642041    22.844949            0            0            0     14017.12    7020.1425    10479.051    9016.6093   -794.06421    540.77862    295.95626 
  376000    263.76165   -309.63455   -244.20842   -309.63455            0    9675.9011    24.790063     24.83685    22.962024            0            0            0    14137.881    9691.9276    7740.7713    11595.004   -1291.8524    2021.1715    1429.3407 
  376500    254.86016   -308.88443   -245.66631   -308.88443            0    9166.2025    24.670038    24.911546     22.86185            0            0            0     14050.18    6953.4317     9304.934    11240.242    846.79432    438.35863    577.12257 
  377000    250.72438   -310.57341   -248.38117   -310.57341            0    10209.524    24.927486    24.771953    22.771232            0            0            0    14061.293    8339.7412    10315.696    11973.135    -172.9451    -4.626604   -171.10451 
  377500    257.24688   -311.56151   -247.75137   -311.56151            0    9352.1588    24.956401     24.74888    22.809304            0            0            0    14088.006    8609.7393    9584.6871    9862.0499    28.021029   -63.334269       499.49 
  378000    257.90144   -310.29189   -246.31938   -310.29189            0     10183.52    24.686997      24.8598    22.874628            0            0            0    14038.475    11737.676    9886.1129    8926.7722    696.27917   -241.95816    -422.4582 
  378500    259.19648   -310.44201   -246.14826   -310.44201            0    9600.2857    24.743688    24.862691    22.902926            0            0            0    14089.758    9285.6388    10566.746    8948.4726    918.63934   -366.64111    1847.9262 
  379000    258.71336    -310.2194   -246.04549    -310.2194            0    9528.8424    24.824463    24.752211    22.843912            0            0            0    14036.678     8615.902    11856.799    8113.8266    391.30093    609.21255    44.953248 
  379500    259.04929   -312.23737   -247.98013   -312.23737            0    6969.4575    24.869544    24.814561    22.826219            0            0            0    14086.672    7732.9007    5790.1041    7385.3677   -771.41083   -152.79287    288.87025 
  380000    255.75446    -313.2132   -249.77325    -313.2132            0     12060.38    24.763813    24.802295     22.79162            0            0            0      13998.6     9986.607    13941.962    12252.572    -987.3893    870.40238   -404.55768 
  380500    257.64513    -310.0887   -246.17977    -310.0887            0    9663.4928     24.80026    24.815968    22.891554            0            0            0    14088.434    8838.3133    10571.049    9581.1155   -698.86164   -150.53785   -486.88621 
  381000    263.82063   -310.81016    -245.3694   -310.81016            0     6390.796     24.84366    24.733119    22.880238            0            0            0    14059.019    8068.3282    5101.5739     6002.486   -341.10322    -1058.474   -1360.5243 
  381500    265.06953   -308.33374   -242.58319   -308.33374            0    10029.788    24.836203    24.823066    22.837531            0            0            0    14079.582    10666.377      10043.7    9379.2878   -697.56484   -1472.2569    839.67035 
  382000    263.02272   -310.60747   -245.36463   -310.60747            0    7954.9342     24.76903    24.919585    22.837318            0            0            0    14095.968    7320.7144    7376.3811    9167.7073   -858.22237    2272.6321   -730.19127 
  382500    269.71125   -309.69224    -242.7903   -309.69224            0    12480.481    24.764406     24.77982    22.821257            0            0            0    14004.436    12274.609    13374.126    11792.709   -1042.1912   -868.68876    570.05505 
  383000    265.87616    -308.6792   -242.72856    -308.6792            0    8915.8524    24.925011    24.780337    22.944996            0            0            0    14171.981    10301.677    9196.5364    7249.3435   -602.99725    32.209969    597.73519 
  383500    263.00524   -307.56053   -242.32202   -307.56053            0    8378.9891    24.714182    24.766393    22.865323            0            0            0    13995.433    7218.0369    8354.6673     9564.263   -2767.8594   -2480.2859    2713.5941 
  384000    256.62373   -312.12697    -248.4714   -312.12697            0    8494.1218    24.820588    24.925947    22.882792            0            0            0    14157.049    8548.8808    9404.5587    7528.9259    511.88596    637.88884   -1365.4818 
  384500    262.38881   -311.63513   -246.54952   -311.63513            0    12514.626    24.762938    24.771645    22.750246            0            0            0    13955.427     13474.87    11021.952    13047.055    1246.1306   -471.63042   -231.67678 
  385000    246.34906   -310.23488   -249.12794   -310.23488            0    7219.6337    24.912977    24.813648    22.899992            0            0            0     14156.36    7962.8205    7521.6868    6174.3938   -52.600078   -1217.6151   -2803.3962 
  385500    256.80064   -310.76329   -247.06383   -310.76329            0    11886.624    24.737705    24.742208    22.858702            0            0            0    13991.022    10900.884    10761.965    13997.024    -2351.865   -2487.7139   -1360.0836 
  386000    264.49347   -310.73343   -245.12577   -310.73343            0    9120.5319    24.821594    24.888458    22.889746            0            0            0    14140.626    11231.116     5555.515    10574.965   -896.13315     1390.695   -141.41335 
  386500    258.09704    -308.9548   -244.93377    -308.9548            0    8737.3259    24.863223    24.799418     22.82152            0            0            0      14071.6    9044.5489    5960.5267    11206.902    -787.4936   -367.94919   -879.50303 
  387000      264.754   -311.95597   -246.28368   -311.95597            0    10545.427    24.844494    24.757705    22.826726            0            0            0    14040.551    9695.5596    11272.167    10668.556    364.72736    741.59101   -1676.7022 
  387500    258.62819   -311.74146   -247.58868   -311.74146            0    7301.2455    24.756956    24.864061    22.914481            0            0            0    14105.203    7890.0643    6802.6327    7211.0395    1110.1227    1923.1655   -766.56196 
  388000    252.77709   -310.91441     -248.213   -310.91441            0    10189.739    24.731315    24.792049    22.805668            0            0            0    13983.067     11242.32    9976.7414    9350.1542   -644.84581    2419.8676    2973.4775 
  388500    258.46236   -314.04986   -249.93821   -314.04986            0    6133.2238    24.887984    24.795378    22.886576            0            0            0    14123.465    9124.9865    3713.4436    5561.2413   -1752.8081    2216.2674   -3051.1823 
  389000    256.79788    -312.2309   -248.53212    -312.2309            0    10879.486    24.795528    24.664579    22.838038            0            0            0    13967.088    9565.1981    12025.452    11047.808    748.21304    82.837369     471.0802 
  389500    256.26745   -313.81915   -250.25196   -313.81915            0    9984.0976    24.771394    24.928143    22.938577            0            0            0    14164.683    10985.571    10642.546    8324.1753    180.06984   -303.45667    1297.6782 
  390000    250.37165   -312.49973   -250.39499   -312.49973            0    13465.643    24.649487    24.832975    22.727635            0            0            0    13912.042    15705.856    11343.322     13347.75   -388.88736    2978.0903   -1596.1052 
  390500    257.78022   -310.21627   -246.27383   -310.21627            0    8005.0151    25.036709    24.732192    22.821395            0            0            0    14131.297    7773.6914    7807.5055    8433.8486    31.719346    129.75621   -657.45973 
  391000    264.87451   -310.50447   -244.80229   -310.50447            0    7811.7454     24.91581    24.700531    22.887232            0            0            0    14085.575    6538.5507     9831.455    7065.2303       606.34    4325.0313   -1031.9602 
  391500      261.717   -310.41381   -245.49485   -310.41381            0    7629.0461    24.723632    24.893479    22.829073            0            0            0    14050.318    9314.2272    6439.3931    7133.5181    1749.2473    1787.7639    764.82924 
  392000    254.32635   -311.04072   -247.95501   -311.04072            0     8179.198    24.816488    24.904879    22.851467            0            0            0    14123.386    10731.011    5360.1729    8446.4099   -647.63737    42.533484   -162.89098 
  392500    259.27389   -309.77963   -245.46669   -309.77963            0    13661.988    24.809248    24.672819    22.848202            0            0            0    13985.707    12894.826    16325.305    11765.833   -264.72999   -1565.1314   -1133.0215 
  393000    255.84403   -309.03882   -245.57666   -309.03882            0    9800.3364    24.849981    24.830074    22.918497            0            0            0    14141.328    6647.1113    12986.522    9767.3753   -425.22822    1761.6075   -1414.5402 
  393500    256.53569      -308.93   -245.29626      -308.93            0    10865.125    24.735619    24.830624    22.829922            0            0            0    14022.157    12267.984    9238.5349    11088.856   -2726.6286     498.5981    414.20798 
  394000    248.24098   -309.18276   -247.60653   -309.18276            0    7911.5322    24.828025    24.826388    22.843518            0            0            0    14080.521    5720.1658    9139.2581    8875.1729   -475.14006   -575.45351   -1505.5498 
  394500    263.68097   -310.90447   -245.49835   -310.90447            0    9039.1815    24.884239    24.761727    22.801783            0            0            0    14049.929    8985.5899    9386.1328    8745.8216   -519.08633    1988.9364    1036.6516 
  395000    255.73436   -310.30749   -246.87252   -310.30749            0    8577.1762    24.726925    24.874766    22.884759            0            0            0    14075.877    10093.198    7051.7238    8586.6065   -2092.9694    328.54474    2312.2967 
  395500    257.55053    -311.5984   -247.71293    -311.5984            0    9989.9687    24.693226    24.834129    22.974007            0            0            0    14088.459    12725.773    8711.5564     8532.577   -1562.3777    1173.2259    522.51516 
  396000    258.42841   -311.72815   -247.62493   -311.72815            0     9498.677    24.826796    24.715044     22.82655            0            0            0    14006.265    8137.1799    10801.416    9557.4347    -1107.128   -903.44273   -450.58616 
  396500    263.90157   -309.10105   -243.64021   -309.10105            0    10281.615    24.966852    24.843773    22.735097            0            0            0    14101.917    9044.9885     9534.795    12265.062     497.2977    1700.5805   -315.31437 
  397000    252.56811   -309.93734   -247.28776   -309.93734            0    9410.4773     24.72036    24.861182     22.77962            0            0            0    13999.839    8168.4242    11109.517    8953.4913   -248.97673    2115.7583   -1987.1801 
  397500    259.89984   -310.03262   -245.56441   -310.03262            0    8777.1371     24.76512    24.824479    22.980782            0            0            0    14128.153    12208.336    5866.2539    8256.8211    -375.9311    169.70492    2578.0025 
  398000     259.5342   -310.38796   -246.01044   -310.38796            0    10143.353    24.861145    24.680933    22.876484            0            0            0    14036.924    7526.6381    12347.971    10555.451   -2404.2935   -239.92236   -1023.6941 
  398500    254.46201   -309.78122   -246.66186   -309.78122            0    6962.8425    24.912996    24.908491    22.732118            0            0            0    14106.305    5948.7853    5847.5176    9092.2245    1319.5641    338.25277   -492.96245 
  399000    259.90837   -313.06151   -248.59119   -313.06151            0    12351.216    24.785072    24.918915    22.758112            0            0            0      14055.8    13517.909    10064.316    13471.421    1987.0938   -303.41293    2146.1704 
  399500    258.78379   -312.73621   -248.54483   -312.73621            0    9785.9103    24.729711      24.7724    22.936418            0            0            0    14051.177    13681.245    6637.3221    9039.1636   -516.41388    -147.7623   -1875.4233 
  400000    253.30339   -311.47306    -248.6411   -311.47306            0    7378.0585    24.809316    24.736271    22.987065            0            0            0    14106.931    6767.1845    8383.2207    6983.7703   -433.69931    901.20508   -561.19131 
Loop time of 4413.53 on 1 procs for 400000 steps with 1920 atoms

Performance: 3.915 ns/day, 6.130 hours/ns, 90.630 timesteps/s
64.4% CPU use with 1 MPI tasks x 1 OpenMP threads

MPI task timing breakdown:
Section |  min time  |  avg time  |  max time  |%varavg| %total
---------------------------------------------------------------
Pair    | 3780.7     | 3780.7     | 3780.7     |   0.0 | 85.66
Bond    | 0.061125   | 0.061125   | 0.061125   |   0.0 |  0.00
Neigh   | 583.15     | 583.15     | 583.15     |   0.0 | 13.21
Comm    | 15.855     | 15.855     | 15.855     |   0.0 |  0.36
Output  | 2.7325     | 2.7325     | 2.7325     |   0.0 |  0.06
Modify  | 28.802     | 28.802     | 28.802     |   0.0 |  0.65
Other   |            | 2.273      |            |       |  0.05

Nlocal:        1920.00 ave        1920 max        1920 min
Histogram: 1 0 0 0 0 0 0 0 0 0
Nghost:        7198.00 ave        7198 max        7198 min
Histogram: 1 0 0 0 0 0 0 0 0 0
Neighs:         0.00000 ave           0 max           0 min
Histogram: 1 0 0 0 0 0 0 0 0 0
FullNghs:      549128.0 ave      549128 max      549128 min
Histogram: 1 0 0 0 0 0 0 0 0 0

Total # of neighbors = 549128
Ave neighs/atom = 286.00417
Ave special neighs/atom = 0.0000000
Neighbor list builds = 40000
Dangerous builds not checked

unfix		3
unfix		2

write_data	data.final.${pid}
write_data	data.final.0
System init for write_data ...

write_restart   restart.lmp.${pid}
write_restart   restart.lmp.0
System init for write_restart ...
Total wall time: 1:13:37
