LAMMPS data file via write_data, version 29 Sep 2021, timestep = 400000

972 atoms
2 atom types

-0.12543680326293227 20.116489803263804 xlo xhi
-0.02873521565602566 20.01978821565622 ylo yhi
0.06717694687375442 20.733595053125043 zlo zhi

Masses

1 1.008
2 15.999

Atoms # full

2 0 2 0 1.8825377548851954 2.2558139964049793 1.0437773574107119 0 0 0
31 0 1 0 0.5397451568457114 1.930439329088067 2.262097354308028 0 0 0
32 0 2 0 0.37876569216225897 0.9430792611772684 2.1659380930297876 0 0 0
33 0 2 0 0.8716011519632232 2.212039446726829 3.1551219816613707 0 0 0
5 0 2 0 3.2482046284614157 1.4746361090945102 3.8885923605582744 0 0 0
1 0 1 0 2.5630527704495685 2.3581519836300884 0.32425358046324754 0 0 0
18 0 2 0 4.076182447514454 3.1121492509933555 3.692305976712644 0 0 0
4 0 1 0 4.072555272650074 1.4528098342529296 3.3515748515114168 0 0 0
35 0 2 0 4.477156492987136 2.5663008910251253 0.7579453289879589 0 0 0
36 0 2 0 5.977961356934608 2.4302299857314202 1.2936829289629321 0 0 0
67 0 1 0 7.731126680724097 2.1294953543869832 1.9892162195869274 0 0 0
68 0 2 0 7.950019693457129 2.72821668606497 2.711125990174646 0 0 0
34 0 1 0 5.437531137670519 2.5708267178202187 0.49777577696677616 0 0 0
6 0 2 0 4.704276508615268 1.075386431119183 3.9801931466995653 0 0 0
230 0 2 0 4.247871444089051 -0.008259492194270024 2.098708588857859 0 1 0
272 0 2 0 7.465735015954412 0.2468591374205389 2.0862541639367365 0 1 0
69 0 2 0 8.410655475218451 2.398662346174222 1.3648772130543765 0 0 0
40 0 1 0 10.977949773976333 1.2877344419025274 3.1356936969826608 0 0 0
54 0 2 0 10.943532701237626 3.305817727289992 3.5309144918370863 0 0 0
41 0 2 0 10.141810386388999 1.1025782092387704 3.5931827593316035 0 0 0
266 0 2 0 11.004862472913148 0.1976402679297845 1.7195329209125527 0 1 0
39 0 2 0 10.415175544543695 2.6716999530845915 0.16032510500463254 0 0 0
42 0 2 0 11.624319559053978 1.20314840280985 3.8375165126109327 0 0 0
72 0 2 0 12.830611549651392 2.4915235328318435 0.7832515247981277 0 0 0
84 0 2 0 14.254837263272881 3.32392289161542 3.186625877124163 0 0 0
103 0 1 0 14.169566142794222 1.7987655135440044 2.0031538376279405 0 0 0
105 0 2 0 14.016476072170178 0.848493891415449 1.991453954197706 0 0 0
104 0 2 0 14.94406624376755 2.0127867293428747 1.4484413789827828 0 0 0
73 0 1 0 16.270764382374544 2.6907253061390195 0.34007379152627254 0 0 0
76 0 1 0 17.450005434003884 1.2953910744686952 3.3718783039016897 0 0 0
77 0 2 0 17.530739789442645 0.8670844191696478 2.528286961436645 0 0 0
89 0 2 0 17.21453694519578 3.091313463641856 3.634853434640033 0 0 0
108 0 2 0 19.542643709406192 2.4426324857431596 1.1194976425966543 0 0 0
107 0 2 0 18.140530163871304 2.8042186238008613 0.4305742239281753 0 0 0
106 0 1 0 19.04789916924818 2.567038118384962 0.2537922837510354 0 0 0
78 0 2 0 18.309130940485357 1.1924557074478412 3.8330377928202757 0 0 0
75 0 2 0 16.07439130398577 3.6303197767943094 0.1686407010852897 0 0 0
10 0 1 0 1.1926318848036188 4.143588455378696 4.174516961712802 0 0 0
675 0 2 0 1.448370315267696 5.261910968425714 0.41910915348363925 0 0 1
20 0 2 0 0.7921908035830013 5.084388337228472 2.5873857129638496 0 0 0
19 0 1 0 0.6378033354718868 5.676502665317919 1.798272667031614 0 0 0
21 0 2 0 0.8021519162597321 6.5587610424561005 2.1551263394994726 0 0 0
14 0 2 0 3.7874078778519524 5.539788854609676 0.8989112461885564 0 0 0
112 0 1 0 4.1663092229940855 7.65158982743599 3.6285354605629583 0 0 0
16 0 1 0 4.178800548420343 4.067057468518415 3.876355439928776 0 0 0
114 0 2 0 4.347130042181832 6.960466644971114 2.984664399163634 0 0 0
46 0 1 0 7.838204355120874 4.215785825433523 3.7131138650064837 0 0 0
17 0 2 0 4.1361038983023315 4.516383301838586 2.994013027406709 0 0 0
13 0 1 0 4.362019885511863 5.68195524134227 1.6554730014514303 0 0 0
15 0 2 0 5.248390963740224 5.778913981654929 1.236091741226833 0 0 0
55 0 1 0 7.165228356187198 5.891926557108491 1.5639781624020708 0 0 0
56 0 2 0 7.36400549192756 5.275690339970197 2.307950501218014 0 0 0
177 0 2 0 7.13243196721808 7.564614759743644 2.3095289253469082 0 0 0
57 0 2 0 7.8508331714147275 5.70698040274985 0.9336781654906136 0 0 0
52 0 1 0 10.688461632785518 4.130600035291495 3.944860807075007 0 0 0
51 0 2 0 10.61677702065223 5.125268941752145 2.2309436096602697 0 0 0
50 0 2 0 10.446739093888436 5.80732249034057 0.7774258851961001 0 0 0
150 0 2 0 11.036219894822581 7.163923382934384 2.767688168084524 0 0 0
49 0 1 0 10.987282244618838 5.841660431797108 1.6263449906887044 0 0 0
149 0 2 0 10.140500626398726 7.69425562822041 3.852401760105838 0 0 0
148 0 1 0 11.02309843827942 7.843967542761197 3.479270739953176 0 0 0
47 0 2 0 8.71702993015179 4.49036274697005 4.02714295371673 0 0 0
83 0 2 0 14.173535295690426 4.831065319103007 2.916047359523245 0 0 0
91 0 1 0 13.769125742028496 5.9457320353957925 1.785116254037065 0 0 0
92 0 2 0 13.900269810218248 6.858693646104532 2.013047444928626 0 0 0
93 0 2 0 12.7875533143193 5.925365112577229 1.5069390544605898 0 0 0
747 0 2 0 14.900865856858472 5.553206190970003 0.5041826502894653 0 0 1
82 0 1 0 14.383490049857883 4.179783444648804 3.6092397771412896 0 0 0
88 0 1 0 17.15422803958659 4.066212344856856 3.7122206416048047 0 0 0
90 0 2 0 16.193173911024537 4.175557700212297 3.7226928560519212 0 0 0
86 0 2 0 17.59655917864244 5.201583763379321 2.132242110283935 0 0 0
85 0 1 0 17.801680963407495 6.035108829116104 1.6563966962786039 0 0 0
87 0 2 0 18.76965238143887 6.007770132837748 1.4980776257878292 0 0 0
185 0 2 0 17.604640552164522 7.6059880537567315 2.5848969611736625 0 0 0
746 0 2 0 16.36217061220087 5.840837648933294 0.3110813691029168 0 0 1
139 0 1 0 0.7400586839090327 8.326532953488446 2.0163559460329488 0 0 0
141 0 2 0 1.4016341515464925 8.443513646730233 1.2980175383636465 0 0 0
119 0 2 0 0.9972170385796033 9.633159866601515 3.1134018986813556 0 0 0
118 0 1 0 1.0660684167540058 10.46271301630335 3.610265014147167 0 0 0
120 0 2 0 2.0154371471051347 10.625004308498411 3.605779371553123 0 0 0
782 0 2 0 1.345247795722683 11.919744482986705 0.44213379368360284 0 0 1
109 0 1 0 2.581953984215488 8.964614991880536 0.09272759196124479 0 0 0
124 0 1 0 3.8825952239048336 10.380641122268615 3.7113771559180595 0 0 0
110 0 2 0 3.534698628487131 8.915871836456576 0.3001815381428707 0 0 0
126 0 2 0 4.062518964112972 9.488863281144182 3.261146082338256 0 0 0
175 0 1 0 6.963667306847489 8.529170829906546 2.2793828056688863 0 0 0
176 0 2 0 6.160512243550971 8.604878410977014 1.6694175288896584 0 0 0
142 0 1 0 5.094856954497114 9.041877966052127 0.31310539709006613 0 0 0
122 0 2 0 4.009232894989026 11.576304800561088 2.315120791434222 0 0 0
125 0 2 0 4.711921636209012 10.566717752678802 4.118796526820765 0 0 0
156 0 2 0 7.693810178650705 11.711196841268423 3.2184750119741046 0 0 0
155 0 2 0 7.648737978985919 10.044682963722165 3.2435467477462367 0 0 0
154 0 1 0 8.0249673517537 10.882077961482935 3.630019914160397 0 0 0
147 0 2 0 8.332544063307926 9.100948368695475 1.0301182673889704 0 0 0
162 0 2 0 10.97648229072972 9.810361926339619 3.263223736461504 0 0 0
179 0 2 0 10.63678793328129 9.330493992346764 0.5310087511343032 0 0 0
161 0 2 0 9.736033784695957 10.62871449476438 3.3817390287836204 0 0 0
160 0 1 0 10.704534206618062 10.731499919416102 3.395839841093986 0 0 0
145 0 1 0 8.947919388074798 9.462341949570382 0.34261202034217797 0 0 0
178 0 1 0 11.626403192816785 9.289463631598542 0.3638355444852562 0 0 0
146 0 2 0 8.702855226290625 10.411917111480085 0.1731703326750543 0 0 0
211 0 1 0 13.868816408029412 8.70492559353579 2.092250597283253 0 0 0
212 0 2 0 13.894307724792293 9.326920276531295 2.802723807217329 0 0 0
213 0 2 0 13.092358945388249 8.9461007960862 1.5905228795506021 0 0 0
183 0 2 0 15.239906474764862 9.059711571391956 0.7827475246509409 0 0 0
190 0 1 0 14.357575351915976 10.829361696118625 3.867828564927397 0 0 0
191 0 2 0 14.435543940391167 11.55224340838368 3.218597876424806 0 0 0
192 0 2 0 15.337724107202122 10.697916590517725 4.1023108289513095 0 0 0
181 0 1 0 15.882160066601937 9.482171051946784 0.1640443320103608 0 0 0
140 0 2 0 20.11331085026361 8.446996225232088 1.52536776484725 -1 0 0
184 0 1 0 17.609408728328173 8.100227448134765 3.4217005929991173 0 0 0
186 0 2 0 17.418433589293308 9.044473849019207 3.297811227137892 0 0 0
214 0 1 0 18.44763416859692 8.839929283038874 0.4941361112448626 0 0 0
216 0 2 0 17.50596200046992 8.919202147935046 0.520693943211155 0 0 0
197 0 2 0 17.37436166515047 11.48144878966665 3.218702013958994 0 0 0
196 0 1 0 17.250590966432252 10.785961917488589 3.922618949554832 0 0 0
129 0 2 0 0.5151823556142148 12.110066124654503 2.579591569843706 0 0 0
127 0 1 0 0.23086013524926197 12.50712594350752 1.740142758708284 0 0 0
249 0 2 0 0.29738870831180664 14.475081392759623 1.9189339206476834 0 0 0
221 0 2 0 3.254771418239387 14.27467944203146 3.9949126464288183 0 0 0
247 0 1 0 0.28766921063788525 15.462806987735304 1.8346180384680288 0 0 0
218 0 2 0 1.6237433582735186 15.883544520782369 0.9457955043596145 0 0 0
123 0 2 0 3.560284280232039 12.191863662774821 1.0520449572998327 0 0 0
220 0 1 0 3.9659220766899024 14.584815858420862 3.410384384911066 0 0 0
222 0 2 0 4.092862242071452 13.889359199544128 2.7378264693456176 0 0 0
121 0 1 0 4.0605161874782665 12.439521241640039 1.8028586357973349 0 0 0
165 0 2 0 5.975345234721252 12.363369504064492 1.7878104224653044 0 0 0
163 0 1 0 6.884633171065959 12.659709107936727 2.0075175005999237 0 0 0
164 0 2 0 6.854801777858177 13.608643113806881 2.1719041288763488 0 0 0
283 0 1 0 7.4666217685966565 15.364117633531393 2.1380303875711557 0 0 0
284 0 2 0 6.650835284065576 15.54671135631908 1.6525643937074197 0 0 0
251 0 2 0 4.294630048939313 15.581825348759626 0.3756075655171238 0 0 0
250 0 1 0 5.217079568453591 15.792305235149657 0.32260711460875313 0 0 0
158 0 2 0 11.193134887819985 12.143813815993573 2.405470470509214 0 0 0
819 0 2 0 8.236204893826452 12.405271971277964 0.610649567995743 0 0 1
285 0 2 0 8.123344583276557 15.356827732855661 1.424923134826356 0 0 0
258 0 2 0 10.085160013770333 14.698842985377956 4.124406497417057 0 0 0
157 0 1 0 11.244605050175219 12.726769379953764 1.5968027004306344 0 0 0
159 0 2 0 11.027878002375527 13.604472764571648 1.9783377519422094 0 0 0
256 0 1 0 10.660741465137068 14.823439801544371 3.317073235606561 0 0 0
257 0 2 0 10.705314391579863 15.795944423687883 3.120633093755658 0 0 0
255 0 2 0 10.36166677127811 15.803280125404887 0.36740108178272074 0 0 0
818 0 2 0 9.763728309752523 12.246505339635132 0.687052442009454 0 0 1
817 0 1 0 9.014664340300845 12.199409885359255 0.1067769306868307 0 0 1
253 0 1 0 9.404165340699834 15.881406043096485 0.33108627816520647 0 0 0
855 0 2 0 15.027364123855065 12.532268463130096 0.21812685367099724 0 0 1
199 0 1 0 14.001277767844176 12.956751864977042 1.8813552283620318 0 0 0
200 0 2 0 13.029959416317213 12.888753818486082 1.7674703881513503 0 0 0
201 0 2 0 14.181677386515421 13.83625676388354 2.1767680845603805 0 0 0
319 0 1 0 14.239727433948582 15.846263271639932 2.053550163723083 0 0 0
286 0 1 0 12.05249579980999 15.84268920801037 0.36901460064881314 0 0 0
248 0 2 0 19.633757048392905 15.715123291953818 1.5015863240979446 -1 0 0
128 0 2 0 19.51526816078309 12.506901027794546 1.7891846241004794 -1 0 0
195 0 2 0 16.917449116416538 12.415494989178757 1.171630505490529 0 0 0
193 0 1 0 17.582920040656578 12.730873678646411 1.8375654598338769 0 0 0
194 0 2 0 17.19988373936663 13.494268780691039 2.309799374227402 0 0 0
292 0 1 0 17.132546697060146 14.944919808754726 3.3883612026053322 0 0 0
294 0 2 0 16.55468381023165 14.584231681053474 4.052480225404729 0 0 0
293 0 2 0 16.974178239626106 15.870718588693574 3.3116504551163617 0 0 0
322 0 1 0 18.457564047800346 15.992557576058713 0.12116449168251928 0 0 0
217 0 1 0 2.262822410284536 16.047001537713648 0.21152158941335314 0 0 0
227 0 2 0 0.7163039549688467 16.69694878225298 2.941599392502375 0 0 0
235 0 1 0 0.24099931759275384 19.33706959867844 1.5846449306016932 0 0 0
236 0 2 0 0.33748021521333726 18.78050798405973 2.3874281540998528 0 0 0
237 0 2 0 1.0517764754869956 19.146868535672944 1.1425197201966952 0 0 0
891 0 2 0 3.2363911349505474 18.838558059781683 0.6323289811681969 0 0 1
226 0 1 0 0.7413496452074337 17.554114548865023 3.3739075262564477 0 0 0
228 0 2 0 1.7225591843011328 17.62370635740018 3.5965432059803892 0 0 0
232 0 1 0 3.6198436634148923 17.366590734988385 3.3832349207405574 0 0 0
233 0 2 0 3.653096046994321 16.408882698947295 3.2097982464091745 0 0 0
234 0 2 0 3.773920679726339 17.819088736691796 2.5304565939720858 0 0 0
889 0 1 0 2.4601512472103235 18.633950703426166 0.11197321623512796 0 0 1
890 0 2 0 2.43981640233832 17.655616790196035 0.11538754223518324 0 0 1
229 0 1 0 4.485971023430379 19.226605289273174 1.613574736147335 0 0 0
231 0 2 0 5.444657222502149 19.33404632894574 1.3889263260375633 0 0 0
271 0 1 0 7.243982301094085 19.413697894636677 1.7816220526367716 0 0 0
273 0 2 0 7.464028892365867 18.749416628891638 2.445811219057636 0 0 0
263 0 2 0 7.682455788288932 16.605106875821953 3.314761949514858 0 0 0
262 0 1 0 7.766435937302489 17.478317094139967 3.689542516052954 0 0 0
265 0 1 0 11.286513038308 19.56503332546817 1.0685359124526068 0 0 0
267 0 2 0 10.490103980136803 19.468542797666096 0.5017545193743873 0 0 0
268 0 1 0 11.029401415881813 17.64801482245185 3.312728529897573 0 0 0
269 0 2 0 10.884666081391051 18.291388849846257 2.5803583105406536 0 0 0
264 0 2 0 8.711657404206765 17.606592733036194 3.7117025623599558 0 0 0
270 0 2 0 11.609164025435918 18.098650245772127 3.961278210019226 0 0 0
927 0 2 0 8.470746083804489 18.750890957196397 0.5009503240756814 0 0 1
320 0 2 0 13.381940822831112 16.10817244000569 1.6858709437277362 0 0 0
291 0 2 0 15.249032232841206 16.146553422328154 0.533607767482912 0 0 0
321 0 2 0 14.463888312812129 16.48050518757448 2.7510976821538886 0 0 0
307 0 1 0 13.789987768542419 19.270888312955925 1.8050835245674361 0 0 0
308 0 2 0 12.822393088606576 19.076070244560846 1.5686807198281763 0 0 0
309 0 2 0 14.02511161036685 18.77230395385434 2.6032461800557085 0 0 0
963 0 2 0 14.94624873901521 18.79204343380586 0.5468629694289511 0 0 1
298 0 1 0 14.36612503884704 17.924324980818938 3.923241589029719 0 0 0
300 0 2 0 15.358309111416206 17.901933098117013 3.999444372783322 0 0 0
301 0 1 0 17.80720391738171 19.323367315778874 1.3750556996778114 0 0 0
302 0 2 0 17.193899146966064 19.201987264095663 0.6449205573724472 0 0 0
303 0 2 0 18.7175927093935 19.130108552844682 1.0471431105176783 0 0 0
306 0 2 0 17.2675428176743 18.448828261264367 2.6037837872860394 0 0 0
304 0 1 0 16.934071835993574 17.83946735738347 3.3854556578748265 0 0 0
305 0 2 0 17.717797302479543 17.805275845180994 3.973966062563924 0 0 0
22 0 1 0 1.8368035126618805 1.0389090858581447 5.100573604835213 0 0 0
23 0 2 0 2.019406159759449 1.6597168814023855 5.834267283592675 0 0 0
325 0 1 0 2.550422767781917 2.6775695468078275 7.13985400848105 0 0 0
327 0 2 0 2.3575218821883595 3.6285640736544704 7.1184914248657165 0 0 0
101 0 2 0 0.0451886063125147 0.6385922563396681 5.154910575271038 1 0 0
24 0 2 0 2.225393480302895 0.1528832179462553 5.474485937903461 0 0 0
326 0 2 0 3.5241387855585016 2.709619066449549 7.1165392262587 0 0 0
28 0 1 0 5.9205138529693695 0.6941240036439535 5.213744122679523 0 0 0
29 0 2 0 6.844607295203095 0.6905279338640141 4.995838484976892 0 0 0
358 0 1 0 5.379182138857815 2.5539510078998853 7.231962345215213 0 0 0
359 0 2 0 5.552558152374163 1.7679374308730098 6.68196695831496 0 0 0
360 0 2 0 6.076005455208002 2.507177392079735 7.893055669617992 0 0 0
58 0 1 0 8.795813859628792 0.7433039050423832 4.674464605304942 0 0 0
59 0 2 0 8.80334185494251 1.51803115600195 5.280174439694187 0 0 0
361 0 1 0 9.504739665467618 2.565984136911528 6.67185970733677 0 0 0
363 0 2 0 9.4390970516649 3.5439070644521786 6.648453718554361 0 0 0
362 0 2 0 10.305011568301374 2.4429043167189177 7.218267621894831 0 0 0
60 0 2 0 8.866651319880955 -0.01765824052647247 5.2857789005393006 0 0 0
392 0 2 0 8.245921595012872 2.0992068949438734 8.211396560008932 0 0 0
394 0 1 0 12.283107681023672 2.681856866698147 7.2890657188288 0 0 0
396 0 2 0 12.46149859959553 3.521126631914855 6.898525020047484 0 0 0
66 0 2 0 12.719589770088078 1.7141589169734495 6.017267586800708 0 0 0
64 0 1 0 12.822873859601106 1.0451198239955246 5.27653798388362 0 0 0
65 0 2 0 13.757023392315542 0.8882057172061611 5.12159543386779 0 0 0
94 0 1 0 15.581706245743444 0.7460670708434288 5.427759481171124 0 0 0
95 0 2 0 15.891575131019806 1.4034482525160858 6.038352119702558 0 0 0
96 0 2 0 16.049637732439603 0.8218765127001707 4.563512129826693 0 0 0
395 0 2 0 12.98313839589082 2.501452453849287 7.960072438984454 0 0 0
399 0 2 0 16.100102085642465 3.351589728877671 6.97986008543146 0 0 0
397 0 1 0 16.28145842297228 2.517646819318447 7.405086948853532 0 0 0
100 0 1 0 19.34051598742408 0.4470227276912831 5.401526738184154 0 0 0
398 0 2 0 17.236271671934112 2.490633290644412 7.601005780993068 0 0 0
430 0 1 0 19.116890053654025 2.538586627539949 7.481320922858123 0 0 0
431 0 2 0 19.19138034813062 1.7636271898694402 6.885851265287294 0 0 0
432 0 2 0 19.243623851562916 3.301061011659076 6.894714786296851 0 0 0
12 0 2 0 2.105551232155269 4.154648985895622 4.486158866524356 0 0 0
131 0 2 0 2.4658555477494697 7.560689596072009 4.426769949471966 0 0 0
11 0 2 0 0.5808519312961935 4.537530795807826 4.8081017781707915 0 0 0
25 0 1 0 2.5679578661925087 5.348218438704651 7.142452558797913 0 0 0
26 0 2 0 2.5389395944792446 5.908686645119522 6.3362262438991 0 0 0
27 0 2 0 3.3919448673688266 5.553011597232107 7.6457886455760615 0 0 0
130 0 1 0 1.8622760031670973 7.345093272756859 5.172205449650949 0 0 0
344 0 2 0 1.115874198194822 5.717014965065277 8.069725270557127 0 0 0
132 0 2 0 0.945265426933096 7.367200701284979 4.891607510523558 0 0 0
113 0 2 0 4.9636460256104735 7.7295075809822205 4.22989518434323 0 0 0
8 0 2 0 5.882257561872477 4.148009795144851 6.33957961716586 0 0 0
9 0 2 0 5.278696404680171 4.763036951651124 4.990909540586629 0 0 0
7 0 1 0 5.87062865769633 4.969988202055894 5.754510311131835 0 0 0
136 0 1 0 6.253560262131243 7.544992482232196 5.237962702213895 0 0 0
137 0 2 0 6.08199812795391 6.688062335987472 5.607255979816532 0 0 0
138 0 2 0 7.240366810016806 7.659358903177409 5.135165604268681 0 0 0
48 0 2 0 7.210268629489062 4.364063185325087 4.440409163607528 0 0 0
53 0 2 0 11.422032108702158 4.345654926522027 4.593112547298119 0 0 0
63 0 2 0 8.630945638610743 5.395935265658404 7.294090954742846 0 0 0
61 0 1 0 9.470716131018106 5.410702733268711 6.782943478333859 0 0 0
167 0 2 0 9.1695678411886 6.9339493482204215 5.7952639427918315 0 0 0
62 0 2 0 10.146217548840681 5.619659215672463 7.420973830428424 0 0 0
166 0 1 0 8.882239484504222 7.602360774999448 5.170720064050518 0 0 0
173 0 2 0 12.286498722045952 7.536328799514949 4.682390444252488 0 0 0
44 0 2 0 13.585872721885572 4.623144713230369 5.206272646537241 0 0 0
43 0 1 0 12.823415985868127 4.743765337469603 5.829727013428037 0 0 0
45 0 2 0 12.744715468007868 5.6799804177873625 5.879337043286816 0 0 0
172 0 1 0 12.867359732072222 7.486261529752186 5.41632084938819 0 0 0
174 0 2 0 13.782921246840765 7.432215327020178 5.119504085754873 0 0 0
416 0 2 0 14.871064118095791 5.468927621016074 8.007784382145381 0 0 0
202 0 1 0 15.709499671471328 7.238973634262128 5.286815426830614 0 0 0
99 0 2 0 15.967818895617146 5.877025472434337 6.227200661203208 0 0 0
97 0 1 0 16.03335199822917 5.1241035689652525 6.825338794283332 0 0 0
203 0 2 0 15.915518723045427 7.981666276185054 5.906117758817932 0 0 0
81 0 2 0 18.284980090931676 4.334998648511081 5.128674375826255 0 0 0
79 0 1 0 19.115551364052568 4.651717330864395 5.563598312415743 0 0 0
80 0 2 0 19.011902425508097 5.619087069058065 5.56522554122147 0 0 0
98 0 2 0 16.884219272167908 5.26643359817954 7.278127482455199 0 0 0
208 0 1 0 19.276362526771283 7.324610977899826 5.455373432904498 0 0 0
209 0 2 0 18.63846638315599 7.6124420954539955 4.788151631665598 0 0 0
204 0 2 0 16.375379041827557 7.4127979681607155 4.613588210236267 0 0 0
210 0 2 0 19.032944341004583 7.831894418806619 6.24444937052722 0 0 0
433 0 1 0 2.6666625797380523 9.168940717687171 6.904146691518585 0 0 0
435 0 2 0 2.553877090317677 8.590520388604242 6.174146594164936 0 0 0
434 0 2 0 3.637905250355319 9.25339712918334 7.083721601623461 0 0 0
135 0 2 0 2.404457066942235 10.896363849220696 6.590297595429229 0 0 0
133 0 1 0 2.3330901947031286 11.84175789614213 6.699239318924701 0 0 0
189 0 2 0 0.06134141318494726 11.080481823577756 4.996059723411327 1 0 0
468 0 2 0 5.6503037831529825 8.68260580557516 6.457536844445565 0 0 0
466 0 1 0 5.333666291829574 9.246640867109011 7.206986429178725 0 0 0
467 0 2 0 5.592992777583964 10.173394276371747 6.925574727853487 0 0 0
115 0 1 0 5.953322569276594 11.320674626898244 5.45820741929528 0 0 0
116 0 2 0 6.706064933183885 11.159244323588041 4.888880179195244 0 0 0
168 0 2 0 9.039550730848122 8.456250741595872 5.640078952709384 0 0 0
469 0 1 0 9.241328725257139 9.483824921575913 6.95541311482517 0 0 0
471 0 2 0 10.17585464802476 9.566154280428938 7.1983892790866 0 0 0
470 0 2 0 9.01179711005043 10.404492901727648 6.760663365704788 0 0 0
502 0 1 0 11.976759700077126 9.512442966254499 7.258285921131432 0 0 0
152 0 2 0 11.479027571728382 11.410188549333672 4.851873636656598 0 0 0
500 0 2 0 8.0104902044578 8.669461745088086 8.095341511996404 0 0 0
504 0 2 0 12.093151977829423 10.31087006260972 6.659158182350546 0 0 0
503 0 2 0 12.344359928355091 8.850967452317239 6.629010187542301 0 0 0
507 0 2 0 15.77798081542867 9.19012945636626 7.980033360694828 0 0 0
151 0 1 0 12.28269249321869 11.634116584058463 5.437848858576214 0 0 0
153 0 2 0 13.028294186128418 11.308130437167996 4.899920430503463 0 0 0
505 0 1 0 16.19513353421553 9.350142295117484 7.0985193517325404 0 0 0
207 0 2 0 16.084205224338625 11.015484474481088 6.704288038546258 0 0 0
198 0 2 0 17.888552881237487 11.02802664984669 4.573637232424804 0 0 0
506 0 2 0 17.125677072827948 9.088147954123384 7.199239962797742 0 0 0
538 0 1 0 19.05045984807906 9.350448081754337 7.354049338426814 0 0 0
539 0 2 0 19.8291332260157 9.048586074213084 7.8603909982487075 0 0 0
540 0 2 0 19.34856185440674 10.169290112268644 6.841257379315494 0 0 0
187 0 1 0 19.511457940146915 11.236228314481533 5.520959420387853 0 0 0
205 0 1 0 16.09425638187419 11.948895712379858 6.758053062305355 0 0 0
134 0 2 0 3.135208365778428 12.08805616862638 7.190124836790587 0 0 0
238 0 1 0 2.010644471191838 13.963003268492166 5.023045089247137 0 0 0
239 0 2 0 1.0574856383969335 13.804570310505962 4.860034132189064 0 0 0
240 0 2 0 2.275815409518611 13.130249390349416 5.448109116535195 0 0 0
542 0 2 0 2.315114703141438 15.38512528263953 6.3884007661897995 0 0 0
453 0 2 0 1.0022398679193687 12.234460779954475 7.989596930865491 0 0 0
573 0 2 0 1.3465025165215756 15.736754589835698 8.249152194999208 0 0 0
246 0 2 0 5.332437490853112 14.413652334446677 4.705115264195652 0 0 0
117 0 2 0 5.958308812586324 12.297024147028006 5.506098454422344 0 0 0
244 0 1 0 5.950716217146799 14.256292850079232 5.423857916627968 0 0 0
245 0 2 0 5.689419725855398 14.797013501579645 6.135985907220986 0 0 0
276 0 2 0 7.906693901081379 14.608179602065116 5.165436621884305 0 0 0
447 0 2 0 5.6740128220838955 12.655424959806156 8.264794925648719 0 0 0
489 0 2 0 8.219011286075306 12.727528426441872 7.9750688509505805 0 0 0
169 0 1 0 9.456460863231701 12.056126742671106 6.492621434256809 0 0 0
171 0 2 0 10.197604956934326 12.327740380392884 7.085803864590193 0 0 0
170 0 2 0 9.102609547722293 12.80680402222019 6.061818521934987 0 0 0
274 0 1 0 8.871548268993244 14.468206561174355 5.267723667745232 0 0 0
275 0 2 0 9.13328492189464 15.070765362463588 5.9806660902182225 0 0 0
578 0 2 0 8.968676425349749 15.842067745577944 8.121316498998944 0 0 0
281 0 2 0 12.251761119216178 14.764184908327204 4.292130943202227 0 0 0
612 0 2 0 12.463580082335701 15.556574321447252 6.720107423901735 0 0 0
206 0 2 0 15.558786090968137 12.24876022445745 7.518137026114049 0 0 0
282 0 2 0 12.224689591010161 13.394934246858176 5.076796853678628 0 0 0
280 0 1 0 12.590357236287785 14.309987895937747 5.101638408602846 0 0 0
311 0 2 0 14.281857181337468 14.006738577593204 5.001063657456705 0 0 0
310 0 1 0 15.231778251076278 14.017408896153347 5.252220464352073 0 0 0
312 0 2 0 15.390714099769976 13.249425660253735 5.864031136693058 0 0 0
614 0 2 0 15.808570414242475 15.190691504257376 6.3931758695409115 0 0 0
524 0 2 0 13.080756336247658 12.608735673991072 8.181108137847547 0 0 0
318 0 2 0 18.82059347266314 14.346347120249046 4.3647322331420435 0 0 0
188 0 2 0 19.4173074713356 12.222413309816433 5.559349277623263 0 0 0
518 0 2 0 17.623128535463106 12.42113857055718 7.761158946960351 0 0 0
316 0 1 0 19.438474130152635 13.948331618492343 4.986500097916446 0 0 0
317 0 2 0 19.33011577813899 14.497837095973757 5.828034139928786 0 0 0
648 0 2 0 19.500214696889312 15.418644557890714 7.895587656954623 0 0 0
646 0 1 0 18.94650191744397 15.389728366444356 7.101302120009088 0 0 0
613 0 1 0 16.16889490630371 15.582555271481862 7.183960961415579 0 0 0
647 0 2 0 17.996477699624748 15.259790545471859 7.292623563791071 0 0 0
543 0 2 0 3.14963772074002 16.158498282798625 7.412893876969087 0 0 0
541 0 1 0 2.2964994702578547 16.094155015686063 7.037179722909225 0 0 0
241 0 1 0 2.603679411629492 18.950506220604808 6.814179552621082 0 0 0
242 0 2 0 2.7317881355327915 18.033301260759593 6.533531917529668 0 0 0
243 0 2 0 3.4871765023546732 19.148446080167012 7.192251426851143 0 0 0
560 0 2 0 1.1120696506433938 18.96131930442877 7.938831855978935 0 0 0
30 0 2 0 5.665672984154461 19.806926655354083 5.2961705692694885 0 -1 0
575 0 2 0 5.819664044850613 16.167585412990896 8.194670491172825 0 0 0
574 0 1 0 5.10765376036849 16.114842056337842 7.554842291948294 0 0 0
224 0 2 0 4.81427946468748 17.786283023729567 4.765889442385979 0 0 0
223 0 1 0 5.572645594804343 18.019726415254624 5.313775918542745 0 0 0
225 0 2 0 6.377046786432692 17.62784119689119 5.004965607263573 0 0 0
576 0 2 0 5.329834550191933 16.79687772398477 6.963046828944258 0 0 0
611 0 2 0 11.263943478076051 16.21735153244113 7.465884218702346 0 0 0
577 0 1 0 9.498123986787782 16.182090608954248 7.360373767243982 0 0 0
278 0 2 0 8.15405040510238 19.043740937196333 7.51204165779111 0 0 0
277 0 1 0 8.739902049278676 18.841978881377955 6.730317948909019 0 0 0
579 0 2 0 9.212171623185638 17.150141641389567 7.249430364212741 0 0 0
279 0 2 0 9.574386531229196 19.00594982636371 7.234433044855947 0 0 0
610 0 1 0 12.258192526217696 16.190987047632603 7.4107592939370015 0 0 0
261 0 2 0 12.352941669992285 17.876887945278625 6.364545344671855 0 0 0
299 0 2 0 13.870503636874638 18.13855650693577 4.738299778680925 0 0 0
259 0 1 0 12.526720899257292 18.426266522883495 5.60794192794004 0 0 0
260 0 2 0 12.614156542292815 19.322881097900833 5.88434602209229 0 0 0
315 0 2 0 15.006767889681282 18.40602168178357 7.188885246309573 0 0 0
313 0 1 0 15.911612627016577 18.440991673894395 6.835370663831631 0 0 0
314 0 2 0 15.884674717747306 19.113051244046595 6.202671326215737 0 0 0
297 0 2 0 19.858312087788764 17.36210279966415 4.7152735266090104 0 0 0
615 0 2 0 16.215376023807455 16.546821741504502 7.093911223760223 0 0 0
102 0 2 0 19.30833861898544 19.561897833565524 5.619084450044978 0 -1 0
295 0 1 0 19.31896881394822 17.56547601786385 5.486848781274099 0 0 0
296 0 2 0 19.323291336909715 16.793284308769287 6.0371284743486315 0 0 0
627 0 2 0 17.461276744508872 18.759297933599612 7.663782420867246 0 0 0
626 0 2 0 18.988378713620953 18.957318823902483 8.20190978754588 0 0 0
356 0 2 0 1.5230500700083032 1.9206996185124814 8.429020453595164 0 0 0
355 0 1 0 0.8550778298542576 1.6882010908867626 9.16861818722471 0 0 0
335 0 2 0 0.9933686843750296 2.948787382192334 10.407058484302052 0 0 0
346 0 1 0 1.870576697374244 0.3788972887180116 11.84870298237666 0 0 0
347 0 2 0 2.525714896734246 0.6065225324571722 11.137873024751336 0 0 0
348 0 2 0 0.9491034639327147 0.31458696465717256 11.417621654590574 0 0 0
357 0 2 0 0.024448329442605304 2.0063395985587227 8.764099068833964 0 0 0
561 0 2 0 0.6347566143719965 0.0021472083488802696 8.884684009483191 0 1 0
336 0 2 0 2.1999901036852108 3.8469146392834985 10.964424914857679 0 0 0
334 0 1 0 1.2197737124511658 3.7525199642105336 10.850596446591679 0 0 0
328 0 1 0 4.154135568026151 0.9895814174975777 10.43358492268295 0 0 0
329 0 2 0 4.169776258422062 1.941762278430193 10.330326647665947 0 0 0
330 0 2 0 4.721360341005348 0.8072114678457228 11.190505906372406 0 0 0
391 0 1 0 7.534846989499749 2.0266642731085036 8.926655821235801 0 0 0
393 0 2 0 7.485591059364233 1.0579802153131699 9.062369262398434 0 0 0
372 0 2 0 7.72486258843075 3.2050601338704126 10.318973581908972 0 0 0
340 0 1 0 4.041340649723342 3.8106702029845207 10.643635211920898 0 0 0
382 0 1 0 8.378171206920708 0.6231157654567201 12.071446520693286 0 0 0
366 0 2 0 9.660442231064073 1.0347746270817102 10.774472193193366 0 0 0
364 0 1 0 10.41589479801868 1.123333326778282 10.212604604586488 0 0 0
378 0 2 0 10.849328595249077 3.0356693370407 10.431993779646126 0 0 0
365 0 2 0 11.13900699982073 0.7076635263826315 10.68982493792019 0 0 0
371 0 2 0 8.909325276309762 3.973499427114626 11.003651841529875 0 0 0
429 0 2 0 15.088457403225885 2.052280890002528 8.693460245743985 0 0 0
427 0 1 0 14.264946162619504 1.7685955044434918 9.11655069748709 0 0 0
428 0 2 0 14.228351305005454 2.3526695373922166 9.923340683318512 0 0 0
632 0 2 0 13.774731727187042 -0.0050234661530056055 8.628863749474004 0 1 0
389 0 2 0 13.512655379667853 0.8886568667953298 11.7276619391647 0 0 0
418 0 1 0 15.37796806783112 0.9297145027393444 12.032291934365473 0 0 0
388 0 1 0 12.572286922050546 1.0562914398924834 11.949801947802708 0 0 0
420 0 2 0 15.81762847843389 1.6746392840162923 12.440112135250624 0 0 0
400 0 1 0 17.430494308907946 1.1944140395068332 9.984378348193552 0 0 0
402 0 2 0 16.614409662779327 0.9482861722307697 10.421619746585236 0 0 0
414 0 2 0 17.688649514841817 2.989228066651567 10.265784735899896 0 0 0