LAMMPS (29 Sep 2021 - Update 2)
  using 1 OpenMP thread(s) per MPI task
echo both

include		in.partitions
variable        pid world 0
include		in.temp
variable        temperature equal 225
variable	tempDamp equal 0.1
include		in.pressure
variable        pressure equal 2026.5
variable        pressureDamp equal 1.0 # This is 1 ps
include		in.seed
variable        seed world 745823

units           metal
atom_style	full
include		in.box
read_data       iceIII.data
Reading data file ...
  orthogonal box = (0.0000000 0.0000000 0.0000000) to (19.991053 19.991053 20.800772)
  1 by 1 by 1 MPI processor grid
  reading atoms ...
  972 atoms
Finding 1-2 1-3 1-4 neighbors ...
  special bond factors lj:    0        0        0       
  special bond factors coul:  0        0        0       
     0 = max # of 1-2 neighbors
     0 = max # of 1-3 neighbors
     0 = max # of 1-4 neighbors
     1 = max # of special neighbors
  special bonds CPU = 0.003 seconds
  read_data CPU = 0.029 seconds
include 	in.setup
variable	out_freq equal 500
variable	out_freq2 equal 500

timestep        0.0005

neigh_modify    delay 7 every 1

include         in.deepmd
# This is deepMD model

# create groups ###
#group ox type 2
#group hy type 1

mass 2 15.999
mass 1 1.008

pair_style      deepmd ../graph.pb
pair_coeff      * *

bond_style      none
angle_style     none
dihedral_style  none
improper_style  none
neigh_modify exclude none


neighbor        2.0 bin
neigh_modify    every 10 delay 0 check no

thermo          ${out_freq}
thermo          500
thermo_style 	custom step temp pe etotal epair emol press lx ly lz xy xz yz vol pxx pyy pzz pxy pxz pyz cella cellb cellc cellalpha cellbeta cellgamma

restart 	${out_freq} restart.lmp.${pid} restart2.lmp.${pid}
restart 	500 restart.lmp.${pid} restart2.lmp.${pid}
restart 	500 restart.lmp.0 restart2.lmp.${pid}
restart 	500 restart.lmp.0 restart2.lmp.0


include         in.dump
dump            myDump all atom ${out_freq2} dump.water.${pid}
dump            myDump all atom 500 dump.water.${pid}
dump            myDump all atom 500 dump.water.0
dump            myDump2 all dcd ${out_freq2} dump.dcd
dump            myDump2 all dcd 500 dump.dcd
dump_modify     myDump append yes
dump_modify     myDump2 append yes


timer           timeout 04:55:00 every 1000
New timer settings: style=normal  mode=nosync  timeout=04:55:00

fix             2 all nph aniso ${pressure} ${pressure} ${pressureDamp}
fix             2 all nph aniso 2026.5 ${pressure} ${pressureDamp}
fix             2 all nph aniso 2026.5 2026.5 ${pressureDamp}
fix             2 all nph aniso 2026.5 2026.5 1
fix             3 all temp/csvr ${temperature} ${temperature} ${tempDamp} ${seed}
fix             3 all temp/csvr 225 ${temperature} ${tempDamp} ${seed}
fix             3 all temp/csvr 225 225 ${tempDamp} ${seed}
fix             3 all temp/csvr 225 225 0.1 ${seed}
fix             3 all temp/csvr 225 225 0.1 745823
velocity 	all create ${temperature} ${seed} dist gaussian
velocity 	all create 225 ${seed} dist gaussian
velocity 	all create 225 745823 dist gaussian

run             400000

CITE-CITE-CITE-CITE-CITE-CITE-CITE-CITE-CITE-CITE-CITE-CITE-CITE

Your simulation uses code contributions which should be cited:

- USER-DEEPMD package:

@article{Wang_ComputPhysCommun_2018_v228_p178,
  author = {Wang, Han and Zhang, Linfeng and Han, Jiequn and E, Weinan},
  doi = {10.1016/j.cpc.2018.03.016},
  url = {https://doi.org/10.1016/j.cpc.2018.03.016},
  year = 2018,
  month = {jul},
  publisher = {Elsevier {BV}},
  volume = 228,
  journal = {Comput. Phys. Commun.},
  title = {{DeePMD-kit: A deep learning package for many-body potential energy representation and molecular dynamics}},
  pages = {178--184}
}

CITE-CITE-CITE-CITE-CITE-CITE-CITE-CITE-CITE-CITE-CITE-CITE-CITE

Neighbor list info ...
  update every 10 steps, delay 0 steps, check no
  max neighbors/atom: 2000, page size: 100000
  master list distance cutoff = 8
  ghost atom cutoff = 8
  binsize = 4, bins = 5 5 6
  1 neighbor lists, perpetual/occasional/extra = 1 0 0
  (1) pair deepmd, perpetual
      attributes: full, newton on
      pair build: full/bin
      stencil: full/bin/3d
      bin: standard
Per MPI rank memory allocation (min/avg/max) = 7.648 | 7.648 | 7.648 Mbytes
Step Temp PotEng TotEng E_pair E_mol Press Lx Ly Lz Xy Xz Yz Volume Pxx Pyy Pzz Pxy Pxz Pyz Cella Cellb Cellc CellAlpha CellBeta CellGamma 
       0          225   -175.65013   -147.41002   -175.65013            0    37147.046    19.991053    19.991053    20.800772            0            0            0    8312.8663    40945.461    41336.328     29159.35   -62.508099   -1048.0995   -437.03708    19.991053    19.991053    20.800772           90           90           90 
     500    224.62898   -166.27699   -138.08344   -166.27699            0    -1919.596    20.145602    20.053308    20.588765            0            0            0    8317.5719    -1978.114   -1117.4582   -2663.2157   -395.05601   -780.51677   -913.78585    20.145602    20.053308    20.588765           90           90           90 
    1000    237.10816   -166.08658   -136.32676   -166.08658            0    198.34997    20.253542     20.14817    20.350334            0            0            0    8304.3978   -594.21842    1409.5197   -220.25141   -942.05429   -411.55756   -201.75981    20.253542     20.14817    20.350334           90           90           90 
    1500    219.35919   -165.33327   -137.80114   -165.33327            0    8434.5679     20.24113    20.165578    20.328256            0            0            0    8297.4672    5958.3372     10332.05    9013.3161    2251.3137   -1978.0604    561.30913     20.24113    20.165578    20.328256           90           90           90 
    2000    218.80528   -163.45458   -135.99197   -163.45458            0   -5338.8846    20.209505    20.145483    20.431302            0            0            0    8318.2009    -6689.073   -3140.4015   -6187.1795    1038.1427   -5.6213753    982.09438    20.209505    20.145483    20.431302           90           90           90 
    2500    223.88573   -163.17468   -135.07443   -163.17468            0    6663.5443    20.055994    20.207586    20.532254            0            0            0    8321.3781    5027.1193    7819.6123    7143.9013    2247.8817    64.248812    1690.8842    20.055994    20.207586    20.532254           90           90           90 
    3000    223.37522   -163.20804   -135.17186   -163.20804            0    2737.1168    20.098049    20.199711    20.705184            0            0            0    8405.7827    2488.2416    2540.1583    3182.9505   -433.58636    19.182143   -375.64834    20.098049    20.199711    20.705184           90           90           90 
    3500    221.72529   -163.68101   -135.85191   -163.68101            0    1316.5583    20.223372    19.972682    20.538277            0            0            0    8295.7177   -2246.4297    3681.3309    2514.7737    629.62356    243.71292    2494.2543    20.223372    19.972682    20.538277           90           90           90 
    4000    219.71359   -164.09561     -136.519   -164.09561            0     2133.664    20.340826    20.001643    20.466188            0            0            0    8326.6678   -1362.3997    6773.5988     989.7928   -157.35694    1714.1039    37.062053    20.340826    20.001643    20.466188           90           90           90 
    4500    227.18277   -165.07325   -136.55917   -165.07325            0    2747.3568    20.204562    20.132618    20.467995            0            0            0    8325.7813     2448.962    1957.5956    3835.5128   -579.28291    58.319069    993.79758    20.204562    20.132618    20.467995           90           90           90 
    5000    222.29955   -164.27043   -136.36926   -164.27043            0    1949.0282    20.065319    20.195808    20.625641            0            0            0    8358.2384    1499.6366    2320.7678    2026.6801    413.75671   -902.13945    474.36284    20.065319    20.195808    20.625641           90           90           90 
    5500    218.98238   -165.10866   -137.62383   -165.10866            0    2630.5924    20.031401    20.143933    20.666265            0            0            0    8339.0693    4807.9329    1108.8461    1974.9982    105.34269    1932.7443    637.21486    20.031401    20.143933    20.666265           90           90           90 
    6000    226.15334   -164.49976   -136.11489   -164.49976            0    2702.5785    20.145576    20.160658    20.631878            0            0            0    8379.5978    1972.2693    4063.8435    2071.6228   -5.8552257   -3748.4382    559.64972    20.145576    20.160658    20.631878           90           90           90 
    6500    224.40714   -165.20165   -137.03595   -165.20165            0    3976.3025    20.158102    20.102965    20.347239            0            0            0    8245.4665    4284.7208    3711.9197    3932.2671   -610.60409     1463.002    1088.1716    20.158102    20.102965    20.347239           90           90           90 
    7000    231.45105   -164.35506   -135.30527   -164.35506            0   -1596.5236    20.308126    20.213542    20.292048            0            0            0    8329.8687   -1248.4758   -2227.0285   -1314.0663   -43.853811   -1240.0918   -2681.4794    20.308126    20.213542    20.292048           90           90           90 
    7500     225.8123   -163.34726   -135.00519   -163.34726            0    1157.4661    20.228719    20.294232    20.455576            0            0            0    8397.5521    785.52249    1005.3769    1681.4987    153.35641    948.86528    976.80415    20.228719    20.294232    20.455576           90           90           90 
    8000    223.06477    -164.5024   -136.50519    -164.5024            0    1482.8392    19.962452    20.088886    20.706931            0            0            0    8303.9644    3397.8947    -145.4848    1196.1077   -111.66817   -74.913882    -1160.021    19.962452    20.088886    20.706931           90           90           90 
    8500    221.77884   -165.22422    -137.3884   -165.22422            0    145.14646    20.033542    20.004087    20.780083            0            0            0    8327.6749    1248.4287    871.10496   -1684.0943   -960.89873   -1008.1485      377.473    20.033542    20.004087    20.780083           90           90           90 
    9000    228.22024   -163.17026   -134.52598   -163.17026            0    1675.9524    20.350833    20.125465    20.632483            0            0            0    8450.4455    1244.2609    520.87484    3262.7214    1465.6772    -1880.187   -169.15224    20.350833    20.125465    20.632483           90           90           90 
    9500    233.79564   -164.11052   -134.76645   -164.11052            0    2558.4036    20.312099    20.203016    20.430625            0            0            0    8384.0267   -997.25665     3943.757    4728.7105    369.46235    89.529099   -2004.3021    20.312099    20.203016    20.430625           90           90           90 
   10000    234.14772   -163.60962   -134.22136   -163.60962            0    2735.5099    19.986383    20.194264    20.384687            0            0            0    8227.4694    6056.9962    1078.3997    1071.1338   -291.68373    764.55955    2134.8228    19.986383    20.194264    20.384687           90           90           90 
   10500    240.69378   -163.52939   -133.31953   -163.52939            0    2432.9975    20.162681    20.191126    20.665767            0            0            0    8413.1835    1714.2972    2162.8191    3421.8761   -1053.5254    18.475998   -2459.8627    20.162681    20.191126    20.665767           90           90           90 
   11000    232.00723   -164.02253   -134.90293   -164.02253            0     3656.653    20.270951    20.032897    20.760608            0            0            0    8430.5898    7631.1347    57.071042    3281.7534   -621.25758    1545.3311   -504.79264    20.270951    20.032897    20.760608           90           90           90 
   11500     227.2224   -164.75034   -136.23129   -164.75034            0    609.58599    20.109978    20.110439     20.61167            0            0            0    8335.7818    661.08434    2194.3414   -1026.6678   -1721.2356    1291.5526    7.7917359    20.109978    20.110439     20.61167           90           90           90 
   12000    230.57703     -164.104    -135.1639     -164.104            0    1466.5159    20.064892    20.327702    20.515482            0            0            0     8367.714     3354.678    103.15713    941.71264    468.47462    2683.3916   -694.11583    20.064892    20.327702    20.515482           90           90           90 
   12500    227.10524   -163.48088   -134.97654   -163.48088            0    3799.0476    20.185545    20.202901    20.520664            0            0            0    8368.4617    8496.1643    -591.7538    3492.7325    1857.1793    -773.6271    -1877.406    20.185545    20.202901    20.520664           90           90           90 
   13000    223.80079   -162.16317   -134.07358   -162.16317            0    3399.2309    20.233876    20.015243    20.540916            0            0            0    8318.7819     2626.513    3107.4261    4463.7537   -463.13349    1420.9889    1279.0428    20.233876    20.015243    20.540916           90           90           90 
   13500     226.8485   -165.08497   -136.61285   -165.08497            0     556.5419    20.217662    20.069409    20.495119            0            0            0    8316.0281    100.28284    1433.0776    136.26526   -592.98422   -1282.4268   -277.13295    20.217662    20.069409    20.495119           90           90           90 
   14000    228.25809   -165.52368   -136.87465   -165.52368            0    1656.0399    20.157903    20.333543     20.47419            0            0            0    8391.9935    2343.3154    182.29446    2442.5099    -707.2692    260.51404    1276.2818    20.157903    20.333543     20.47419           90           90           90 
   14500    219.04866   -165.40324   -137.91009   -165.40324            0    553.27499    20.040374    20.197296    20.431608            0            0            0    8269.9255   -2794.9105    2163.7789    2290.9566   -534.84789    1015.2853    850.61448    20.040374    20.197296    20.431608           90           90           90 
   15000    221.85148   -163.48818   -135.64325   -163.48818            0    1224.8893    20.226042    20.017001     20.53131            0            0            0    8312.4031   -512.04822    1724.1503    2462.5658   -1494.2994    17.963833    2243.6336    20.226042    20.017001     20.53131           90           90           90 
   15500    229.77994   -164.51359   -135.67354   -164.51359            0   -12.909584    20.321969     20.10742    20.650318            0            0            0    8438.1816   -5600.3236    6524.9109   -963.31601   -760.69101   -114.05813   -911.98292    20.321969     20.10742    20.650318           90           90           90 
   16000    233.43938   -164.75618   -135.45683   -164.75618            0    351.48983    20.073569    20.108844    20.519059            0            0            0    8282.6466    603.06154    164.17038    287.23757   -695.76865    2045.3399    1083.9231    20.073569    20.108844    20.519059           90           90           90 
   16500    224.27089   -163.74863   -135.60003   -163.74863            0    2223.9174    20.127548    20.236578     20.46573            0            0            0    8335.9518    4220.4952    195.58258    2255.6743   -493.98812    127.10071      207.434    20.127548    20.236578     20.46573           90           90           90 
   17000     232.9036   -164.76479   -135.53268   -164.76479            0    4292.6967    20.225617    20.137014    20.345179            0            0            0    8286.2567    7129.1948    3057.6411    2691.2542    1584.1702    2895.1822   -785.81474    20.225617    20.137014    20.345179           90           90           90 
   17500    224.45668    -164.1987   -136.02678    -164.1987            0    4540.2747    20.259086    20.112616    20.436748            0            0            0    8327.2231     1492.952    4973.4939    7154.3783   -1238.9978   -171.28407    976.07252    20.259086    20.112616    20.436748           90           90           90 
   18000    223.32219   -165.20141   -137.17189   -165.20141            0    330.71696    20.061138    20.259592     20.56014            0            0            0    8356.2676    1183.4675    41.483227   -232.79984     975.2809   -136.16018   -1073.5849    20.061138    20.259592     20.56014           90           90           90 
   18500    218.42704   -164.40995   -136.99482   -164.40995            0    5048.4313    19.933992    20.180585    20.515838            0            0            0    8253.1035    5706.3661    4020.3928    5418.5349   -19.061065    265.63305    2084.4048    19.933992    20.180585    20.515838           90           90           90 
   19000    220.45299   -164.34841     -136.679   -164.34841            0    3047.9562    20.305583     20.04286    20.571325            0            0            0    8372.1579    2090.2535    3829.0893    3224.5256    920.96915    1215.2356   -991.56422    20.305583     20.04286    20.571325           90           90           90 
   19500     231.7402   -164.89306   -135.80697   -164.89306            0    373.47549     20.30767    19.959928    20.406991            0            0            0    8271.7624   -5109.5283    4132.5335    2097.4213   -513.63566   -1474.0886    48.577013     20.30767    19.959928    20.406991           90           90           90 
   20000    218.66519   -165.02795   -137.58293   -165.02795            0    1113.4035    20.133957    20.232495    20.389007            0            0            0    8305.6696    3521.8069   -1899.5906    1717.9942    612.30011   -300.84453    3352.0316    20.133957    20.232495    20.389007           90           90           90 
   20500    224.65651   -165.43357   -137.23658   -165.43357            0    2028.3984    20.006526    20.173542    20.475917            0            0            0    8264.1312    2088.3113    1606.0218    2390.8622   -850.44578   -663.75688    85.980194    20.006526    20.173542    20.475917           90           90           90 
   21000    224.76415   -165.20244   -136.99193   -165.20244            0    1526.8649    20.170419    20.098257    20.611272            0            0            0    8355.6091    3765.2918    1503.0638   -687.76095    769.42703    1196.2779    796.02517    20.170419    20.098257    20.611272           90           90           90 
   21500    208.58586   -164.38872   -138.20877   -164.38872            0    1440.8874    20.193608    20.119596     20.53138            0            0            0    8341.6377   -257.72507    2623.6863     1956.701    886.76923   -59.620004    1888.1992    20.193608    20.119596     20.53138           90           90           90 
   22000    229.50691   -165.11218    -136.3064   -165.11218            0     3132.847    20.127119    20.100701     20.42202            0            0            0    8262.1204    1208.4191    3455.8048    4734.3173   -983.62238   -630.60393   -578.23149    20.127119    20.100701     20.42202           90           90           90 
   22500     221.9285   -163.87375   -136.01914   -163.87375            0    2109.9304    20.222893    20.178886    20.495882            0            0            0    8363.8662    2799.4753    3427.3774     102.9385    885.66682    2028.9381    -2488.705    20.222893    20.178886    20.495882           90           90           90 
   23000    213.09937   -164.41443   -137.66799   -164.41443            0    1953.9192    20.183124    20.038707    20.417593            0            0            0    8257.7669    1028.8604    4497.8269    335.07045     1254.092    1893.3587    2965.2659    20.183124    20.038707    20.417593           90           90           90 
   23500    227.40337   -164.73243   -136.19067   -164.73243            0    66.293509    20.223336    20.173046    20.524882            0            0            0      8373.46    835.19291   -1059.4549    423.14256    1698.1117   -692.76765   -689.82658    20.223336    20.173046    20.524882           90           90           90 
   24000    233.57492   -163.58933   -134.27297   -163.58933            0      1974.75    20.019939    20.224388    20.588559            0            0            0    8336.1222    5591.5124    143.23763    189.49989   -979.85976   -749.83955    306.33977    20.019939    20.224388    20.588559           90           90           90 
   24500    229.70318   -164.31756   -135.48714   -164.31756            0    1887.1386    19.972782     20.12883    20.463189            0            0            0    8226.7899    2146.4574    494.57049     3020.388    844.04812   -1370.7885    741.97844    19.972782     20.12883    20.463189           90           90           90 
   25000    218.69322   -162.82155   -135.37301   -162.82155            0    3131.1399     20.37709    20.214106    20.545313            0            0            0    8462.7098    3094.1306    2529.8761     3769.413    469.26432   -1165.6134     876.0408     20.37709    20.214106    20.545313           90           90           90 
   25500    240.27619   -164.85743   -134.69998   -164.85743            0    3248.0763    20.286022    20.075195    20.442713            0            0            0      8325.21     1967.001    3100.6849     4676.543    244.76085    420.22309     1866.895    20.286022    20.075195    20.442713           90           90           90 
   26000    229.06817    -163.3935   -134.64279    -163.3935            0    4112.5268    20.110181    20.120254    20.555155            0            0            0    8317.0666    4788.6302    4137.2771    3411.6731    25.894322    2825.1128   -2542.0025    20.110181    20.120254    20.555155           90           90           90 
   26500    224.96853   -165.12725   -136.89109   -165.12725            0     6200.606    20.015204    20.149219    20.602596            0            0            0    8308.8355    9746.6096    3745.0128    5110.1957   -575.17089   -994.85028    552.64049    20.015204    20.149219    20.602596           90           90           90 
   27000    228.73398   -163.26747    -134.5587   -163.26747            0    2926.3358    20.251933    20.227102    20.659433            0            0            0    8462.8871    3740.2336    1681.1697     3357.604    596.52225     701.7954    320.15283    20.251933    20.227102    20.659433           90           90           90 
   27500    227.02352   -164.03361   -135.53952   -164.03361            0    4706.0158    20.127096    20.027229    20.379579            0            0            0    8214.8037    4539.0821    4793.9369    4785.0284   -307.26497     2062.381   -809.12567    20.127096    20.027229    20.379579           90           90           90 
   28000    223.09352   -164.75047   -136.74964   -164.75047            0     2541.209     20.21163    20.203059    20.383284            0            0            0    8323.2441   -1276.9086    5042.0746    3858.4609     957.2405    -1583.304   -1663.8392     20.21163    20.203059    20.383284           90           90           90 
   28500    226.07258   -163.77319   -135.39846   -163.77319            0    2181.4162    20.187454    20.266552    20.498786            0            0            0    8386.6705   -739.45559    3720.3407    3563.3636   -91.049706   -1225.0821   -2731.9209    20.187454    20.266552    20.498786           90           90           90 
   29000    232.50808   -164.74506    -135.5626   -164.74506            0    1170.3621    20.109277    19.997365    20.646152            0            0            0    8302.4897    -89.03139    2070.0427     1530.075   -703.47955    1389.4865   -1916.8771    20.109277    19.997365    20.646152           90           90           90 
   29500     226.8718   -163.12259   -134.64755   -163.12259            0    1619.0749    20.196681    19.966218    20.768587            0            0            0    8374.9603    150.48835    4161.4361    545.30031   -265.07092   -626.72786   -257.75106    20.196681    19.966218    20.768587           90           90           90 
   30000    233.71148   -162.59953   -133.26603   -162.59953            0    3816.4578    20.113124    20.114959    20.502738            0            0            0    8294.8886    3403.9183    5918.2078    2127.2474   -531.81178   -645.94416    1048.3693    20.113124    20.114959    20.502738           90           90           90 
   30500    236.13284   -164.15897   -134.52156   -164.15897            0    319.34495    20.229874     20.47065    20.427505            0            0            0    8459.4111    2729.9129   -4469.0828    2697.2048    1779.0682    1189.1168   -125.28734    20.229874     20.47065    20.427505           90           90           90 
   31000    233.37234   -163.29926   -134.00833   -163.29926            0    3212.9342     20.07556    20.200714    20.306844            0            0            0    8235.2507     715.3009    2761.6721    6161.8295   -1395.4245     -2779.82    673.29401     20.07556    20.200714    20.306844           90           90           90 
   31500    229.39042   -164.15207   -135.36091   -164.15207            0    1288.6257    20.180037    20.084631    20.570136            0            0            0    8337.2529    2654.9748     3957.707   -2746.8048     260.8875   -269.04679   -2812.5183    20.180037    20.084631    20.570136           90           90           90 
   32000    219.33363   -163.61715   -136.08823   -163.61715            0    1406.5394    20.272247    20.032723    20.641244            0            0            0    8382.5808    290.44584    1106.8492    2822.3232   -1517.5515   -894.26021    282.68145    20.272247    20.032723    20.641244           90           90           90 
   32500    228.34969   -164.00278   -135.34224   -164.00278            0    3700.2664    20.222953    20.014677    20.566719            0            0            0    8324.5004    4217.8563    3489.8496    3393.0933  -0.13359741    3478.8686    773.45131    20.222953    20.014677    20.566719           90           90           90 
   33000    226.09928    -163.6727   -135.29462    -163.6727            0    3625.7019    20.131371     20.11408    20.524159            0            0            0    8310.7242    2560.0156    3228.8654    5088.2247    1222.1997    2735.5169   -1466.2856    20.131371     20.11408    20.524159           90           90           90 
   33500    219.89323   -163.82961   -136.23045   -163.82961            0    4047.5106    20.140476    20.235704    20.523991            0            0            0    8364.6899    2528.6439    3742.2909    5871.5969   -1044.4088    821.70953    1213.0352    20.140476    20.235704    20.523991           90           90           90 
   34000    216.14497   -164.92805   -137.79935   -164.92805            0    3863.4574     20.14622    20.147184    20.522144            0            0            0     8329.725    4356.8992    1932.3361     5301.137    175.11254    3195.0223   -369.95504     20.14622    20.147184    20.522144           90           90           90 
   34500    215.20913   -165.33762   -138.32638   -165.33762            0    6118.7531    20.102725    20.046178    20.507535            0            0            0    8264.1837    8401.8895    4858.3978     5095.972   -1354.5736   -4150.3889   -373.98772    20.102725    20.046178    20.507535           90           90           90 
   35000     215.8202   -165.98539   -138.89745   -165.98539            0    659.94792    20.162179    20.175549    20.540292            0            0            0    8355.4423    430.18698    1053.4707    496.18612   -316.79866    1385.4827   -198.23279    20.162179    20.175549    20.540292           90           90           90 
   35500    212.95036    -164.1081   -137.38036    -164.1081            0    3840.5493    20.208631    20.115707    20.453586            0            0            0    8314.6054    3640.1141    4589.8937    3291.6402    829.93864    993.27653    -763.8624    20.208631    20.115707    20.453586           90           90           90 
   36000    220.22456   -164.11508   -136.47434   -164.11508            0    3958.0079    20.277205    19.957096    20.425603            0            0            0     8265.713     848.4268    7652.8007    3372.7961    1327.3083   -320.52815    1244.9022    20.277205    19.957096    20.425603           90           90           90 
   36500    224.53925   -164.14758    -135.9653   -164.14758            0    2379.4131    20.285855    20.124829    20.507268            0            0            0    8372.0789   -1637.3357    4913.2641    3862.3109   -1556.7044    497.76006    1835.9051    20.285855    20.124829    20.507268           90           90           90 
   37000    224.62716    -163.9984   -135.80508    -163.9984            0    2164.1578    19.968525     20.34504    20.605179            0            0            0    8371.0692    5911.0088   -1623.4853      2204.95    491.71323     1743.283   -1396.8955    19.968525     20.34504    20.605179           90           90           90 
   37500    220.92616    -164.2085   -136.47971    -164.2085            0     1742.485    19.838778    20.270171    20.612186            0            0            0    8288.8901    3094.7649   -207.54752    2340.2378    988.24679   -1592.1292   -455.20795    19.838778    20.270171    20.612186           90           90           90 
   38000    227.45946   -163.37246   -134.82366   -163.37246            0    3389.0193    20.248059    20.081734    20.483982            0            0            0    8329.1179    4325.3509    2238.7354    3602.9717   -1811.9789   -218.32437    2374.5361    20.248059    20.081734    20.483982           90           90           90 
   38500    229.24287   -164.18381   -135.41117   -164.18381            0     2587.669     20.51067    20.033903    20.357361            0            0            0    8365.0185   -1065.1199    4124.3288    4703.7981    1235.8816    2122.7581    264.50261     20.51067    20.033903    20.357361           90           90           90 
   39000    220.06652   -164.23988   -136.61898   -164.23988            0    1308.3074    20.215198    20.137512    20.461789            0            0            0     8329.663    4592.8506   -2176.1656    1508.2372    1495.2966   -403.09781   -248.68578    20.215198    20.137512    20.461789           90           90           90 
   39500    220.46931   -163.34443   -135.67297   -163.34443            0    4519.4849    19.966009    20.146379    20.564517            0            0            0    8271.9287    8496.5246    2377.7821    2684.1481    566.22343    723.42522   -940.04496    19.966009    20.146379    20.564517           90           90           90 
   40000    227.73609   -165.00193   -136.41841   -165.00193            0     829.0253    20.108894    20.102062    20.562669            0            0            0    8312.0525    1797.2725   -1059.6987    1749.5021   -82.360117    2343.0496   -1167.6563    20.108894    20.102062    20.562669           90           90           90 
   40500    214.46382   -163.97093   -137.05323   -163.97093            0     274.1648    20.251942    20.165225      20.4643            0            0            0    8357.3126    1285.1756   -1514.7702     1052.089   -1160.9692    560.99224   -691.56035    20.251942    20.165225      20.4643           90           90           90 
   41000    221.50447   -164.54948    -136.7481   -164.54948            0   -759.89701    20.160363    20.219586    20.404159            0            0            0    8317.4332   -2971.2461    2377.2467   -1685.6916   -1328.5615   -466.89043    397.37197    20.160363    20.219586    20.404159           90           90           90 
   41500    225.49669   -163.99342   -135.69097   -163.99342            0    3673.2512    20.068466      20.1782    20.426527            0            0            0    8271.6307    6541.1953    2000.8313    2477.7271   -808.94579    -1637.606   -753.09479    20.068466      20.1782    20.426527           90           90           90 
   42000    222.32601   -164.17412   -136.26962   -164.17412            0    2615.4098    20.237302    20.058871    20.655027            0            0            0    8384.6486   -710.52674    6802.9123    1753.8438   -304.87396   -830.24258    2751.3882    20.237302    20.058871    20.655027           90           90           90 
   42500    238.23131   -164.77576   -134.87497   -164.77576            0   -465.80279    20.269147    19.984474    20.658503            0            0            0    8368.1031    3860.7011   -4424.3736   -833.73585   -1378.6389   -3145.4173   -633.24322    20.269147    19.984474    20.658503           90           90           90 
   43000    232.15895   -164.16369   -135.02505   -164.16369            0    2977.1932    20.094763      20.1712    20.413266            0            0            0     8274.221    2520.6896    2556.3585    3854.5316    1208.2665    536.59622    -903.8535    20.094763      20.1712    20.413266           90           90           90 
   43500    230.26214   -164.81038   -135.90981   -164.81038            0    3048.6068    20.081821    20.475349    20.412877            0            0            0    8393.4137    5435.0179    1419.7711    2291.0315   -1229.3168     1292.538   -539.31485    20.081821    20.475349    20.412877           90           90           90 
   44000    230.35413    -164.9811   -136.06898    -164.9811            0    1997.5691    20.117153    20.208026    20.467403            0            0            0    8320.5716    1560.2678    486.57892    3945.8606    226.52203    266.44886   -2485.1813    20.117153    20.208026    20.467403           90           90           90 
   44500    229.57589   -164.95684    -136.1424   -164.95684            0    3699.8681    20.221189    19.945279    20.563197            0            0            0    8293.4922    3098.4283      6504.09    1497.0861    514.65477    1554.5329    75.235832    20.221189    19.945279    20.563197           90           90           90 
   45000     212.5463   -164.45222   -137.77519   -164.45222            0    913.04712    20.204959    20.057487    20.579937            0            0            0    8340.2394   -1480.8883    3732.1323    487.89739   -2063.5751   -1548.8347    235.57594    20.204959    20.057487    20.579937           90           90           90 
   45500    219.01139   -164.74503   -137.25656   -164.74503            0    965.22214    20.160955    20.199028    20.516314            0            0            0    8354.8931    758.99422    2655.9117   -519.23951   -718.78886    336.12142   -1364.6149    20.160955    20.199028    20.516314           90           90           90 
   46000    224.14684   -164.79742   -136.66439   -164.79742            0    2959.7313    20.179022    20.098003    20.496653            0            0            0    8312.5825    1478.8134    4387.6113    3012.7692      -986.51    1335.5876   -1184.6657    20.179022    20.098003    20.496653           90           90           90 
   46500    225.82971   -164.43996   -136.09571   -164.43996            0   -1230.0217    20.213755    20.054974    20.604363            0            0            0    8352.7271   -2198.5661    78.419372   -1569.9183    1268.9257    196.17527    152.68086    20.213755    20.054974    20.604363           90           90           90 
   47000    224.37844   -164.15967   -135.99758   -164.15967            0   -152.80173    20.144253    20.179448    20.634633            0            0            0    8387.9767    1796.9493   -2222.6746   -32.679908   -426.06147   -128.27904   -532.00812    20.144253    20.179448    20.634633           90           90           90 
   47500    229.96359    -163.6499    -134.7868    -163.6499            0     2890.869    20.093024    20.266922    20.635704            0            0            0    8403.3487     1082.068    3499.4128    4091.1261    2122.1275   -427.24884    889.66357    20.093024    20.266922    20.635704           90           90           90 
   48000    232.97282   -164.24114   -135.00035   -164.24114            0    3887.6033    20.194472    20.045442     20.48603            0            0            0     8292.891    3145.9889    6974.6068     1542.214    879.82453    1229.8341    388.46454    20.194472    20.045442     20.48603           90           90           90 
   48500     228.6182   -164.32081   -135.62657   -164.32081            0    3296.0911    20.328425    19.941754    20.380524            0            0            0    8261.9473    4499.4151      3326.91    2061.9482     95.12468    942.96155   -696.76561    20.328425    19.941754    20.380524           90           90           90 
   49000    237.49887   -164.11062   -134.30176   -164.11062            0    2323.9959    20.248346    20.274333    20.528022            0            0            0    8427.1983    2841.8389    66.117592    4064.0311    334.81296    969.57324   -2859.9695    20.248346    20.274333    20.528022           90           90           90 
   49500     245.4187   -162.46234   -131.65944   -162.46234            0    1105.6926    19.982241    20.282978    20.665888            0            0            0    8375.8712    3959.9676     431.9612   -1074.8509   -1726.6928    1343.3757   -2494.7639    19.982241    20.282978    20.665888           90           90           90 
   50000    232.78141   -163.13413   -133.91736   -163.13413            0    4207.7225    20.073752    20.048079    20.738469            0            0            0    8345.9931    2548.3872    5595.4715    4479.3088    1006.5487    1447.9656     792.0474    20.073752    20.048079    20.738469           90           90           90 
   50500    224.33303   -163.95198   -135.79558   -163.95198            0     303.5966    20.327335    20.036297    20.670708            0            0            0    8418.8595    2017.8295    829.64039   -1936.6801   -108.39831    150.99158    3339.1958    20.327335    20.036297    20.670708           90           90           90 
   51000    225.66944    -163.0594   -134.73527    -163.0594            0    1423.0503    20.186565    20.103859    20.364981            0            0            0    8264.6767    2692.2177   -405.64139    1982.5745    1416.7938    109.49464   -731.48291    20.186565    20.103859    20.364981           90           90           90 
   51500    221.46045   -163.53388   -135.73803   -163.53388            0    1833.7276    20.110129    20.260776     20.37273            0            0            0    8300.8039      409.263    4160.2395    931.68027    -1191.575   -975.41933    155.28982    20.110129    20.260776     20.37273           90           90           90 
   52000    223.76893   -165.66092   -137.57532   -165.66092            0    1433.8396    20.118837    20.210632     20.51268            0            0            0    8340.7513     1207.525    203.36726    2890.6264   -584.32933   -990.34978   -2376.4449    20.118837    20.210632     20.51268           90           90           90 
   52500    227.94389   -163.58374   -134.97414   -163.58374            0    1140.9647    20.173237    20.022529    20.626673            0            0            0    8331.5097   -3009.3188    5204.4616    1227.7513    1333.2056   -1185.1848   -518.16775    20.173237    20.022529    20.626673           90           90           90 
   53000    223.60804   -164.66785   -136.60244   -164.66785            0    1419.0481    20.291719    20.019003    20.751639            0            0            0      8429.73    4081.6442    1987.7121   -1812.2119   -1620.8984   -332.93013    368.25793    20.291719    20.019003    20.751639           90           90           90 
   53500    223.65427   -163.90237   -135.83117   -163.90237            0    1730.3754    20.094375    20.104931    20.457648            0            0            0    8264.8087    2487.2606   -1033.3832    3737.2488    2394.4919    281.56006    1881.4292    20.094375    20.104931    20.457648           90           90           90 
   54000    234.30173   -164.09582   -134.68824   -164.09582            0   -994.26568    20.193729     20.28869    20.396032            0            0            0    8356.3421   -3922.7156    1166.4307   -226.51216   -407.43812    1756.4659    -40.00451    20.193729     20.28869    20.396032           90           90           90 
   54500    219.37897   -165.49581    -137.9612   -165.49581            0    1727.6694    20.276397    20.123638     20.49968            0            0            0    8364.5842    6762.8932   -2250.0433    670.15843     712.8956   -2461.7251     502.6947    20.276397    20.123638     20.49968           90           90           90 
   55000    219.30317   -163.87732   -136.35223   -163.87732            0    247.99428    20.198722    19.962319    20.665752            0            0            0    8332.7069   -2137.1939    5051.3468   -2170.1701    101.56917   -32.708167   -1798.3737    20.198722    19.962319    20.665752           90           90           90 
   55500    222.31285   -165.22204    -137.3192   -165.22204            0    848.77213    20.095138     20.13251    20.626236            0            0            0    8344.6644    4417.3584    -2664.675    793.63295   -791.88712    2535.2291   -1438.1702    20.095138     20.13251    20.626236           90           90           90 
   56000    231.22603   -163.55875    -134.5372   -163.55875            0    3358.1461    20.132508     20.27681    20.478203            0            0            0    8359.6742    1993.2844    3350.0287    4731.1254     1154.297    2897.8601    1470.0511    20.132508     20.27681    20.478203           90           90           90 
   56500     233.4408   -165.09212    -135.7926   -165.09212            0    3729.1441    20.192243    20.194976    20.393574            0            0            0    8316.1296    5270.3072    4508.5801    1408.5451     876.3496    -193.7402    562.70147    20.192243    20.194976    20.393574           90           90           90 
   57000     230.2193   -164.59897   -135.70378   -164.59897            0    2663.3547    20.226032    20.107497    20.569545            0            0            0    8365.5289    4530.6026   -677.51117    4136.9727   -839.91375   -1009.7379    485.05288    20.226032    20.107497    20.569545           90           90           90 
   57500    224.40954   -164.45159   -136.28559   -164.45159            0    1607.5233    20.176663    20.025102    20.683446            0            0            0    8356.9342    1714.6382    3006.9593    100.97249    1511.5344   -1842.6637    34.412116    20.176663    20.025102    20.683446           90           90           90 
   58000    221.02037   -164.05029   -136.30967   -164.05029            0    1651.0024    20.077628    20.183046    20.600024            0            0            0    8347.7001    4011.9318   -790.07225    1731.1477    -274.7782    1423.5784    1719.7023    20.077628    20.183046    20.600024           90           90           90 
   58500    230.62265   -164.95811   -136.01229   -164.95811            0    1744.0577    20.089393    20.420898    20.409795            0            0            0    8372.9848    5484.4518   -691.47028    439.19174   -192.96312   -680.43425    1075.6619    20.089393    20.420898    20.409795           90           90           90 
   59000    232.13512   -164.21134   -135.07569   -164.21134            0   -1199.2451    20.261877    20.210598    20.198705            0            0            0    8271.4637     -1273.76      -3347.4    1023.4248   -17.736025     1417.566    130.32239    20.261877    20.210598    20.198705           90           90           90 
   59500    232.43987   -164.32382   -135.14992   -164.32382            0     274.1725    20.461156    19.918666    20.379718            0            0            0    8305.9363   -1145.9487    2197.6695   -229.20327    -2259.347   -3020.9503    645.85802    20.461156    19.918666    20.379718           90           90           90 
   60000    216.60605   -163.87734   -136.69077   -163.87734            0   -1001.0567    20.271551    19.999022    20.685176            0            0            0    8386.0014   -3884.3863    3651.8432   -2770.6271   -29.779838    2602.3212    1572.2122    20.271551    19.999022    20.685176           90           90           90 
   60500    223.20286   -164.71025   -136.69571   -164.71025            0   -538.09689    19.960529    20.199899    20.747723            0            0            0    8365.4957    3313.1483   -5046.9804    119.54142   -1791.1364   -2552.2216     1479.053    19.960529    20.199899    20.747723           90           90           90 
   61000    224.84642   -163.86149   -135.64066   -163.86149            0    1467.6396    19.985003    20.300875    20.629353            0            0            0    8369.5979     2094.389    1783.1319    525.39803    1223.5064   -212.08333   -1336.7602    19.985003    20.300875    20.629353           90           90           90 
   61500    227.58859   -163.97235   -135.40734   -163.97235            0    4309.4849    20.178159    20.162758    20.361024            0            0            0    8283.8286     2787.805    3571.1873    6569.4624   -987.58246   -249.47926   -1766.8053    20.178159    20.162758    20.361024           90           90           90 
   62000    221.77947   -162.79569    -134.9598   -162.79569            0    1442.4544     20.38018    20.142515    20.371919            0            0            0    8362.8371     481.7838    2177.5407    1668.0387    1751.2776   -214.02863    1404.5339     20.38018    20.142515    20.371919           90           90           90 
   62500    231.29799     -165.251   -136.22042     -165.251            0     3178.154    20.162841    20.105276     20.48846            0            0            0    8305.6014    3314.7626     2238.125    3981.5743   -1057.8197   -1846.7034   -1495.5103    20.162841    20.105276     20.48846           90           90           90 
   63000    233.58717   -163.11807   -133.80017   -163.11807            0   -308.73365    20.089688    20.135133    20.647458            0            0            0    8352.0732    4517.2868   -2548.6639   -2894.8239   -547.03115     884.5068   -397.90714    20.089688    20.135133    20.647458           90           90           90 
   63500    226.12475   -164.41096   -136.02968   -164.41096            0    154.31191    20.190791    20.139738    20.588314            0            0            0     8371.975   -3040.0253    3172.0827    330.87831    -374.0364   -483.85946    1672.5191    20.190791    20.139738    20.588314           90           90           90 
   64000     233.5506   -164.48227   -135.16896   -164.48227            0    2822.6566    20.258728    20.187201    20.371847            0            0            0    8331.4134    2443.3552    4269.1444    1755.4704    134.33636    1435.2731   0.96227296    20.258728    20.187201    20.371847           90           90           90 
   64500    227.15034   -164.26574   -135.75573   -164.26574            0    1290.7751    20.279426     20.22425     20.30613            0            0            0    8328.2788    825.74995    3443.9215   -397.34627    631.69574   -2285.8549    2438.3853    20.279426     20.22425     20.30613           90           90           90 
   65000    217.73775   -165.01237   -137.68376   -165.01237            0    2698.7633    20.158468    20.154308    20.419754            0            0            0    8296.1372    920.84838    3584.7987    3590.6428     864.6402    1576.7314   -1766.9577    20.158468    20.154308    20.419754           90           90           90 
   65500    218.11464   -164.09024   -136.71433   -164.09024            0    1897.6259    20.088316    20.152627    20.647577            0            0            0    8358.8067    4442.3449   -62.321692    1312.8546   -1472.7388    -882.8069    18.466591    20.088316    20.152627    20.647577           90           90           90 
   66000    233.67512   -163.19935   -133.87041   -163.19935            0    1939.3739    20.175211     20.05226    20.638171            0            0            0    8349.3489    3182.4793    520.92193    2114.7204   -484.35774    3174.3381    2767.9516    20.175211     20.05226    20.638171           90           90           90 
   66500    229.16498   -163.54716    -134.7843   -163.54716            0    2592.4805    20.303518    20.061551    20.437538            0            0            0    8324.6187   -480.40228    3656.1031    4601.7407   -261.09074    861.53328     787.3097    20.303518    20.061551    20.437538           90           90           90 
   67000    209.57526   -162.82099   -136.51687   -162.82099            0     4036.881    20.281415    20.309957    20.396523            0            0            0    8401.6268    6239.2639    1688.1406    4183.2386    237.57168    1343.5634   -498.80345    20.281415    20.309957    20.396523           90           90           90 
   67500    221.38841   -164.41523   -136.62842   -164.41523            0   -230.79221    20.057841    20.253331    20.435081            0            0            0    8301.5087   -894.52921   -21.336746    223.48932     136.0701   -718.37466   -1357.2021    20.057841    20.253331    20.435081           90           90           90 
   68000    214.76154   -163.83179   -136.87672   -163.83179            0    2952.4555    20.010608    20.140035    20.628723            0            0            0    8313.6712    2898.5335    3246.0613    2712.7717    570.57951    1859.8574     1869.159    20.010608    20.140035    20.628723           90           90           90 
   68500    226.40398   -163.68354   -135.26722   -163.68354            0    1185.4172    20.222693    20.119709    20.735356            0            0            0    8436.6919    614.79796    4048.6678   -1107.2143   -1660.9638   -3718.8256    2551.6165    20.222693    20.119709    20.735356           90           90           90 
   69000    218.08726   -164.11987   -136.74739   -164.11987            0    2709.7939    20.252031    20.019683    20.424735            0            0            0    8280.9895    2084.2648    1937.8444    4107.2725   -670.29309   -224.35887   -733.04649    20.252031    20.019683    20.424735           90           90           90 
   69500    223.04387   -165.15631   -137.16172   -165.15631            0     3438.438    20.344017    20.200715    20.309952            0            0            0    8346.6524    3164.9469    4368.7046    2781.6626    891.20496   -1270.4817   -2155.9033    20.344017    20.200715    20.309952           90           90           90 
   70000    223.96003    -164.2941   -136.18452    -164.2941            0    2919.2524    20.237804     20.20851    20.389371            0            0            0    8338.7605    4238.6983   -335.06619    4854.1251   -944.95773    753.52081    602.05435    20.237804     20.20851    20.389371           90           90           90 
   70500    219.84347   -164.46272   -136.86982   -164.46272            0   -925.85879    20.149649    20.096237    20.621217            0            0            0    8350.1931    2.4597066   -831.61424   -1948.4218    977.78423   -984.62902    -528.7526    20.149649    20.096237    20.621217           90           90           90 
   71000    229.12691   -165.37594   -136.61786   -165.37594            0    2293.6182    20.127085    20.153801    20.748397            0            0            0    8416.3233    262.82847    5793.9707     824.0553   -541.88133   -1118.0989   -2445.9334    20.127085    20.153801    20.748397           90           90           90 
   71500    228.77627    -164.7647   -136.05063    -164.7647            0    3276.7514    19.982571    20.118098    20.535301            0            0            0    8255.4235    3278.6109    5771.4711     780.1722   -1666.0234    -583.1151    -438.7257    19.982571    20.118098    20.535301           90           90           90 
   72000    236.98367   -163.51753   -133.77333   -163.51753            0    777.54253    20.171215    20.262772     20.51997            0            0            0    8387.0194   -376.06722    247.66714    2461.0277    506.33577    728.19921    2445.3125    20.171215    20.262772     20.51997           90           90           90 
   72500     227.9383   -163.85368   -135.24478   -163.85368            0    1371.9436    20.340928    20.131161    20.533191            0            0            0    8408.0643    282.51526    2870.3989    962.91651   -264.84269     1050.943    1080.2118    20.340928    20.131161    20.533191           90           90           90 
   73000     215.4282   -163.80981   -136.77107   -163.80981            0    2171.0507    20.236198     19.92055    20.606522            0            0            0     8306.823    2363.3085    1521.2574    2628.5861    966.86276   -1114.2163    2069.3716    20.236198     19.92055    20.606522           90           90           90 
   73500    220.08152   -163.52044   -135.89766   -163.52044            0    1141.4652    20.104362    20.150097    20.787274            0            0            0    8421.0255   -1870.3353    4697.1572    597.57372    1146.8462    1364.2425    1489.4742    20.104362    20.150097    20.787274           90           90           90 
   74000     224.8795   -164.78492   -136.55994   -164.78492            0    2074.8498    20.044585    20.236608    20.541089            0            0            0    8332.1727    2136.1729    2561.9193    1526.4572     86.54803   -1516.2788   -941.88222    20.044585    20.236608    20.541089           90           90           90 
   74500     228.8921   -164.85214   -136.12353   -164.85214            0    2518.6664    20.249833    20.294437    20.278821            0            0            0    8333.7633   -515.99467    3341.1075    4730.8864    1342.1421   -462.97338   -430.32702    20.249833    20.294437    20.278821           90           90           90 
   75000    226.87512   -163.75645   -135.28099   -163.75645            0    1140.3614    20.343795    20.174543    20.284214            0            0            0    8325.1845   -597.58968    866.35023    3152.3237    301.15378   -479.11916    2223.2924    20.343795    20.174543    20.284214           90           90           90 
   75500    220.85006    -164.4361   -136.71686    -164.4361            0    188.41362    20.154185    20.013763    20.727606            0            0            0    8360.7095    66.157139   -2277.2893     2776.373    244.35413    1031.5572   -2213.4788    20.154185    20.013763    20.727606           90           90           90 
   76000    219.64755   -162.85523   -135.28691   -162.85523            0   -217.35553    19.963694    19.986747    21.073978            0            0            0    8408.7132   -753.07891    2275.2824   -2174.2701   -2774.9611    -1287.097    858.74306    19.963694    19.986747    21.073978           90           90           90 
   76500     214.8463   -165.68905   -138.72334   -165.68905            0   -2053.9421    20.108685    19.967984    20.763536            0            0            0    8337.1802   -1251.2297   -1273.0386   -3637.5579     -405.064   -1734.5875    142.90687    20.108685    19.967984    20.763536           90           90           90 
   77000    209.86867   -164.92597   -138.58501   -164.92597            0    4417.7418      20.2787      20.1177    20.435287            0            0            0    8336.7962    3550.6713    2859.4682    6843.0859   -19.845451   -444.10422    2697.2562      20.2787      20.1177    20.435287           90           90           90 
   77500    226.00789   -164.52529   -136.15868   -164.52529            0    515.42169     20.22925    20.187384    20.369977            0            0            0    8318.6027    -51.33842    3115.3233   -1517.7198   -110.99334   -1664.0234   -2658.6663     20.22925    20.187384    20.369977           90           90           90 
   78000    226.57115   -162.10433   -133.66702   -162.10433            0    1797.5382    20.097586    20.289767    20.554066            0            0            0    8381.4414    765.40659     3330.291    1296.9169   -768.85824    1426.3107    332.42124    20.097586    20.289767    20.554066           90           90           90 
   78500    219.88381    -164.5349   -136.93693    -164.5349            0    3954.0744    19.990673    20.234002     20.71488            0            0            0    8378.9889     3842.243    3675.0496    4344.9306     958.4123    1183.7558   -919.98538    19.990673    20.234002     20.71488           90           90           90 
   79000    221.04548   -164.81894   -137.07517   -164.81894            0    2031.7332    20.124198    20.087222    20.627886            0            0            0    8338.6004    4421.3848    1439.3204    234.49448   -842.18614    306.04659   -3104.2419    20.124198    20.087222    20.627886           90           90           90 
   79500    228.07681   -164.14062   -135.51434   -164.14062            0    4303.9325    20.399589    20.022531     20.48669            0            0            0    8367.8169     4529.369    3561.6841    4820.7443    1730.2489    223.56139    607.67596    20.399589    20.022531     20.48669           90           90           90 
   80000    224.06521   -162.62847   -134.50568   -162.62847            0    3201.1984    20.264028    20.097526    20.434957            0            0            0    8322.2761    201.54264    3098.8118    6303.2408   -128.92326    624.11002    1410.9244    20.264028    20.097526    20.434957           90           90           90 
   80500    228.97507   -164.44378   -135.70475   -164.44378            0    2706.9686    20.042877    20.241882    20.527746            0            0            0    8328.2206    4713.6398    1886.9438    1520.3221    325.89112   -1582.6005    1772.5614    20.042877    20.241882    20.527746           90           90           90 
   81000    225.94598    -164.5383   -136.17946    -164.5383            0    613.98145     20.05601    20.199644    20.649877            0            0            0     8365.766    1834.7992   -943.35523    950.50033   -2079.4968   -342.89482   -2908.0695     20.05601    20.199644    20.649877           90           90           90 
   81500     217.1802   -163.12077   -135.86214   -163.12077            0    2627.5927     20.22949    20.115533     20.69036            0            0            0    8419.4656    3594.1162    3207.9988    1080.6631   -638.42001    3210.5744    998.08998     20.22949    20.115533     20.69036           90           90           90 
   82000    226.12086   -164.93905   -136.55826   -164.93905            0    2652.5166      20.1591    19.980853    20.480164            0            0            0    8249.3284    4489.7521    1688.4838    1779.3141     971.0287    -2027.629   -2703.2613      20.1591    19.980853    20.480164           90           90           90 
   82500    229.18364   -162.90116   -134.13596   -162.90116            0    2549.2883    20.307024    20.263186    20.498348            0            0            0    8434.7627    1856.3212    1014.0802    4777.4635    461.34561    -853.3723    635.37072    20.307024    20.263186    20.498348           90           90           90 
   83000    219.47386   -162.24906   -134.70255   -162.24906            0    1374.0777     20.18906    20.214169    20.477029            0            0            0    8356.7792    905.90301    688.02183    2528.3084   -548.56848   -1811.5843   -1219.5808     20.18906    20.214169    20.477029           90           90           90 
   83500    228.10301   -164.09437   -135.46479   -164.09437            0    1310.6493    20.143326    20.096303     20.50936            0            0            0    8302.3199     5091.954    -1716.976    556.96996   -113.83395    1229.1005    706.53019    20.143326    20.096303     20.50936           90           90           90 
   84000    228.03562   -162.56526   -133.94414   -162.56526            0     2685.614    20.224893     20.13913     20.64307            0            0            0    8408.1645    634.49674    4874.0284     2548.317    111.04648    1724.6244   -3870.8788    20.224893     20.13913     20.64307           90           90           90 
   84500    229.17586   -163.90915   -135.14492   -163.90915            0    1446.3785    20.179929    20.149909    20.600766            0            0            0    8376.7604    2525.8779    3.8558728    1809.4016    1156.9284   -2073.8745   -36.415564    20.179929    20.149909    20.600766           90           90           90 
   85000    223.01376   -164.21946   -136.22864   -164.21946            0    3818.0509    20.165967    20.227048    20.479238            0            0            0    8353.4399    3655.2167    2760.4092    5038.5268   -1258.0939   -1954.8537   -1206.5384    20.165967    20.227048    20.479238           90           90           90 
   85500    230.84036   -163.35949   -134.38635   -163.35949            0    7176.8881    20.101592    20.142099    20.278873            0            0            0    8210.6776    10273.308    7230.2247    4027.1318   -32.239403    1073.2509   -669.66831    20.101592    20.142099    20.278873           90           90           90 
   86000    224.03717   -163.63056    -135.5113   -163.63056            0   -491.28691    20.364463    20.277852    20.472628            0            0            0    8454.1218   -809.83783   -1193.1337    529.11076   -1164.2932    1388.3057    580.10265    20.364463    20.277852    20.472628           90           90           90 
   86500    222.67338   -164.62728   -136.67919   -164.62728            0    4877.5403    20.182074    20.070095    20.652758            0            0            0    8365.5264    5719.0593    7333.2033    1580.3584     1495.211    1788.3431   -571.95277    20.182074    20.070095    20.652758           90           90           90 
   87000    220.70137   -164.91609   -137.21551   -164.91609            0    3000.4718    19.939374    19.933178    20.735477            0            0            0     8241.421    2164.6736    2850.4009    3986.3409   -580.54328    1621.2863   -308.56308    19.939374    19.933178    20.735477           90           90           90 
   87500    212.73162   -163.48701   -136.78673   -163.48701            0     1922.836    20.208033    20.200455    20.717601            0            0            0    8457.1624    2228.5394     2525.214    1014.7546    386.16177    1464.2325   -1383.1582    20.208033    20.200455    20.717601           90           90           90 
   88000    232.61246   -164.57604   -135.38047   -164.57604            0    2231.8773    20.296136    20.310004    20.464713            0            0            0    8435.8534    3086.4701   -1260.6894    4869.8512   -1276.9525    32.455302     732.8441    20.296136    20.310004    20.464713           90           90           90 
   88500    230.71815   -165.37174   -136.41393   -165.37174            0     4773.516    20.105043    20.128866    20.308056            0            0            0    8218.5019    5535.9466    5904.2883     2880.313    -1530.255    -1325.745    1531.3101    20.105043    20.128866    20.308056           90           90           90 
   89000    205.57627    -164.4153   -138.61309    -164.4153            0    181.96341    20.262038    20.273502    20.606046            0            0            0    8464.6027    10.132255   -2943.8037    3479.5616    227.71808   -189.38848   -1624.8034    20.262038    20.273502    20.606046           90           90           90 
   89500    216.06336   -165.33838   -138.21993   -165.33838            0    3616.7494    20.102084    20.045317    20.617619            0            0            0    8307.9239    2614.0963    5007.3174    3228.8346   -575.62228    2106.3455    113.96371    20.102084    20.045317    20.617619           90           90           90 
   90000    218.50582   -165.27106   -137.84605   -165.27106            0   -2099.9566    20.114061    20.057077    20.653016            0            0            0    8332.0314    714.11823   -4286.1355   -2727.8524   -78.702515   -93.902014    373.79212    20.114061    20.057077    20.653016           90           90           90 
   90500    227.55625   -164.49584   -135.93489   -164.49584            0    392.11052    20.140288    20.207441    20.540488            0            0            0    8359.6434    507.52918    166.23162    502.57076   -99.991845    707.12315    1365.3384    20.140288    20.207441    20.540488           90           90           90 
   91000    216.55779   -163.26124   -136.08072   -163.26124            0    1038.3635    20.162369    20.316121    20.425734            0            0            0    8366.8122     1216.702   -1658.7162    3557.1046   -1066.1268    3100.4146    618.90664    20.162369    20.316121    20.425734           90           90           90 
   91500    213.24792   -165.49416   -138.72907   -165.49416            0    305.81832     20.20731    20.145141    20.470384            0            0            0    8333.0661    1419.2641    -3177.933    2676.1239   -394.29451   -683.37925    221.01504     20.20731    20.145141    20.470384           90           90           90 
   92000     216.5263   -164.33667   -137.16011   -164.33667            0    2097.3057    20.175256    19.975287    20.553693            0            0            0    8283.2724    958.13523    3338.4413    1995.3406     1249.151    1324.9507    232.34069    20.175256    19.975287    20.553693           90           90           90 
   92500    208.60687   -163.05235   -136.86976   -163.05235            0   -36.219098     20.23881    20.178589    20.662062            0            0            0    8438.1926    2550.8866   -2193.6451   -465.89879    -782.7981   -2764.2965    1327.6255     20.23881    20.178589    20.662062           90           90           90 
   93000    213.60306   -163.02226   -136.21259   -163.02226            0    2744.1081    20.178464    20.271598    20.578518            0            0            0    8417.6369    3879.8607    2668.8684    1683.5951   -571.74503   -114.78516   -77.399369    20.178464    20.271598    20.578518           90           90           90 
   93500    221.25744   -164.42674   -136.65637   -164.42674            0    1233.5865    19.989213    20.258623    20.559643            0            0            0    8325.7082     1097.023    308.72897    2295.0076   -781.80387   -1741.8696    1594.5146    19.989213    20.258623    20.559643           90           90           90 
   94000     217.1512   -164.49071   -137.23571   -164.49071            0    3119.1904    20.020435     20.19271    20.412268            0            0            0     8252.003    3921.5886    3732.1591    1703.8235    611.62649   -250.43495   -2639.2383    20.020435     20.19271    20.412268           90           90           90 
   94500    221.30206   -164.45195   -136.67598   -164.45195            0    990.46304    20.489604    20.242849    20.472098            0            0            0    8491.1698   -1355.6426    1843.3908     2483.641    20.141451   -3358.1667    863.27922    20.489604    20.242849    20.472098           90           90           90 
   95000    217.03673    -165.1581   -137.91747    -165.1581            0    4677.4244    20.308177    20.042294    20.482742            0            0            0    8336.9362    5634.9147     6179.749    2217.6094   -279.48893    131.55452    2207.9794    20.308177    20.042294    20.482742           90           90           90 
   95500    225.81274   -164.06668   -135.72456   -164.06668            0    2436.2613    20.090746    20.083987    20.608089            0            0            0    8315.4111     2524.244    2691.2358    2093.3041   -59.044098     122.4524    1811.7385    20.090746    20.083987    20.608089           90           90           90 
   96000     225.0357   -163.30114   -135.05655   -163.30114            0    4148.1325     20.13792    20.200053    20.576695            0            0            0    8370.3329    6497.5175    2571.2122    3375.6679   -1642.2503   -3000.0534   -1717.0586     20.13792    20.200053    20.576695           90           90           90 
   96500    220.39136   -162.98996   -135.32829   -162.98996            0    1529.8793    20.267379     20.28862     20.55269            0            0            0    8451.2075   -1510.2594    3151.1079    2948.7893   -446.94791    1527.6704   -1182.0792    20.267379     20.28862     20.55269           90           90           90 
   97000    224.48223   -164.01053   -135.83541   -164.01053            0    3323.2509    20.096348    20.157933    20.380579            0            0            0    8256.1894     4317.735    2704.0766    2947.9411    98.657583   -786.78017   -1155.6074    20.096348    20.157933    20.380579           90           90           90 
   97500    220.95903   -163.82323   -136.09031   -163.82323            0     4386.151    20.122874     20.19294    20.474338            0            0            0    8319.5419    5667.8519    4750.7629     2739.838    -89.42748    1764.1594   -916.18519    20.122874     20.19294    20.474338           90           90           90 
   98000    224.53757    -165.2826   -137.10053    -165.2826            0    1429.6462    20.302052    20.213574    20.620381            0            0            0    8462.1306    2492.2114   -982.06673    2778.7941    1546.8172    1976.4029    162.16264    20.302052    20.213574    20.620381           90           90           90 
   98500    225.29036   -164.32874   -136.05219   -164.32874            0    3464.8535     20.17907    19.956744    20.480792            0            0            0    8247.7896    5535.9999    1753.7892    3104.7713   -388.45314    2032.1621   -1202.6732     20.17907    19.956744    20.480792           90           90           90 
   99000    223.51726   -164.47152   -136.41751   -164.47152            0    1918.8466    20.216971    20.046633    20.543171            0            0            0    8325.7813    -616.9244    3071.0392     3302.425     665.7167   -803.99186   -553.18028    20.216971    20.046633    20.543171           90           90           90 
   99500    238.61893   -164.62443   -134.67499   -164.62443            0   -178.36009    20.216735    20.245187    20.618349            0            0            0    8438.9166    1972.9553   -2355.8934   -152.14217    1164.6792    3279.8924   -779.01401    20.216735    20.245187    20.618349           90           90           90 
  100000     224.0225   -163.74531   -135.62789   -163.74531            0    -1009.661      20.1148    20.309918     20.64703            0            0            0    8434.9297    3244.3375   -4813.7413   -1459.5791    216.23619    503.23299    884.47689      20.1148    20.309918     20.64703           90           90           90 
  100500    229.58717   -164.04857   -135.23271   -164.04857            0    2578.7049    19.973946    20.109528     20.48216            0            0            0    8226.9999    1096.5412    2590.9088    4048.6648   -341.83048    458.94825    1412.9568    19.973946    20.109528     20.48216           90           90           90 
  101000     219.1166   -164.68697   -137.18529   -164.68697            0   -273.27973    20.278291    20.245653    20.515631            0            0            0    8422.6353   -1376.6518    545.19824     11.61434   -337.62004    1245.5248   -1743.5586    20.278291    20.245653    20.515631           90           90           90 
  101500    225.16293   -164.68864   -136.42808   -164.68864            0    3535.4453    20.310774    20.159647    20.447318            0            0            0     8372.319    2539.9221    4123.9104    3942.5035    1912.0713   -304.80571    251.28032    20.310774    20.159647    20.447318           90           90           90 
  102000    225.55093   -164.66256   -136.35331   -164.66256            0    3594.5883    20.226608    19.970577    20.549928            0            0            0    8300.8773     5160.666    2850.5677    2772.5313   -1305.0666   -1044.0609    1267.4374    20.226608    19.970577    20.549928           90           90           90 
  102500    223.34297    -164.5756   -136.54347    -164.5756            0    3615.4204    20.189493     19.90435      20.6461            0            0            0    8296.8153    3455.2616    4319.0094    3071.9902    772.19705    -10.55476    1092.1282    20.189493     19.90435      20.6461           90           90           90 
  103000    222.87333   -163.69081   -135.71762   -163.69081            0    1447.4485    20.239787    20.231399    20.723126            0            0            0    8485.6892    1109.0374    1154.6012     2078.707   -912.68916   -1881.8306    381.85634    20.239787    20.231399    20.723126           90           90           90 
  103500    218.89389   -164.31859   -136.84487   -164.31859            0    1940.6737    20.021795    20.290493    20.549327            0            0            0    8348.2067   -1758.2924    3440.7236    4139.5897    478.58552    2400.3038   -231.63178    20.021795    20.290493    20.549327           90           90           90 
  104000    228.64704   -164.30874   -135.61088   -164.30874            0    5368.2004    19.950675    20.196761    20.453261            0            0            0    8241.4169    3271.3094    6560.3328     6272.959    749.85078   -501.64549   -605.19619    19.950675    20.196761    20.453261           90           90           90 
  104500    223.30812   -164.92009   -136.89233   -164.92009            0    188.34134    20.330078     20.28172    20.568169            0            0            0    8480.8515    542.05401   -136.62542    159.59545    1212.6458    251.38045    357.75735    20.330078     20.28172    20.568169           90           90           90 
  105000    231.62492   -163.60757   -134.53595   -163.60757            0    2401.0828    20.318188    20.021624    20.469845            0            0            0    8327.1968    3155.0072    1289.0572    2759.1839    521.06019      955.954      2160.39    20.318188    20.021624    20.469845           90           90           90 
  105500    230.52492   -163.40796    -134.4744   -163.40796            0    5847.3762    20.254548    19.994161    20.492483            0            0            0     8298.896    4292.0514    7628.4028    5621.6745   -676.30126   -1329.3147    -1859.159    20.254548    19.994161    20.492483           90           90           90 
  106000    220.34781   -163.66591    -136.0097   -163.66591            0    2762.8776    20.272414    20.158392    20.623242            0            0            0     8427.879    3231.1917    2722.5669    2334.8742    2279.5703     577.0713   -2069.4931    20.272414    20.158392    20.623242           90           90           90 
  106500    221.27423   -163.70748     -135.935   -163.70748            0    462.99137    20.090864    20.267654    20.621666            0            0            0    8397.0329    1365.5624    386.57676   -363.16502    299.81009   -535.93991   -1301.8642    20.090864    20.267654    20.621666           90           90           90 
  107000    220.93519   -163.89371   -136.16378   -163.89371            0    1904.9879     20.00053    20.253897    20.559439            0            0            0    8328.3959    3899.6084    70.514468    1744.8408    1383.4348    339.81735    476.47664     20.00053    20.253897    20.559439           90           90           90 
  107500    226.61667   -164.58556   -136.14254   -164.58556            0    5872.6821    20.237069    20.202337    20.511842            0            0            0    8385.9811    1794.4774    9317.1791    6506.3899   -447.69561    -592.7512   -2207.3768    20.237069    20.202337    20.511842           90           90           90 
  108000    238.61208   -165.01293   -135.06435   -165.01293            0    1337.8898    20.412649    20.153443    20.607969            0            0            0    8477.8124    465.81195     2841.511     706.3464   -218.84943    1232.0206   -1004.4124    20.412649    20.153443    20.607969           90           90           90 
  108500    237.72106   -164.18888   -134.35213   -164.18888            0    2167.9407    20.148129    19.945434    20.578113            0            0            0    8269.5859    4617.3035    3172.9301   -1286.4115     918.6587   -1525.5033   -720.61244    20.148129    19.945434    20.578113           90           90           90 
  109000    218.18079   -163.62206   -136.23784   -163.62206            0    2415.3848    20.201201    20.176393      20.6685            0            0            0    8424.2198    2589.4996    3828.1744    828.48048   -14.038677    1414.8619    868.94997    20.201201    20.176393      20.6685           90           90           90 
  109500    226.14849   -164.14297   -135.75871   -164.14297            0    2336.6471    20.132344    20.279605    20.525524            0            0            0    8380.0785    5411.0893   -2076.8615    3675.7135   -926.56405    -463.5944    260.53569    20.132344    20.279605    20.525524           90           90           90 
  110000    226.87095   -164.37366   -135.89872   -164.37366            0     5427.654    20.164444    20.221349    20.514311            0            0            0    8364.7564    5051.9062    7172.8323    4058.2234    -618.1157      -2269.5   -396.62768    20.164444    20.221349    20.514311           90           90           90 
  110500    214.89095   -164.13709   -137.16578   -164.13709            0    1926.5041    20.217883    20.057123    20.465259            0            0            0    8298.9201    777.87971    2129.0441    2872.5884     462.3991    -2570.731    2070.0552    20.217883    20.057123    20.465259           90           90           90 
  111000    226.57783   -164.26078   -135.82263   -164.26078            0    3074.3855    20.230506    20.156417    20.475389            0            0            0     8349.342    4095.8308    1880.8137    3246.5121   -1908.2237    1278.2594   -2814.4994    20.230506    20.156417    20.475389           90           90           90 
  111500    216.80025   -163.11458   -135.90363   -163.11458            0     3865.268    20.171337    20.219165    20.615387            0            0            0     8407.936    5913.3217    3123.9563     2558.526    998.70235     1540.221    -1002.344    20.171337    20.219165    20.615387           90           90           90 
  112000    229.03205    -164.3716   -135.62543    -164.3716            0    1499.2373     20.02059    20.138727    20.665221            0            0            0     8331.994    3883.3451   -105.57524    719.94199    347.40092   -1089.9089   -2455.9555     20.02059    20.138727    20.665221           90           90           90 
[...]
  373000    215.39576   -166.05542   -139.02075   -166.05542            0    3382.8399    20.036423    20.272274    20.361577            0            0            0    8270.5438    1384.6534    3270.0104    5493.8559    731.51289    471.09611    55.178623    20.036423    20.272274    20.361577           90           90           90 
  373500    213.99148   -164.08481    -137.2264   -164.08481            0    2307.8619    20.193622    20.240655    20.618634            0            0            0    8427.4981    4306.6427    2001.3483    615.59482    712.09729    2213.9186    148.12073    20.193622    20.240655    20.618634           90           90           90 
  374000    227.46609   -163.34094   -134.79131   -163.34094            0    4763.6151    20.197881    19.967293    20.712024            0            0            0    8353.0972    2572.5087    5305.5781    6412.7584     1366.887    38.934891    1046.9213    20.197881    19.967293    20.712024           90           90           90 
  374500    237.87818   -163.39824   -133.54176   -163.39824            0    960.78921    20.243639    20.052261    20.739716            0            0            0    8418.8883     5115.091    871.99346   -3104.7168   -58.143811      1168.78   -2638.9397    20.243639    20.052261    20.739716           90           90           90 
  375000    236.66528   -163.53266   -133.82842   -163.53266            0     2336.715    20.131028    20.235535    20.447941            0            0            0    8329.7166    3824.2188    -1368.288    4554.2143   -1212.2219    -2008.848    1158.3151    20.131028    20.235535    20.447941           90           90           90 
  375500    229.10992   -164.67565    -135.9197   -164.67565            0    2352.7347    20.250028    20.332091    20.430356            0            0            0    8411.6966    3280.0961    1909.6247    1868.4834   -920.28119    2210.2227    134.32799    20.250028    20.332091    20.430356           90           90           90 
  376000    227.99369   -163.67344   -135.05759   -163.67344            0    2278.0219    20.248498    19.959613    20.461077            0            0            0    8269.3889     6457.217   -1314.9518    1691.8006    492.66497   -2196.8479   -4802.1581    20.248498    19.959613    20.461077           90           90           90 
  376500    233.49192   -164.14745   -134.84151   -164.14745            0    1058.7399     20.23163    19.983585    20.757639            0            0            0    8392.3236    1479.5837    3273.8362   -1577.2002   -330.04607   -288.90074    1048.6778     20.23163    19.983585    20.757639           90           90           90 
  377000    217.50382   -164.63408   -137.33483   -164.63408            0    4394.0553    20.001797    20.255139    20.815006            0            0            0    8432.9744    6659.1481    3329.1635    3193.8544   -342.76629      701.701    593.83508    20.001797    20.255139    20.815006           90           90           90 
  377500    217.55171    -164.1122   -136.80694    -164.1122            0    2903.3893     20.01365    20.193846    20.616433            0            0            0    8332.1846    2376.8332    5308.5909    1024.7439   -1280.2186    3506.0729   -84.721735     20.01365    20.193846    20.616433           90           90           90 
  378000    226.20558   -164.27677   -135.88535   -164.27677            0    377.86635     20.30875    20.094313    20.482443            0            0            0    8358.6879     957.8746    737.50034    -561.7759    615.28825   -2290.0937   -576.01949     20.30875    20.094313    20.482443           90           90           90 
  378500    226.60961   -165.39455   -136.95241   -165.39455            0    3238.9233    20.259278     20.07317    20.460564            0            0            0    8320.6554    3530.3208    3894.7699    2291.6792     525.9769   -149.05534   -2361.7607    20.259278     20.07317    20.460564           90           90           90 
  379000    225.76534   -164.01777    -135.6816   -164.01777            0   -784.66495    20.182901    20.186108    20.584275            0            0            0    8386.3266   -1049.1697     472.9055   -1777.7306    858.80249    236.33741     -1194.26    20.182901    20.186108    20.584275           90           90           90 
  379500    221.41084   -164.44555   -136.65592   -164.44555            0    841.34572    20.114675    20.154096    20.510772            0            0            0    8314.9252   -1887.5068    3153.5915    1257.9525     794.9827     226.6792    2035.9922    20.114675    20.154096    20.510772           90           90           90 
  380000    218.01842   -164.49121   -137.12737   -164.49121            0    1707.6566    20.226778    20.253813    20.529497            0            0            0    8410.3064    1111.2795    2118.9234    1892.7668    1031.0109    1224.2585    2961.1974    20.226778    20.253813    20.529497           90           90           90 
  380500    213.71605   -164.44199   -137.61815   -164.44199            0    5797.2596    20.127841    20.119155    20.440534            0            0            0    8277.4996    8572.8521    5610.9764    3207.9504    783.88964   -2104.2243   -2961.4103    20.127841    20.119155    20.440534           90           90           90 
  381000    221.97481   -164.87473   -137.01432   -164.87473            0    3433.5865    20.212906    20.196336     20.55274            0            0            0    8390.1763    3238.2681    4006.2314    3056.2598   -942.09268    1144.7325    2586.8798    20.212906    20.196336     20.55274           90           90           90 
  381500    236.29127   -163.39854   -133.74124   -163.39854            0    2096.9355    20.180727    20.174537    20.617813            0            0            0    8394.2708   -357.17839    4275.2978    2372.6872    435.75685   -823.36523    1632.7355    20.180727    20.174537    20.617813           90           90           90 
  382000    226.05542   -163.96664   -135.59407   -163.96664            0    778.75654    20.172952    20.134685    20.589239            0            0            0    8362.8556    -438.0853   -507.05809     3281.413   -1059.0914    2196.3394    2714.6489    20.172952    20.134685    20.589239           90           90           90 
  382500    235.17006   -163.54515   -134.02858   -163.54515            0    2268.7615    20.187273    20.158751    20.454021            0            0            0    8323.7678    2030.1023    3702.6062     1073.576   -48.479301    3126.1437   -129.36241    20.187273    20.158751    20.454021           90           90           90 
  383000    224.72731   -163.24446   -135.03858   -163.24446            0     1556.304    20.211886    20.215597    20.390318            0            0            0    8331.3888    780.81487    993.90151    2894.1955   -146.37446   -418.63263    769.24894    20.211886    20.215597    20.390318           90           90           90 
  383500    235.68806   -163.03119   -133.44961   -163.03119            0    3335.0085    20.315324    20.241374    20.670741            0            0            0     8500.017    3443.4726    5083.7615    1477.7914    1453.9445   -496.18253   -414.97401    20.315324    20.241374    20.670741           90           90           90 
  384000    228.37796   -164.86853   -136.20445   -164.86853            0    2744.7562    20.101854    19.967304    20.646581            0            0            0     8287.121     927.5213    4431.6763     2875.071    527.44511    937.69029   -1282.7387    20.101854    19.967304    20.646581           90           90           90 
  384500    218.61494   -164.18015   -136.74144   -164.18015            0   -1128.8102    20.084464    20.117689    20.584849            0            0            0    8317.3701    1784.1238   -2173.4077   -2997.1468    63.781117   -3298.8447    93.903658    20.084464    20.117689    20.584849           90           90           90 
  385000     205.6024   -163.27478   -137.46929   -163.27478            0    1569.2976    20.199596    20.355971    20.376917            0            0            0    8378.6293    1334.5084    538.39831    2834.9862   -1685.3918    1067.5922    2010.3672    20.199596    20.355971    20.376917           90           90           90 
  385500    219.96299   -165.01821    -137.4103   -165.01821            0   -1302.2325    20.211779    20.262883    20.255117            0            0            0    8295.4612   -3193.3346   -1603.7563    890.39352    31.826071     -3429.72    457.78422    20.211779    20.262883    20.255117           90           90           90 
  386000    218.86116    -163.6837   -136.21408    -163.6837            0    1798.3301    20.212862    20.084747     20.50987            0            0            0    8326.3964      5931.36   -249.06871   -287.30101   -31.774513   -364.50042    2824.9299    20.212862    20.084747     20.50987           90           90           90 
  386500    221.85517   -163.25233   -135.40693   -163.25233            0    2383.2235    20.145907    20.088314    20.802869            0            0            0     8418.865    686.84597    3202.7405    3260.0841   -481.18317   -626.08815    487.41539    20.145907    20.088314    20.802869           90           90           90 
  387000    229.67689   -164.75045   -135.92333   -164.75045            0    147.93764    20.089336    20.085944    20.730956            0            0            0     8365.216    1863.2347   -3903.3017    2483.8799   -523.75388   -84.329096    133.87906    20.089336    20.085944    20.730956           90           90           90 
  387500    227.97824   -164.26338   -135.64946   -164.26338            0    4905.4694    20.174343    20.073581     20.44224            0            0            0    8278.5208    2193.3461    7807.6312    4715.4308    1124.6678    -1453.415    701.22986    20.174343    20.073581     20.44224           90           90           90 
  388000     217.7031   -165.41469   -138.09043   -165.41469            0   -1207.8155    20.327551    20.282201    20.404722            0            0            0    8412.6117   -1897.1274   -574.58238   -1151.7369   -1462.4109    108.95973     462.7461    20.327551    20.282201    20.404722           90           90           90 
  388500    215.88115   -164.97947   -137.88388   -164.97947            0    2870.9344    20.146122    20.173711    20.393111            0            0            0    8288.2096    22.469189    5769.8715    2820.4625   -929.69674   -285.57032    783.92814    20.146122    20.173711    20.393111           90           90           90 
  389000    215.41735   -164.69098    -137.6536   -164.69098            0    2658.4248    20.102097    20.112449    20.569906            0            0            0    8316.4621    6754.1797    1567.6949   -346.60026   -783.44733    2122.2643    363.52418    20.102097    20.112449    20.569906           90           90           90 
  389500     220.4901   -165.03369   -137.35963   -165.03369            0    893.57115    20.149588    20.165761    20.639161            0            0            0    8386.3466    970.17285   -434.94633    2145.4869   -464.89529     575.9672   -348.11555    20.149588    20.165761    20.639161           90           90           90 
  390000    216.70097   -165.45734   -138.25886   -165.45734            0    2893.5759    20.186407    20.152258    20.483196            0            0            0    8332.5986    2896.8808    2416.2073    3367.6398   -232.67536   -1193.6975   -96.558117    20.186407    20.152258    20.483196           90           90           90 
  390500    224.28799   -164.13336   -135.98261   -164.13336            0    2088.6386    20.236219    20.166833    20.362604            0            0            0    8309.9879    1667.0591    1268.0359    3330.8208    429.26509    1323.9214    -2659.585    20.236219    20.166833    20.362604           90           90           90 
  391000    232.64819   -163.89362   -134.69358   -163.89362            0      3085.89    20.158379    20.128758    20.457782            0            0            0    8301.0141    4091.2426    2022.2624     3144.165    760.69083     520.7254    931.34526    20.158379    20.128758    20.457782           90           90           90 
  391500    237.67355   -163.02118   -133.19039   -163.02118            0    2024.1747    20.164854    20.187641    20.806905            0            0            0    8470.0922    3346.0621     1349.114    1377.3479    3.0024579   -187.99592   -3302.7282    20.164854    20.187641    20.806905           90           90           90 
  392000    219.44376   -165.47393   -137.93119   -165.47393            0    2281.1041    20.067674    20.090454    20.788074            0            0            0    8381.1002    2545.7145    4235.7062    61.891513    449.71252   -723.93563     531.7662    20.067674    20.090454    20.788074           90           90           90 
  392500    224.74168    -165.8117   -137.60401    -165.8117            0    4642.5173    20.031601    20.098882    20.456258            0            0            0    8235.9509    2040.0592    7298.6957     4588.797   -379.12695   -1981.7474   -717.83393    20.031601    20.098882    20.456258           90           90           90 
  393000    226.59939   -163.94526   -135.50441   -163.94526            0   -168.24563    20.332973    20.314144    20.392214            0            0            0    8422.9417   -2674.4406    874.82985    1294.8739    923.10799    1308.5314    1319.3558    20.332973    20.314144    20.392214           90           90           90 
  393500    231.51455   -162.15821   -133.10045   -162.15821            0    1880.1511     20.29633    20.196466    20.393879            0            0            0    8359.7393    5538.4473   -614.57474    716.58084   -1701.1115    3071.9979      598.747     20.29633    20.196466    20.393879           90           90           90 
  394000    230.46644   -165.28822     -136.362   -165.28822            0    2821.5054    20.153593    20.084838    20.556614            0            0            0    8320.9399   -332.45942    4722.2107    4074.7649    1203.8485   -2556.8247    1509.7486    20.153593    20.084838    20.556614           90           90           90 
  394500    219.62421    -164.5906   -137.02521    -164.5906            0    2275.3401    20.020819    20.145251    20.671394            0            0            0    8337.2782     1367.215    5265.8661    192.93924    645.61937   -381.24045    379.57921    20.020819    20.145251    20.671394           90           90           90 
  395000    220.52442   -163.60377    -135.9254   -163.60377            0   -1928.9107    20.148488    20.326149    20.693171            0            0            0    8474.7053    1316.2419   -4998.7162   -2104.2579     563.5671    329.03722    1868.5499    20.148488    20.326149    20.693171           90           90           90 
  395500    217.52355   -164.61873   -137.31701   -164.61873            0    532.43028     20.24898    20.132736    20.504213            0            0            0    8358.8988   -709.64071    3443.2788   -1136.3473   -93.569594   -2580.0189   -3641.5403     20.24898    20.132736    20.504213           90           90           90 
  396000    217.16652   -164.46987   -137.21295   -164.46987            0   -536.90042    20.293538    20.016876    20.402076            0            0            0    8287.5936    2146.7496   -2080.0058    -1677.445   -488.12491   -1656.8156   -90.429658    20.293538    20.016876    20.402076           90           90           90 
  396500    217.19999   -165.45647   -138.19535   -165.45647            0   -2547.6378    20.281781    20.166352    20.484247            0            0            0    8378.2521   -2208.7455   -4078.5243   -1355.6436     1642.749    695.42395    427.81305    20.281781    20.166352    20.484247           90           90           90 
  397000     220.3585    -163.8278   -136.17025    -163.8278            0    459.23991    20.139425    20.228143    20.609798            0            0            0    8396.0849    3541.4729   -1254.3212   -909.43201   -504.31275    987.82239    3798.6957    20.139425    20.228143    20.609798           90           90           90 
  397500    226.75833   -164.39211   -135.93131   -164.39211            0      1574.55    20.050293    20.176458    20.610498            0            0            0    8337.8513    2420.9849    143.05901    2159.6061     428.2897   -1014.9998    3121.1017    20.050293    20.176458    20.610498           90           90           90 
  398000    220.55897   -163.69263   -136.00992   -163.69263            0    2865.7847    20.150739    20.092946    20.529225            0            0            0    8312.0307   -2548.4556    9256.7517    1889.0579   -2072.1372   -642.49773   -1324.0884    20.150739    20.092946    20.529225           90           90           90 
  398500    229.78773   -164.24126   -135.40024   -164.24126            0    820.39614    20.345534    20.209737    20.461911            0            0            0    8413.4852   -515.27039     1999.895    976.56382    1122.9011    91.372359   -611.37983    20.345534    20.209737    20.461911           90           90           90 
  399000    214.52605   -165.65509   -138.72958   -165.65509            0    4453.5766    20.223984    20.163649     20.39699            0            0            0    8317.6744    5916.9088     2752.053    4691.7679    597.93235   -740.20395   -1540.7026    20.223984    20.163649     20.39699           90           90           90 
  399500    216.05948   -164.09214   -136.97417   -164.09214            0    1411.4393    20.151155    20.131065    20.597608            0            0            0    8355.7122   -2001.4749    3929.2881    2306.5047    1418.2704   -627.41483    1141.3184    20.151155    20.131065    20.597608           90           90           90 
  400000    219.66549   -165.13191   -137.56135   -165.13191            0    1883.7288    20.241927    20.048523    20.666418            0            0            0    8386.8611   -1818.7589    3947.5493    3522.3959     31.10198      581.431   -16.848467    20.241927    20.048523    20.666418           90           90           90 
Loop time of 2413.98 on 1 procs for 400000 steps with 972 atoms

Performance: 7.158 ns/day, 3.353 hours/ns, 165.701 timesteps/s
70.2% CPU use with 1 MPI tasks x 1 OpenMP threads

MPI task timing breakdown:
Section |  min time  |  avg time  |  max time  |%varavg| %total
---------------------------------------------------------------
Pair    | 2146.8     | 2146.8     | 2146.8     |   0.0 | 88.93
Bond    | 0.055699   | 0.055699   | 0.055699   |   0.0 |  0.00
Neigh   | 238.06     | 238.06     | 238.06     |   0.0 |  9.86
Comm    | 9.5349     | 9.5349     | 9.5349     |   0.0 |  0.39
Output  | 2.599      | 2.599      | 2.599      |   0.0 |  0.11
Modify  | 15.583     | 15.583     | 15.583     |   0.0 |  0.65
Other   |            | 1.377      |            |       |  0.06

Nlocal:        972.000 ave         972 max         972 min
Histogram: 1 0 0 0 0 0 0 0 0 0
Nghost:        4587.00 ave        4587 max        4587 min
Histogram: 1 0 0 0 0 0 0 0 0 0
Neighs:         0.00000 ave           0 max           0 min
Histogram: 1 0 0 0 0 0 0 0 0 0
FullNghs:      242270.0 ave      242270 max      242270 min
Histogram: 1 0 0 0 0 0 0 0 0 0

Total # of neighbors = 242270
Ave neighs/atom = 249.24897
Ave special neighs/atom = 0.0000000
Neighbor list builds = 40000
Dangerous builds not checked

unfix		3
unfix		2

write_data	data.final.${pid}
write_data	data.final.0
System init for write_data ...

write_restart   restart.lmp.${pid}
write_restart   restart.lmp.0
System init for write_restart ...
Total wall time: 0:40:19
