LAMMPS data file via write_data, version 29 Sep 2021, timestep = 1000000

864 atoms
2 atom types

0.6069555712347849 17.600617428762725 xlo xhi
0.7149134582937968 20.73120154170889 ylo yhi
0.7404843614847643 21.472711638515335 zlo zhi

Masses

1 1.008
2 15.999

Atoms # full

603 0 2 0.5897 2.5003991781287933 2.3823063391569725 2.5444736837949034 0 0 1
601 0 1 -1.1794 2.042252979364734 3.0312396438600286 2.0126655120041077 0 0 1
602 0 2 0.5897 1.2739489137658757 3.2495504907984802 2.581843643346172 0 0 1
694 0 1 -1.1794 3.9315709340795553 1.5178244143909212 3.925529669979264 1 1 0
695 0 2 0.5897 4.048444514471118 0.7705145705178077 3.23557403855775 1 1 0
191 0 2 0.5897 4.761341410588588 4.054703594653507 2.788701868017052 1 1 0
522 0 2 0.5897 2.857959468289148 4.366695064590976 2.380483455748458 0 0 1
696 0 2 0.5897 4.559073525202212 2.253888033866035 3.778096940202711 1 1 0
244 0 1 -1.1794 1.2353773410900082 0.880976369193641 4.087798238631766 1 0 1
697 0 1 -1.1794 8.088743843761847 1.9767878281884952 3.1284906130356562 0 1 0
698 0 2 0.5897 7.9903604826128705 2.2794739036959677 2.192247828841289 0 1 0
192 0 2 0.5897 5.9956429300174285 3.0290065338546865 2.4738588499276277 1 1 0
190 0 1 -1.1794 5.42249271318365 3.434566947598537 3.187619384045257 1 0 0
699 0 2 0.5897 7.645200786306615 1.1041090977707828 3.1994517469563934 0 1 0
312 0 2 0.5897 6.349397663315497 4.656889853747389 3.912595593173455 0 0 0
459 0 2 0.5897 7.58940833869165 2.7989999692877077 4.829538606054013 0 1 0
46 0 1 -1.1794 8.735228508610177 3.4226809896796193 0.9332022736550074 0 1 0
47 0 2 0.5897 7.947659897212632 3.9412955738593025 0.8040606729190315 0 1 0
184 0 1 -1.1794 6.174071001211874 1.6433132366142802 0.7598587527448011 0 0 0
185 0 2 0.5897 5.545893263717463 0.919107207513645 0.9457787086332613 0 0 0
552 0 2 0.5897 9.877409451285024 2.367189727854032 3.2333044324227473 0 1 0
550 0 1 -1.1794 10.708820003064291 2.7917035315365157 3.16620134996738 0 1 0
551 0 2 0.5897 10.380140953516936 3.6750769658032034 3.3805436035107554 0 1 0
140 0 2 0.5897 11.77084072291198 2.766413211958709 1.7148548824843148 0 0 0
139 0 1 -1.1794 12.223130331769182 2.247803246221535 1.004097591466178 0 0 0
60 0 2 0.5897 11.49155297747389 1.6196517984771628 4.456683466792672 0 0 0
623 0 2 0.5897 12.512883827344599 4.092831196895894 4.149265351974231 0 1 0
48 0 2 0.5897 9.449554636779945 4.035213889299607 1.1255860880044968 0 1 0
99 0 2 0.5897 14.036547218358354 4.368329041629774 1.6263023625745792 0 0 0
851 0 2 0.5897 14.273391721049475 2.3585625322345294 3.01902090715581 0 0 1
850 0 1 -1.1794 14.550193381582769 3.2398972311510734 2.56652622783821 0 0 1
852 0 2 0.5897 15.461958947811839 3.4053426856553433 2.822232234384428 0 0 1
819 0 2 0.5897 15.812488299960519 1.3470895776860363 1.9501471100678691 0 1 0
355 0 1 -1.1794 16.947855858672774 3.863370127247615 3.6029280539633284 -1 0 0
818 0 2 0.5897 17.15638708497051 0.9879874474115173 2.645025998797073 0 1 0
817 0 1 -1.1794 16.724371906998662 1.057135290033105 1.7669960188414713 0 1 0
356 0 2 0.5897 17.094987404567583 3.821155029185252 4.547919436321759 -1 0 0
520 0 1 -1.1794 3.447214851736672 5.134682489104335 2.758279552940855 0 0 1
521 0 2 0.5897 3.077147975632881 5.383840854956456 3.5940419286382324 0 0 1
66 0 2 0.5897 4.151895342882165 7.429921671408493 4.481326064475138 0 0 0
302 0 2 0.5897 4.334450487451204 8.563410668756575 0.9280730172771752 0 0 0
645 0 2 0.5897 3.379245301058466 6.374161404637245 1.5335016160743429 1 0 1
636 0 2 0.5897 2.218778684186831 8.354755658022672 1.1554610718952922 1 0 1
71 0 2 0.5897 0.9164905051789369 8.67834837601027 3.200405001960938 0 0 0
64 0 1 -1.1794 4.825967902357796 7.967074459867061 4.018766737716367 0 0 0
643 0 1 -1.1794 3.4711569112906995 6.976718725905009 0.7875147294882124 1 0 1
310 0 1 -1.1794 6.726182547202396 5.43503811251876 4.365224859092379 0 0 0
311 0 2 0.5897 7.685526620223156 5.201802877344706 4.46143191444726 0 0 0
65 0 2 0.5897 5.375795211509255 7.256130591292441 3.546803946380737 0 0 0
430 0 1 -1.1794 7.768260930127423 6.373602895440819 1.6261318285471829 -1 1 0
431 0 2 0.5897 7.431852347702912 6.212869730013579 2.5197269459694978 0 1 0
432 0 2 0.5897 7.211488311100616 5.79417164645628 1.108216795244832 0 1 0
735 0 2 0.5897 8.278374934405853 7.893551177292283 1.117744475014548 0 0 0
232 0 1 -1.1794 9.473682158490888 5.013530191781812 4.412514857851146 0 0 1
342 0 2 0.5897 11.738725756701127 5.068680912149874 0.9750929929668911 0 0 0
221 0 2 0.5897 9.647181964994868 7.759559050448688 2.927837788641242 -1 0 1
220 0 1 -1.1794 10.462920846128627 7.1915607378656485 2.946287134905693 -1 0 1
222 0 2 0.5897 11.22563564239083 7.799162647823852 3.1283078616117503 -1 0 1
234 0 2 0.5897 9.788271157364688 5.8886470942161475 4.062392003237976 0 0 1
341 0 2 0.5897 10.733544479746891 5.984763142518563 1.5204724599658634 0 0 1
340 0 1 -1.1794 10.793660171229112 5.135630798887382 1.0016295627350038 0 0 0
357 0 2 0.5897 16.917546006814568 4.866898458187008 3.3457900518572274 -1 0 0
97 0 1 -1.1794 13.763097578733749 5.190870058648007 1.1502631448019436 0 0 0
497 0 2 0.5897 13.67765848710155 5.895263874746432 4.024030158872664 0 0 0
498 0 2 0.5897 14.878487402873139 6.416614084462442 3.4208859304685295 0 0 0
496 0 1 -1.1794 14.139972954850787 6.761024169579697 3.8740826036187963 0 0 0
80 0 2 0.5897 17.051162601515962 6.274945204619023 1.7788540732297167 -1 0 0
79 0 1 -1.1794 16.68855850200566 6.176537984512548 2.6415190120392866 -1 0 0
81 0 2 0.5897 17.060506862426205 6.861149170720183 3.214879575641439 -1 0 0
407 0 2 0.5897 14.4785365195941 7.0075340644075395 1.499572543505138 0 0 0
406 0 1 -1.1794 14.555479971575368 7.947533678613614 1.2792294804420967 0 0 0
70 0 1 -1.1794 17.518682420442016 8.233652356250595 3.966123330899351 -1 0 0
634 0 1 -1.1794 1.5791611813493986 8.995380378264787 1.5466753276446057 1 0 1
702 0 2 0.5897 3.859203123365952 10.094517584533858 2.7204266135648014 0 0 0
301 0 1 -1.1794 4.6256757078198785 9.488022290494015 0.7993647325548414 0 0 0
444 0 2 0.5897 1.9168300667696911 11.023134535541885 0.8888441863130065 0 0 1
635 0 2 0.5897 0.7929029136167831 9.016769415059438 0.9863620913254945 1 0 1
700 0 1 -1.1794 3.6148584585474315 10.719223064146997 3.4181174758646007 0 0 0
701 0 2 0.5897 2.82965680819927 11.08733835321121 3.0307887499715784 0 0 0
396 0 2 0.5897 4.815624533997606 12.069242459353921 3.173005656994747 0 0 1
742 0 1 -1.1794 1.0499310562655118 11.718071227912223 3.5561094314679944 0 0 0
744 0 2 0.5897 0.7581807683094008 11.95466614576841 4.460273093837387 0 0 0
843 0 2 0.5897 3.120280754359793 9.473132725026854 4.821818877400936 1 0 0
469 0 1 -1.1794 8.519034148764035 8.815790008133893 3.7000003665629557 0 0 0
470 0 2 0.5897 7.823551030297283 9.357204717224029 3.2638844693747338 0 0 0
827 0 2 0.5897 6.065659439468475 9.959807337419907 1.368376924384887 0 0 1
826 0 1 -1.1794 6.7504885016058385 10.387965415777119 1.943183154954113 0 0 1
734 0 2 0.5897 8.249594810748548 9.45140935329559 1.0261872350307735 0 0 0
828 0 2 0.5897 6.874551741887742 11.272311564356851 1.5858789015988908 0 0 1
29 0 2 0.5897 8.700742717200667 12.088694031775391 3.9523603528557185 0 0 0
782 0 2 0.5897 6.462781097925262 12.043133267181723 4.4494708158241405 0 0 0
471 0 2 0.5897 9.126921604574202 9.40194986700259 4.219694029813594 0 0 0
858 0 2 0.5897 12.000307981539319 9.80994543443612 2.4459209091106007 0 0 1
138 0 2 0.5897 10.226556386074476 9.900325905050135 1.1552404815912634 0 0 0
856 0 1 -1.1794 12.63080749051333 9.29930478872416 2.9308773129440886 0 0 1
857 0 2 0.5897 13.191320623421998 8.880105236748907 2.266404455697953 0 0 1
136 0 1 -1.1794 10.74027844593342 10.696136673518481 1.4322636793841794 0 0 0
137 0 2 0.5897 10.077904526597218 11.368149856980391 1.771277092396187 0 0 0
28 0 1 -1.1794 9.403876844139223 12.582426620662691 3.522875634607825 0 0 0
30 0 2 0.5897 10.146944057450387 12.31114399581892 3.996323625775738 0 0 0
72 0 2 0.5897 16.820248057571007 8.837810666707135 4.289097884979105 -1 0 0
5 0 2 0.5897 14.043417599405124 9.300570264779063 4.183801373571219 0 0 0
50 0 2 0.5897 15.776747941367123 10.123718889514512 2.7177371204317415 0 0 1
51 0 2 0.5897 15.439370045347758 10.881477591320893 1.333853899990135 0 0 1
4 0 1 -1.1794 14.838841576724612 9.53928295586624 4.76716865546376 0 0 0
269 0 2 0.5897 13.935797786053064 12.672264144178579 3.9716003870832206 -1 0 1
743 0 2 0.5897 17.295354722996585 11.469600341379985 3.0287528210548613 -1 0 0
49 0 1 -1.1794 15.885572489352683 10.951195353406437 2.2414111599526176 0 0 1
270 0 2 0.5897 14.83949093210938 11.98888995965579 2.8109575909067996 0 0 1
7 0 1 -1.1794 1.686520648617749 14.025998928731504 1.8686882093004002 1 0 1
8 0 2 0.5897 2.4736872646084618 14.338242994831992 2.3051901035566056 1 0 1
9 0 2 0.5897 1.3987698264101858 13.414998522308812 2.51611348165465 0 0 1
193 0 1 -1.1794 3.6923469963196567 15.320331989709674 3.5318213576894255 0 0 0
194 0 2 0.5897 2.9182411659449876 15.351294749578651 4.089183093759871 0 0 0
195 0 2 0.5897 3.7778163450391147 16.087074207484697 3.0036382184561004 0 0 0
395 0 2 0.5897 4.858774240064595 13.425691890368833 3.689396790357591 0 0 0
10 0 1 -1.1794 6.7602960851237865 12.911307254167095 0.8593711529907753 0 0 1
394 0 1 -1.1794 5.396457411161751 12.818012673365132 3.2469435118577596 0 0 1
12 0 2 0.5897 6.593503691026047 13.423613168134404 1.684101818781496 0 0 1
106 0 1 -1.1794 7.981165007847052 14.955047426341027 3.1564479605611266 0 0 0
107 0 2 0.5897 7.501022890990047 14.990952337100646 4.024205124531358 0 0 0
416 0 2 0.5897 7.018615751350346 15.292794390198466 1.5257187603279776 0 0 1
108 0 2 0.5897 8.55928950341459 14.229995628045693 3.219868564334501 0 0 1
415 0 1 -1.1794 6.499349498950006 15.837394979346369 0.923018727966423 0 0 1
587 0 2 0.5897 11.06799610559126 15.48857562421325 2.5321560348982164 0 0 0
586 0 1 -1.1794 11.085002081900722 15.30782066058105 1.5415895496534406 0 0 0
559 0 1 -1.1794 11.727545438590253 15.258758554617557 4.253445165273851 0 0 0
560 0 2 0.5897 11.799074623305126 14.286305867422097 4.279900246016272 0 0 0
561 0 2 0.5897 12.590622667503816 15.604736403973936 4.45710257478853 0 0 0
588 0 2 0.5897 12.039395407069303 15.132954864647939 1.351726667554615 0 0 0
612 0 2 0.5897 17.337929034495225 15.367704071339345 1.2368516506119993 0 0 0
268 0 1 -1.1794 14.50292491361999 12.805567371089273 3.205585235662796 0 0 1
555 0 2 0.5897 13.81828436389949 14.161957319822054 1.9219149713348618 0 0 0
465 0 2 0.5897 15.438841867568511 14.272587820133733 3.762554985707946 0 0 1
463 0 1 -1.1794 16.19604933522227 14.817861901568484 4.120364442799629 0 0 1
464 0 2 0.5897 16.43171468878934 15.334565459031749 3.278377988523077 0 0 1
554 0 2 0.5897 13.949589914246138 15.60214553834261 1.666280599315732 0 0 1
553 0 1 -1.1794 13.787325864105783 14.807026301152517 1.1730943481414335 0 0 0
610 0 1 -1.1794 16.648703479506313 16.0250691669602 1.4367286985162733 0 0 0
501 0 2 0.5897 3.6021208956133437 20.215034020473347 1.1849295331326806 1 0 0
171 0 2 0.5897 3.6988554831202096 16.956516924177876 1.0134712184136285 0 -1 0
246 0 2 0.5897 1.63762248358672 20.05581390664345 4.2009130090878655 0 -1 1
182 0 2 0.5897 1.862043028443358 18.20022097913987 2.65531884167209 1 -1 1
183 0 2 0.5897 1.0059116434049291 17.285619846900268 1.656573449800256 1 0 1
181 0 1 -1.1794 1.4063607256958428 18.128755554854315 1.7864040130827854 1 0 1
541 0 1 -1.1794 2.561682091297965 18.316450436482196 4.445105460511408 1 0 0
499 0 1 -1.1794 4.3703570866067505 19.911481740260484 1.7265502181108072 1 0 0
500 0 2 0.5897 4.474465658694102 18.980796450713623 1.5379708785489212 1 0 0
169 0 1 -1.1794 4.33866615513028 17.28905961471609 1.6484922006494482 0 -1 0
543 0 2 0.5897 3.5704659265737324 18.345925765044502 4.428574364404376 1 0 0
410 0 2 0.5897 8.995699678477255 16.829109592466516 3.271949045139877 0 0 0
170 0 2 0.5897 5.15473969187773 16.80045818979832 1.42186508193717 0 -1 0
19 0 1 -1.1794 7.0624980987518 19.442870133121424 3.0063169066234727 0 0 0
21 0 2 0.5897 7.831466975792673 18.91208813544735 3.241876376490215 0 0 0
20 0 2 0.5897 6.8924093130913 19.232783274002962 2.10097657860263 0 0 0
197 0 2 0.5897 5.761595964963186 18.667478344532704 4.042031017616929 1 -1 0
196 0 1 -1.1794 5.306478209738521 18.264494387814327 4.748125718719371 0 -1 0
409 0 1 -1.1794 9.130941631550053 17.712211290229163 3.7118978883695264 0 0 0
833 0 2 0.5897 10.038036918130459 20.171012602992512 1.2466626663937226 0 0 1
411 0 2 0.5897 10.147944652435285 17.851040679099093 3.6342390175209154 0 0 0
472 0 1 -1.1794 11.592960862855545 18.454509106053102 3.7815789033153697 0 0 0
473 0 2 0.5897 11.466146555807494 19.25368443256079 3.2254842610561685 0 0 0
832 0 1 -1.1794 10.942935923042326 19.940873837020312 1.5358603724311815 0 0 1
134 0 2 0.5897 13.054587827518054 17.376781085244016 3.0331128323302536 0 0 0
834 0 2 0.5897 11.515325595272362 20.725758514161967 1.49076945276316 0 0 0
474 0 2 0.5897 11.788568172034765 18.644912825449342 4.6674657185580735 0 0 0
687 0 2 0.5897 13.497972757314557 20.573585263605338 4.395047420264364 0 0 0
685 0 1 -1.1794 14.021551075261632 20.666731386586775 3.6060207519296066 0 0 0
133 0 1 -1.1794 13.85468110971492 17.243450503835568 2.444208852228938 0 0 0
135 0 2 0.5897 13.767642785469544 17.920959549980033 1.7130897955239524 0 0 0
686 0 2 0.5897 14.816157984643501 20.107322580905215 3.6939376316363544 0 0 0
282 0 2 0.5897 15.124296683846591 17.974048382701195 3.3525470611649975 0 -1 0
281 0 2 0.5897 16.429385237139414 18.740128734422413 2.85868204618557 0 -1 1
280 0 1 -1.1794 15.881904435908108 18.501234796397497 3.64293712595728 0 -1 0
102 0 2 0.5897 3.1320996939356607 2.534054746302834 5.285198548234064 0 0 0
245 0 2 0.5897 0.809866190677439 1.1618403141316782 4.926201036791163 1 0 1
100 0 1 -1.1794 3.008269553935225 2.9402245903822406 6.152960791244157 0 0 0
101 0 2 0.5897 3.71418320728403 3.607499181946666 6.1830410556034945 0 0 0
794 0 2 0.5897 1.1240816783780518 3.3327188302073796 6.599473548224316 1 0 1
329 0 2 0.5897 3.0467053878843546 1.1027412054923436 6.71415659839743 0 1 0
805 0 1 -1.1794 5.736564202873424 2.436573048504847 8.14154826827562 0 1 0
457 0 1 -1.1794 7.487133133456953 2.874260575328319 5.74592990356717 0 1 0
458 0 2 0.5897 7.248151045797809 2.0325404082249774 6.086131655891756 0 1 0
807 0 2 0.5897 5.653830896768317 3.369147363042635 7.842113993470113 0 1 0
264 0 2 0.5897 7.8070381637070625 4.336137816775814 6.507081300515317 0 1 0
287 0 2 0.5897 5.146058010434588 0.9799647144140462 6.673529972775156 0 0 0
806 0 2 0.5897 4.968430070024946 2.440578548636891 8.669906065496482 0 1 0
622 0 1 -1.1794 12.949256036359419 4.410098429982582 4.932512989929046 0 1 0
227 0 2 0.5897 9.406618681697077 1.7602648949802724 7.24602955969042 0 1 0
226 0 1 -1.1794 10.169342030369886 2.1253519592077805 7.6402998314164465 0 1 0
228 0 2 0.5897 10.287925321764977 3.0484939876859154 7.393443700193977 0 1 0
59 0 2 0.5897 11.345805566662406 1.5486780378105718 5.980727540204892 0 0 0
58 0 1 -1.1794 11.697580135111467 1.0833516151718399 5.238345023832836 0 0 0
147 0 2 0.5897 11.145042436025925 1.2435357745782407 8.953062140659547 0 1 0
668 0 2 0.5897 11.822019119884471 4.621323164025145 6.137981628905983 0 1 0
667 0 1 -1.1794 10.946512802243998 4.651763437124734 6.6201183589529204 0 1 0
793 0 1 -1.1794 17.170308234318306 3.555670494424296 6.64015924768008 0 0 1
236 0 2 0.5897 16.814445234758132 2.440293668455863 8.13592539631181 0 1 0
795 0 2 0.5897 17.072800498821863 4.44018267206601 6.923869006897691 0 0 1
624 0 2 0.5897 13.585868661922534 3.6589041537318887 5.1817593404417925 0 1 0
594 0 2 0.5897 14.515969035924643 1.753271702722628 6.736479470068331 0 1 1
593 0 2 0.5897 15.532472770064647 2.8093766798710176 6.49766845527808 0 1 1
592 0 1 -1.1794 14.601335651739344 2.6724511703082126 6.45586960578053 0 1 1
482 0 2 0.5897 14.416187525879 3.9368386977844954 7.623523148263987 0 0 0
483 0 2 0.5897 13.421492133707373 4.607731477077499 8.48537616686901 0 0 0
298 0 1 -1.1794 2.646268930122434 6.238845621417828 5.045464956277159 1 0 1
842 0 2 0.5897 1.9837976183790726 8.605176247074294 5.3077580050088295 1 0 0
300 0 2 0.5897 3.204268247530052 5.760690483175642 5.698090370252019 1 1 1
490 0 1 -1.1794 2.3305461496510507 5.549748820864898 8.835706083325649 0 0 0
148 0 1 -1.1794 4.834532356662069 4.886526605175131 6.694677517625059 0 0 0
299 0 2 0.5897 1.7586981306595584 6.0187165111381695 5.342092799671728 1 0 1
562 0 1 -1.1794 3.899232047519181 7.468928758551687 7.3074793693559 0 0 0
564 0 2 0.5897 3.4771264198474894 8.126819968352521 6.756419170033719 0 0 0
563 0 2 0.5897 4.5394575689706835 8.04938807439158 7.802487749997639 1 0 0
492 0 2 0.5897 2.678802712903966 6.254231447576606 8.29450041585676 0 0 0
114 0 2 0.5897 0.7078553018318812 6.8404566125612165 7.316678015932157 1 1 0
533 0 2 0.5897 5.56267124712102 8.713465451915644 5.412410987417703 0 0 0
150 0 2 0.5897 5.554996840464659 5.045579949445381 6.069488667011553 0 0 0
262 0 1 -1.1794 7.876634102509219 5.050438898473365 7.18125772767264 0 1 0
755 0 2 0.5897 6.736946661719351 5.673092409601082 8.599291222523647 0 1 0
263 0 2 0.5897 8.586913104191556 4.789600787722194 7.778192067353188 0 0 0
149 0 2 0.5897 4.869982441721545 5.663087651265363 7.215292641533188 0 0 0
425 0 2 0.5897 8.06688461671302 6.555612002949933 6.493589428454044 0 0 0
426 0 2 0.5897 8.356048074437352 7.3677621586552124 5.1893990010555 0 0 0
424 0 1 -1.1794 8.393706994346953 7.395048510563938 6.173655435799028 0 0 0
233 0 2 0.5897 9.836613660370677 5.010495612758398 5.305615736215663 0 0 1
275 0 2 0.5897 9.92542285849236 7.461750188977862 7.101674925339681 0 0 0
669 0 2 0.5897 10.94499812433863 5.505398241985661 7.042154294516794 0 1 0
274 0 1 -1.1794 10.625045415007977 7.1673600898001455 7.756623791923123 0 0 0
276 0 2 0.5897 11.39329982428781 7.744104838199518 7.606885509304993 0 0 0
481 0 1 -1.1794 14.256287619735668 4.789123923795592 8.029730550201034 0 0 0
91 0 1 -1.1794 17.600481205241238 8.125165901955333 8.863411489888673 -1 0 0
112 0 1 -1.1794 17.305687246783176 6.258072592277833 6.628766184271255 0 1 0
773 0 2 0.5897 13.488586923828366 8.343034624462229 7.095673704566574 0 0 0
648 0 2 0.5897 14.265864498404257 6.1618429044560274 6.919930336503058 0 0 0
647 0 2 0.5897 14.252854399268783 6.827313964239951 5.668909744906997 0 0 0
113 0 2 0.5897 16.37981296163806 6.518136258709069 6.598862954523612 0 1 0
646 0 1 -1.1794 14.612858551346239 6.962355617310323 6.522889089284506 0 0 0
841 0 1 -1.1794 2.636927723787929 9.257854650964878 5.6457655540201035 1 0 0
662 0 2 0.5897 1.387197128254087 9.783423050445041 8.350594474565955 0 0 0
661 0 1 -1.1794 1.741317009318207 10.618496062218679 8.045037422424157 0 0 0
663 0 2 0.5897 2.2531826690910517 10.385512326515695 7.205302980480593 0 0 0
95 0 2 0.5897 3.710356534407276 12.354757080442598 6.653683399684923 0 -1 1
96 0 2 0.5897 3.3567949346392623 12.398605745643744 5.163465676221972 0 -1 1
94 0 1 -1.1794 3.0198893751229408 12.66086954125667 6.028578494870798 0 -1 1
361 0 1 -1.1794 4.7351630178502395 11.417425521838371 7.493311748805943 0 0 0
452 0 2 0.5897 0.8936310412095437 12.599303197825792 6.54368933837198 0 0 0
720 0 2 0.5897 3.620183458484522 11.976678956672698 9.003843578507094 0 0 0
781 0 1 -1.1794 7.099021273029265 11.640597275810414 5.09909247348703 0 0 0
783 0 2 0.5897 7.011891471443482 10.647467666181832 5.167152803608509 0 0 0
534 0 2 0.5897 6.752890722795713 8.722875224969727 6.450170176037507 0 0 0
362 0 2 0.5897 5.211833630352388 10.681100285179877 6.987751558179674 0 0 0
532 0 1 -1.1794 6.098737384467977 9.302171345311494 6.043109764317786 0 0 0
167 0 2 0.5897 8.376586936098661 10.830507359490047 8.658739264502671 0 0 0
363 0 2 0.5897 5.501112024982364 12.096665238141032 7.742006337050363 0 0 0
168 0 2 0.5897 6.98928376698268 11.349923375682877 8.896469254345558 0 0 0
479 0 2 0.5897 11.817041811149943 11.838555099030648 4.955712325852057 0 0 0
478 0 1 -1.1794 12.20646093375226 12.682653615740744 4.945249387274269 0 0 0
757 0 1 -1.1794 10.277420099228275 10.178131420318119 5.17097420042421 0 0 0
772 0 1 -1.1794 12.657253114720534 8.866981648450443 6.876489362103107 0 0 0
774 0 2 0.5897 12.651008322754167 9.534178218020099 7.594834063026043 0 0 0
759 0 2 0.5897 11.097119692596635 9.63531469460545 5.393968909821323 0 0 0
758 0 2 0.5897 9.989688120593975 10.420605775277503 6.125529590756039 0 0 0
110 0 2 0.5897 9.711789563551687 12.174722566377609 7.472973456484037 0 0 0
109 0 1 -1.1794 9.83611055032159 11.243549375042178 7.756715565009456 0 0 0
111 0 2 0.5897 10.666142362519532 11.13197406548372 8.196382692002633 0 0 0
580 0 1 -1.1794 12.45440889068751 10.779735658847214 8.734891862012905 0 0 0
582 0 2 0.5897 13.169170953690749 11.462801357028857 8.601964321602205 0 0 0
6 0 2 0.5897 14.91609011104762 8.802473040513185 5.364811681890808 0 0 0
419 0 2 0.5897 14.525497580617719 10.83375380228407 6.224859625001165 0 0 1
261 0 2 0.5897 15.095659188580354 9.72103047664605 8.344390958270917 -1 0 1
418 0 1 -1.1794 14.932110827614586 11.13047230507797 7.080541289103879 0 0 1
420 0 2 0.5897 15.75416467731296 11.602239170377462 6.784239176922099 0 0 1
451 0 1 -1.1794 17.06675138959578 12.503784181911715 6.051395611094317 -1 0 0
68 0 2 0.5897 0.7413983568661917 15.30310402843968 5.037956044636989 0 0 0
855 0 2 0.5897 3.7707666729570275 14.124491949699195 6.559639353840181 0 0 0
69 0 2 0.5897 1.5859905368516856 14.888350429524175 6.257471361582579 1 0 0
208 0 1 -1.1794 1.6111088185599804 14.0385320258329 7.921891474038091 1 0 0
210 0 2 0.5897 2.0526645953575717 13.59963819829996 8.652442854051634 1 0 0
853 0 1 -1.1794 4.274687216488457 14.898334641671559 6.814988801511019 0 0 0
67 0 1 -1.1794 1.498878853936814 15.578590447444377 5.555010981789425 0 0 0
854 0 2 0.5897 4.44618526494232 14.765376299648032 7.736735314184944 0 0 0
209 0 2 0.5897 0.7887885010700151 14.35529322743281 8.291169945131962 1 0 0
849 0 2 0.5897 3.2702624508826617 16.49158298645507 6.828057823619814 0 0 0
129 0 2 0.5897 8.075658909166904 13.090701703527536 5.919113179645611 0 0 1
127 0 1 -1.1794 8.50040963302807 13.551944330831722 6.634394142149642 0 0 1
770 0 2 0.5897 7.2592885449556785 13.398458294879706 7.83109018062992 0 0 0
816 0 2 0.5897 5.6979068320251365 15.1316807024822 5.644326303452717 0 -1 1
769 0 1 -1.1794 6.540596896629685 13.037269688908218 8.336825866123181 0 0 0
128 0 2 0.5897 8.74279685191107 14.406315196554973 6.288445359007196 0 0 1
814 0 1 -1.1794 6.476040364909724 15.57252685238291 5.230848906852222 0 -1 1
225 0 2 0.5897 7.228260679529069 16.240938682146417 7.053050680272962 0 0 0
223 0 1 -1.1794 7.252896686277209 16.559239417161326 7.931801190819398 0 0 0
815 0 2 0.5897 6.1053976338186375 16.441297938356815 5.025866045318372 0 -1 1
771 0 2 0.5897 6.267665885949781 13.75793745896987 8.939951629828867 0 0 0
764 0 2 0.5897 6.07133774545146 15.871954578428708 8.916324156464444 1 0 0
480 0 2 0.5897 12.399875817345839 12.974589577268343 5.909934363631812 0 0 0
467 0 2 0.5897 10.475530075953976 15.494571298295456 5.346564996628349 0 0 0
436 0 1 -1.1794 12.57422494098408 13.993152559732977 7.133106503809316 0 0 0
466 0 1 -1.1794 9.763441424914715 15.862998566423235 5.9678391937782225 0 0 0
359 0 2 0.5897 11.294015533513704 14.512600632910056 8.454994054687873 0 0 0
438 0 2 0.5897 13.09497361072564 14.679081371907492 6.657643349631753 0 0 0
437 0 2 0.5897 13.247357667608606 13.609983070321897 7.654566447405443 0 0 0
468 0 2 0.5897 9.1871981101361 16.460255121863916 5.421242971574054 0 0 0
453 0 2 0.5897 16.9479089082844 13.344712281946922 5.602541043843268 -1 0 0
40 0 1 -1.1794 16.13954927710481 15.154811583607405 8.689795461892471 0 0 0
41 0 2 0.5897 15.659198111055266 15.960616417035405 8.428642955053572 0 0 0
211 0 1 -1.1794 14.13343412910091 15.84837293393385 5.706595043877961 0 0 0
213 0 2 0.5897 14.986935180033074 15.645253196923125 5.284225179158525 0 0 0
42 0 2 0.5897 15.510212352478094 14.479928857155157 8.601801394561257 -1 0 0
328 0 1 -1.1794 2.8561061091661695 20.474485586165585 7.475577074501763 0 0 0
330 0 2 0.5897 3.2951061026258164 19.605454950573886 7.292188667833051 0 0 0
530 0 2 0.5897 1.2880758526201712 20.17562588228141 7.248630755849254 0 -1 0
847 0 1 -1.1794 3.121864574613744 17.429686050584962 7.049916125086347 0 0 0
542 0 2 0.5897 2.3867728868027083 17.852109707445294 5.294948471321533 1 0 0
327 0 2 0.5897 1.9628762343246797 17.50176419254128 8.368082424764399 0 0 0
848 0 2 0.5897 3.934292648683012 17.77540197088524 7.507081691040082 0 -1 0
325 0 1 -1.1794 1.148331508469322 17.43385825456697 8.930268982453795 0 0 0
25 0 1 -1.1794 4.85428948261436 18.704415748999807 8.4603399622548 0 0 0
326 0 2 0.5897 0.6174641179218893 16.8273895790789 8.415435872361845 0 0 0
288 0 2 0.5897 4.9555555445378285 20.68753243946739 5.191880899786629 0 -1 0
286 0 1 -1.1794 5.488106697985623 20.470258771338543 5.954362644193733 0 -1 0
198 0 2 0.5897 5.518550517859673 18.814007216830284 5.486750544380595 0 -1 0
224 0 2 0.5897 7.3190719753397815 17.517646031594463 7.876109731732353 0 0 0
788 0 2 0.5897 8.085624918099708 19.600473080064514 7.117542980761791 0 0 0
26 0 2 0.5897 5.66533980738758 19.092977417047617 8.099298101971367 0 0 0
787 0 1 -1.1794 7.6723908799552305 19.29199058664204 7.9389730830177765 0 0 0
789 0 2 0.5897 7.880501968182976 19.916829071008557 8.637190628467337 0 0 0
797 0 2 0.5897 9.002019606772848 18.875450626425508 5.525979882937573 0 0 0
796 0 1 -1.1794 8.941536829333488 19.84202571482902 5.6944065958545975 0 0 0
675 0 2 0.5897 10.624168664060278 16.83629758798414 7.429508580220748 0 -1 1
798 0 2 0.5897 9.843079166029236 20.07370750398174 5.787034300891076 0 0 0
673 0 1 -1.1794 11.246201322005922 17.279077715418236 7.919435772194501 0 -1 1
39 0 2 0.5897 12.63445385371483 17.894627881979545 6.89375527734582 0 0 0
37 0 1 -1.1794 13.053992500736753 18.27323231844171 6.083172004179854 0 0 0
674 0 2 0.5897 10.870714702296329 17.531306530145574 8.748061151307835 0 -1 1
152 0 2 0.5897 14.457980561579417 20.715568774214574 8.47103466968208 0 -1 0
38 0 2 0.5897 13.436091475318754 19.084279242591542 6.462216492746977 0 0 0
212 0 2 0.5897 13.990983929398757 16.87051417456033 5.815775103519168 0 0 0
529 0 1 -1.1794 17.357799899598483 19.932569404316943 7.040081712095164 -1 -1 0
153 0 2 0.5897 15.67257881844033 20.066812347968813 7.650147275682266 0 0 0
57 0 2 0.5897 16.46487256510441 17.70034503186534 5.0897809309371755 -1 0 0
56 0 2 0.5897 17.36248925169944 16.871736588990746 6.032737883375535 -1 0 0
247 0 1 -1.1794 15.165182854519603 17.709786631065267 8.5021059429345 0 0 0
531 0 2 0.5897 17.325685917920108 19.010858945820758 6.744343063670789 -1 -1 0
151 0 1 -1.1794 14.734593928690575 20.261577246741478 7.633329790362967 0 -1 0
249 0 2 0.5897 15.420768668427343 18.018067981854767 7.558496549025802 0 0 0
55 0 1 -1.1794 16.679564895124333 17.521933324183028 6.023730105317744 -1 0 0
248 0 2 0.5897 14.557934769139141 18.31690469851442 8.874260986453537 0 0 0
402 0 2 0.5897 1.5354749640871574 3.0904802967673835 9.96041404467583 1 0 0
401 0 2 0.5897 2.675237450900672 4.26079258772204 10.09345423069973 1 0 0
400 0 1 -1.1794 2.2222254910110175 3.4390626900780648 10.539014604975039 1 0 0
723 0 2 0.5897 0.8424063577568316 2.020627401581179 12.23346478561084 0 1 0
240 0 2 0.5897 3.0347340157021474 3.9947890745096153 12.06898068683917 1 0 0
238 0 1 -1.1794 3.676730296647268 3.7733337764569628 12.758022140914441 1 0 0
516 0 2 0.5897 3.2587817289489434 2.137323159943259 10.260007478581153 0 1 0
721 0 1 -1.1794 1.5338042747759617 1.3158348105663698 12.098423990716862 0 1 0
515 0 2 0.5897 3.432941287278678 1.091790799166095 9.076054227287447 0 1 0
514 0 1 -1.1794 3.869371375217808 1.4450814091596023 9.88136303607973 0 1 0
239 0 2 0.5897 4.137971657565609 2.9561379790831013 12.608067497319425 1 0 0
722 0 2 0.5897 1.5868550669627184 0.8058347717645412 12.901603624252575 0 1 0
293 0 2 0.5897 6.922897530544207 2.88893843065657 9.303156988279008 0 0 0
292 0 1 -1.1794 7.397318854541552 3.036126522686286 10.172347974446348 0 0 0
374 0 2 0.5897 5.129452363652508 1.505314770259975 11.503537886458094 1 1 0
375 0 2 0.5897 6.3040635440656905 2.423222608843319 11.574255310300257 1 1 0
597 0 2 0.5897 8.155334114995213 1.4790554129191946 10.11354281297754 0 1 0
373 0 1 -1.1794 5.6357937059724135 2.0034792639717915 12.130399211670033 1 1 0
294 0 2 0.5897 8.04964996446149 3.684142473801418 9.982815530644123 0 0 0
338 0 2 0.5897 7.38590562152516 4.529025990853178 13.088572808439492 0 0 0
640 0 1 -1.1794 10.047322495559767 4.534136070008053 12.258207246680763 0 0 0
641 0 2 0.5897 9.567608682710139 4.357313741185786 11.446447761125494 0 0 0
630 0 2 0.5897 11.72602205759881 1.378512295732051 11.309777513583294 -1 0 0
628 0 1 -1.1794 11.939027790690252 1.6022692600773616 12.257473425872885 -1 0 0
776 0 2 0.5897 12.833183263760873 3.267249277473692 12.008911485446987 0 1 0
89 0 2 0.5897 12.333620558631164 4.503639761979683 10.502197913827956 0 0 0
812 0 2 0.5897 10.458474175124453 4.603516824690923 9.518028025523082 0 0 0
775 0 1 -1.1794 13.294387845814478 4.061642613756994 11.970091935779854 0 1 0
145 0 1 -1.1794 11.22931860496942 0.740202869080651 9.734017620846954 0 1 0
235 0 1 -1.1794 16.933982739010496 2.111660339230765 9.037947286633045 0 1 0
237 0 2 0.5897 17.349204394971196 1.2272304351418333 9.120607505664246 0 1 0
777 0 2 0.5897 14.177961275884162 3.7401136878628245 11.826162497450884 0 1 0
332 0 2 0.5897 16.95372811985159 4.102134173098733 12.240920972423389 0 0 0
578 0 2 0.5897 15.088910471890125 2.151594933273895 9.581331331315111 -1 0 0
577 0 1 -1.1794 14.160057511529299 2.0016771951885994 9.868641674843799 -1 0 0
32 0 2 0.5897 16.416787269722576 4.445884145641166 10.344191247805009 0 1 1
331 0 1 -1.1794 16.310032588574625 3.442874523554751 12.083969239960371 0 0 0
333 0 2 0.5897 16.170949915557568 3.0010558355125254 12.946891031037953 0 0 0
579 0 2 0.5897 14.198102583611622 1.626546928996862 10.753460155470107 -1 0 0