LAMMPS (29 Sep 2021 - Update 2)
  using 1 OpenMP thread(s) per MPI task
echo both

include		in.partitions
variable        pid world 0
include		in.temp
variable        temperature equal 250
variable        tempDamp equal 0.100 # this is 0.1 ps
include		in.pressure
variable        pressure equal 6079.5
variable        pressureDamp equal 1.0 #this is 1ps
include		in.seed
variable        seed world 745823

units           metal
atom_style	full
include		in.box
read_data       water.data
Reading data file ...
  orthogonal box = (0.0000000 0.0000000 0.0000000) to (18.207573 21.446115 22.213196)
  1 by 1 by 1 MPI processor grid
  reading atoms ...
  864 atoms
  reading velocities ...
  864 velocities
Finding 1-2 1-3 1-4 neighbors ...
  special bond factors lj:    0        0        0       
  special bond factors coul:  0        0        0       
     0 = max # of 1-2 neighbors
     0 = max # of 1-3 neighbors
     0 = max # of 1-4 neighbors
     1 = max # of special neighbors
  special bonds CPU = 0.000 seconds
  read_data CPU = 0.024 seconds
include 	in.setup
variable	out_freq equal 500
variable	out_freq2 equal 500

timestep        0.0005

neigh_modify    delay 7 every 1

include         in.deepmd
# This is deepMD model

# create groups ###
#group ox type 2
#group hy type 1

mass 2 15.999
mass 1 1.008

pair_style      deepmd ../graph.pb
pair_coeff      * *

bond_style      none
angle_style     none
dihedral_style  none
improper_style  none
neigh_modify exclude none


neighbor        2.0 bin
neigh_modify    every 10 delay 0 check no

thermo          ${out_freq}
thermo          500
thermo_style 	custom step temp pe etotal epair emol press lx ly lz vol pxx pyy pzz pxy pxz pyz

restart 	${out_freq} restart.lmp.${pid} restart2.lmp.${pid}
restart 	500 restart.lmp.${pid} restart2.lmp.${pid}
restart 	500 restart.lmp.0 restart2.lmp.${pid}
restart 	500 restart.lmp.0 restart2.lmp.0


include         in.dump
dump            myDump all atom ${out_freq2} dump.water.${pid}
dump            myDump all atom 500 dump.water.${pid}
dump            myDump all atom 500 dump.water.0
dump            myDump2 all dcd ${out_freq2} dump.dcd
dump            myDump2 all dcd 500 dump.dcd
dump_modify     myDump append yes
dump_modify     myDump2 append yes


timer           timeout 03:55:00 every 1000
New timer settings: style=normal  mode=nosync  timeout=03:55:00

fix             2 all nph iso ${pressure} ${pressure} ${pressureDamp}
fix             2 all nph iso 6079.5 ${pressure} ${pressureDamp}
fix             2 all nph iso 6079.5 6079.5 ${pressureDamp}
fix             2 all nph iso 6079.5 6079.5 1
fix             3 all temp/csvr ${temperature} ${temperature} ${tempDamp} ${seed}
fix             3 all temp/csvr 250 ${temperature} ${tempDamp} ${seed}
fix             3 all temp/csvr 250 250 ${tempDamp} ${seed}
fix             3 all temp/csvr 250 250 0.1 ${seed}
fix             3 all temp/csvr 250 250 0.1 745823
velocity 	all create ${temperature} ${seed} dist gaussian
velocity 	all create 250 ${seed} dist gaussian
velocity 	all create 250 745823 dist gaussian

run             1000000

CITE-CITE-CITE-CITE-CITE-CITE-CITE-CITE-CITE-CITE-CITE-CITE-CITE

Your simulation uses code contributions which should be cited:

- USER-DEEPMD package:

@article{Wang_ComputPhysCommun_2018_v228_p178,
  author = {Wang, Han and Zhang, Linfeng and Han, Jiequn and E, Weinan},
  doi = {10.1016/j.cpc.2018.03.016},
  url = {https://doi.org/10.1016/j.cpc.2018.03.016},
  year = 2018,
  month = {jul},
  publisher = {Elsevier {BV}},
  volume = 228,
  journal = {Comput. Phys. Commun.},
  title = {{DeePMD-kit: A deep learning package for many-body potential energy representation and molecular dynamics}},
  pages = {178--184}
}

CITE-CITE-CITE-CITE-CITE-CITE-CITE-CITE-CITE-CITE-CITE-CITE-CITE

Neighbor list info ...
  update every 10 steps, delay 0 steps, check no
  max neighbors/atom: 2000, page size: 100000
  master list distance cutoff = 8
  ghost atom cutoff = 8
  binsize = 4, bins = 5 6 6
  1 neighbor lists, perpetual/occasional/extra = 1 0 0
  (1) pair deepmd, perpetual
      attributes: full, newton on
      pair build: full/bin
      stencil: full/bin/3d
      bin: standard
Per MPI rank memory allocation (min/avg/max) = 7.215 | 7.215 | 7.215 Mbytes
Step Temp PotEng TotEng E_pair E_mol Press Lx Ly Lz Volume Pxx Pyy Pzz Pxy Pxz Pyz 
       0          250    -134.9383   -107.05043    -134.9383            0    24425.263    18.207573    21.446115    22.213196    8673.8466    24307.224    25178.205    23790.359    1108.6926   -267.67561   -867.59355 
     500    258.84754   -130.04127   -101.16643   -130.04127            0    5961.0095    17.815321    20.984094    21.734649    8125.2456    9838.1665    3063.3212    4981.5407     1300.227   -1493.7253   -1341.3121 
    1000    250.70435   -127.57018   -99.603731   -127.57018            0    8841.8694    17.714519    20.865362    21.611671    7988.1024    10636.125    8353.0483    7536.4351   -1368.9374     395.5769   -1313.6998 
    1500    244.61589   -128.75388   -101.46661   -128.75388            0     4658.884    17.634172    20.770724    21.513648    7879.9007    6462.9029    1525.2967    5988.4523   -1189.1242   -1941.5739   -107.48501 
    2000     253.8286   -127.34937   -99.034408   -127.34937            0    6130.2868    17.527344    20.644895    21.383318    7737.5577    8605.6663    5726.8855    4058.3085     2042.963   -5470.2513    637.43069 
    2500    256.33723   -126.57577   -97.980971   -126.57577            0    10209.555    17.507217    20.621188    21.358763    7710.9322    10667.479     9483.461    10477.724   -513.14706   -1661.7371    470.30311 
    3000     258.7986    -126.4229   -97.553523    -126.4229            0    2594.7523    17.428167    20.528077    21.262322    7606.9519    4354.7132    3885.4317    -455.8881    -2988.177   -721.26138    2587.4947 
    3500    245.19071   -125.69082   -98.339424   -125.69082            0     9873.176    17.348187    20.433872    21.164747    7502.7042    11189.701    8571.8342    9857.9932    23.278849   -1287.5402    1212.6508 
    4000    239.01114   -125.48431    -98.82226   -125.48431            0    4160.8121    17.352604    20.439074    21.170136    7508.4367     3490.203    6015.5222     2976.711    1455.4036    695.73427   -365.43665 
    4500    246.30085   -126.28203   -98.806804   -126.28203            0    5059.0943    17.287616    20.362527     21.09085    7424.3916    4836.7654    4004.5201    6335.9975    1983.0426     3704.827   -997.92793 
    5000    258.96454   -127.91999   -99.032106   -127.91999            0    8513.8541    17.291588    20.367206    21.095697    7429.5111    6237.8904      13037.3    6266.3717   -1002.4147    145.54559   -1785.4727 
    5500    243.39227   -127.22112   -100.07035   -127.22112            0      2748.22    17.312251    20.391543    21.120905    7456.1759     2994.886    2387.0372    2862.7368     428.7213   -1604.4864   -793.06701 
    6000    254.65927   -127.58501   -99.177382   -127.58501            0    8130.7761    17.188579    20.245875    20.970026    7297.5237    7846.4375    7952.2941    8593.5968   -3165.2376    684.48328   -1287.1094 
    6500     241.1713    -127.1591   -100.25608    -127.1591            0    3743.7857    17.297035    20.373621    21.102341    7436.5332   -366.79835    7097.7349    4500.4206   -595.84408   -964.47857   -194.61534 
    7000    243.54139   -125.29936   -98.131955   -125.29936            0    6725.6551    17.254437    20.323447    21.050372    7381.7262     5226.933    6237.2307    8712.8014   -1343.1064    -95.39666    1741.8154 
    7500    257.11587   -127.39425    -98.71259   -127.39425            0    5650.4239    17.294802    20.370991    21.099618    7433.6541    7822.8541    7967.8718    1160.5457    1073.2014     1278.442    1328.3355 
    8000    246.68658   -125.93775   -98.419487   -125.93775            0    6274.0405    17.313455    20.392962    21.122374    7457.7324    5426.5519    7258.1762    6137.3935   -3319.8905    608.06823    1541.8705 
    8500    261.72908   -127.67975   -98.483473   -127.67975            0    9577.5485    17.141423    20.190332    20.912496     7237.627    9540.0559    8048.9943    11143.595   -204.96625    925.62408    -111.7063 
    9000    259.83818   -126.51627   -97.530926   -126.51627            0     4533.244    17.225423    20.289272    21.014976    7344.5512    4799.1743    8208.3714    592.18644   -2123.8999    1431.6037   -427.99234 
    9500    260.61495   -126.63682   -97.564829   -126.63682            0    5814.2345    17.247333    20.315079    21.041705    7372.6123    8070.5433    1877.4235    7494.7367   -705.25879    -208.7805   -1911.3705 
   10000    266.96779   -126.72736     -96.9467   -126.72736            0    5063.7547     17.20612    20.266535    20.991425     7319.887    4993.6355    6559.5442    3638.0843    896.62725   -184.45213    484.08924 
   10500    262.08999   -124.77444   -95.537908   -124.77444            0    6627.1454    17.287257    20.362105    21.090413    7423.9297    6036.5035    7842.1166    6002.8161   -84.937858    1594.6344    817.30535 
   11000    249.51667   -124.57231    -96.73835   -124.57231            0    7954.3373    17.227355    20.291548    21.017333    7347.0227    6750.3242    10927.196    6185.4917   -1825.7787    1597.6028   -1313.1756 
   11500    261.48835   -127.36767    -98.19825   -127.36767            0    5887.1243    17.284559    20.358927    21.087121    7420.4542    8623.0147    3012.5124    6025.8457   -816.90745    375.29282   -170.89115 
   12000    256.85153   -126.14566    -97.49349   -126.14566            0     3354.937    17.295211    20.371473    21.100116    7434.1808    2365.3575    2915.3152    4784.1383    396.92005    563.69344    944.30649 
   12500    265.30978   -127.23358   -97.637874   -127.23358            0    7559.3472    17.253926    20.322845    21.049749    7381.0703    9347.1129    6217.0094    7113.9193    1651.1694    347.94361    819.25507 
   13000    250.37464   -124.69772   -96.768049   -124.69772            0    8900.2467    17.291659     20.36729    21.095783    7429.6023     10109.04    8755.6625    7836.0372   -3274.8881   -1201.0541    1794.9442 
   13500     248.9406   -127.10087   -99.331175   -127.10087            0    2513.3873    17.241885    20.308662    21.035059    7365.6282    4599.9475     3006.497   -66.282548   -1914.9746   -604.86987    680.25989 
   14000    243.88841   -126.41782   -99.211696   -126.41782            0    4301.6904    17.226835    20.290935    21.016698    7346.3568    4945.1945    3230.7557    4729.1211   -1130.2998    149.29278    -475.8324 
   14500    252.73006   -128.21975   -100.02733   -128.21975            0    10096.903    17.157429    20.209184    20.932022    7257.9198    10145.071    9600.1529    10545.486   -1392.2251    -1522.066    866.84423 
   15000    240.84041   -125.05782   -98.191714   -125.05782            0    5890.8541     17.16181    20.214344    20.937367    7263.4811    8245.5391    2453.0656    6973.9575   -1134.7908   -1056.3722    1721.2506 
   15500     246.3121   -125.43736   -97.960871   -125.43736            0    6218.5253    17.151785    20.202537    20.925137    7250.7604    6340.5636     9785.343    2529.6693     572.3037   -935.32062    2145.0778 
   16000    255.35457   -126.90336   -98.418177   -126.90336            0    5365.9861    17.201706    20.261336     20.98604    7314.2549    8024.9325    3851.1342    4221.8915   -1835.9242     2609.636    1949.5293 
   16500    249.61553   -126.53958   -98.694591   -126.53958            0    6884.2029    17.175574    20.230557     20.95416    7280.9717    4699.4588    6240.1284    9713.0217   -647.55554     -300.527    1518.2649 
   17000     245.2059   -125.82588   -98.472793   -125.82588            0    4408.6345    17.194573    20.252935    20.977339    7305.1604    8989.2109    1485.7106     2750.982    825.61206    1698.0429    645.10035 
   17500    249.13283    -125.3424   -97.551261    -125.3424            0    7909.0254    17.121905    20.167341    20.888683    7212.9312     4603.317    8079.2208    11044.538    2803.5581   -2973.5068   -180.78242 
   18000    250.75758   -128.59061   -100.61823   -128.59061            0    2633.3423    17.221089    20.284167    21.009688    7339.0087    2064.4562    5747.1548    88.415762    124.36281   -245.46664    641.06873 
   18500     257.5092   -128.06212   -99.336585   -128.06212            0    7330.3647    17.126256    20.172466    20.893992    7218.4317      8083.62    4638.0617    9269.4123   -246.45895   -486.78819   -232.00081 
   19000    250.38805     -127.543   -99.611834     -127.543            0    7453.9413    17.143716    20.193032    20.915293    7240.5317    8107.8901     8971.993    5281.9408    731.85674   -2164.7536   -315.99032 
   19500    255.36734   -127.37259   -98.885978   -127.37259            0    7085.4251    17.211714    20.273125     20.99825    7327.0291    8560.1362    7636.0573    5060.0817    151.38064    209.72024    1575.0524 
   20000    242.19478   -127.77417   -100.75698   -127.77417            0      7116.08    17.237164    20.303102      21.0293    7359.5797     7655.072    5788.8819    7904.2861   -1800.4744   -106.03812   -331.95375 
   20500     242.5959   -127.32775   -100.26582   -127.32775            0    2343.3809    17.199952    20.259271    20.983901    7312.0188    3803.0458    1246.9548    1980.1421    1643.8183   -291.98709    192.45416 
   21000    239.57253   -127.15513   -100.43045   -127.15513            0    8587.8766    17.127505    20.173938    20.895516    7220.0117    7913.2613    12694.104    5156.2645   -1435.6634   -2133.9154    52.085956 
   21500    237.82825   -127.95249   -101.42239   -127.95249            0    2203.0778     17.17161    20.225887    20.949323    7275.9313    2735.1338    1281.3685    2592.7312    1717.1605   -1311.0622   -705.64186 
   22000    256.21522   -128.57113   -99.989933   -128.57113            0    6141.2822    17.153078    20.204059    20.926715    7252.4002    5273.5642    5801.2792    7349.0032   -2331.3817    1353.3066    1224.9362 
   22500    248.69434   -128.21112   -100.46889   -128.21112            0    4613.9079    17.205566    20.265883     20.99075    7319.1807    7957.6271    507.49205    5376.6046    184.28358   -1170.4769   -1210.5341 
   23000    248.48487   -128.72699   -101.00812   -128.72699            0    6158.9098    17.260922    20.331085    21.058284    7390.0524    7634.5642    5817.4285    5024.7366   -801.16037   -581.21991    551.22872 
   23500     258.8884   -128.33386   -99.454468   -128.33386            0     7851.359    17.157632    20.209423     20.93227    7258.1776    10074.429    8086.3559    5393.2923   -1004.1607   -1687.1521   -168.79997 
   24000    253.12898   -126.56677    -98.32985   -126.56677            0    3738.1276    17.229285    20.293821    21.019687    7349.4926    3856.1428    2146.3786    5211.8614   -2018.0389    891.14777    2479.4662 
   24500    250.71561   -126.90346   -98.935755   -126.90346            0    4612.2421    17.154202    20.205384    20.928086    7253.8262    6342.3589    333.36063    7161.0067   -1443.1622   -565.05341   -1179.5563 
   25000    262.29232   -127.21507   -97.955964   -127.21507            0    5192.0626    17.177107    20.232362     20.95603     7282.921    5223.2358    6582.6859     3770.266   -2203.3261    654.24547     2938.371 
   25500     259.5198   -127.13408   -98.184255   -127.13408            0    4427.4525    17.330268    20.412766    21.142886    7479.4799    4945.0727    3774.0659     4563.219    68.398685   -682.17681    -1260.551 
   26000    259.94283   -126.12656   -97.129542   -126.12656            0    5607.1547    17.153636    20.204716    20.927395    7253.1078    6738.2263    7007.7258    3075.5118    1248.1833   -1340.8144    2573.3466 
   26500    235.57502   -125.22376   -98.945014   -125.22376            0    10090.656    17.224288    20.287936    21.013591    7343.0996    8450.3545    9138.0172    12683.595     123.2149    -3266.799    2164.7512 
   27000    259.89988   -125.69454   -96.702319   -125.69454            0    6433.6018    17.225254    20.289073    21.014769    7344.3345    4324.2877    7958.0484    7018.4693    3890.7567    812.02554    1380.2186 
   27500    252.36978   -125.93355   -97.781325   -125.93355            0    9274.7198    17.097291     20.13835    20.858655    7181.8692    10046.122    8054.4617    9723.5759    1787.8246    583.17767    1316.6184 
   28000    243.92774   -126.47414   -99.263632   -126.47414            0    4577.3125    17.157838    20.209666    20.932522    7258.4398    4020.6583    5829.5868    3881.6924    884.83098    2643.6931    330.83445 
   28500     253.4279   -126.37614    -98.10588   -126.37614            0    6948.3759    17.207954    20.268696    20.993663    7322.2282    6762.3065    3858.4855    10224.336   -3033.2658    877.61517   -668.24499 
   29000    248.61018   -126.84991   -99.117068   -126.84991            0    6176.2945    17.138633    20.187045    20.909092    7234.0932    4122.2772    7880.7047    6525.9014    862.33158    463.83987   -1771.9188 
   29500    264.12195   -127.22219   -97.758987   -127.22219            0    5347.5083    17.172994    20.227517    20.951012    7277.6907    8387.6121    5679.9808    1974.9321   -2551.2473   -976.13223   -1715.3858 
   30000    266.47273   -126.25383   -96.528394   -126.25383            0    8452.8192    17.212155    20.273644    20.998789    7327.5926    8610.7369    9285.1794    7462.5413    5.4984499    529.01863      767.205 
   30500    257.96815   -126.64807   -97.871334   -126.64807            0    3645.0349    17.210309     20.27147    20.996537    7325.2355    1956.3447    8363.7682    614.99185   -839.18422    44.956338   -3046.6188 
   31000    255.60926   -127.20874   -98.695145   -127.20874            0    8203.3333      17.1605    20.212802     20.93577    7261.8188    10581.319    4628.2618    9400.4189    598.00424    2083.1239   -269.92001 
   31500    256.82155   -128.05364    -99.40481   -128.05364            0    7090.4983    17.201701    20.261331    20.986035    7314.2492    4861.3274    11534.345    4875.8225    1249.6527   -248.63245    1997.7244 
   32000    247.74115   -127.19972    -99.56382   -127.19972            0     8211.645    17.152134    20.202947    20.925563    7251.2022    10282.749     8601.761    5750.4249    1768.3505    998.67919    633.68646 
   32500    256.24726   -128.17679   -99.592019   -128.17679            0    6275.7309    17.157595    20.209379    20.932225    7258.1303    10401.452    2674.8842    5750.8561    1512.3318    561.94561   -1487.1365 
   33000    259.95425   -128.39891   -99.400624   -128.39891            0     8183.213    17.168893    20.222687    20.946009    7272.4782    7028.7714    8131.4202    9389.4473     -1287.72   -1059.2115   -883.33618 
   33500    255.12098   -128.08258    -99.62345   -128.08258            0    742.54873    17.226796     20.29089    21.016651    7346.3077    3547.2009     2545.556   -3865.1107    -1293.054   -3617.5628   -621.28059 
   34000    245.78091   -129.51982   -102.10259   -129.51982            0    6728.1125    17.148043    20.198128    20.920572    7246.0151    3530.0093    9529.4656    7124.8625   -159.37704    1718.8352   -1420.7475 
   34500    242.95151   -129.99773   -102.89612   -129.99773            0    7702.3438    17.123787    20.169559     20.89098    7215.3108    8177.8332    7146.6153    7782.5827   -2504.9206    296.08391   -60.407613 
   35000    237.63393   -129.61829   -103.10986   -129.61829            0     4785.629    17.163822    20.216714    20.939822    7266.0362    3666.4769    4911.9721     5778.438   -1539.5496   -2285.2769    138.24629 
   35500    249.09363   -129.81027    -102.0235   -129.81027            0    6489.5835    17.137869    20.186145     20.90816    7233.1259    5916.7142    6829.3117    6722.7246   -1584.0404    1584.6724   -1295.1481 
   36000    252.36292   -129.25275   -101.10129   -129.25275            0    5240.6129    17.136812      20.1849     20.90687    7231.7875    8757.0441    5983.3325    981.46224    969.22252   -2202.3469   -108.33131 
   36500    255.38928   -129.06776    -100.5787   -129.06776            0    5963.4708    17.131905     20.17912    20.900884    7225.5772    6937.3934    6206.8963    4746.1227   -2910.8306    1221.9297   -674.00864 
   37000    243.56601   -128.55576    -101.3856   -128.55576            0    7391.4704    17.126048    20.172222    20.893739    7218.1693    6312.5831    6300.6762     9561.152    658.56125    902.12917   -2826.3514 
   37500      253.722    -129.8783   -101.57523    -129.8783            0    6008.7972     17.11658     20.16107    20.882187    7206.2042    2571.0177    9027.6788    6427.6953   -417.51062    76.456619    137.90327 
   38000    251.27381   -128.28132   -100.25135   -128.28132            0    7567.4565    17.069076    20.105116    20.824232    7146.3717    7861.7619    7415.8459    7424.7616   -3472.2224    670.75023   -1714.7255 
   38500    250.53053   -128.95391   -101.00686   -128.95391            0    7611.4617    17.126039     20.17221    20.893727    7218.1568    8659.0298     5489.302    8686.0534   -4281.6351   -1133.2643   -1492.2656 
   39000     248.6337   -129.03066    -101.2952   -129.03066            0    5863.7454    17.151454    20.202147    20.924734    7250.3407    7243.7104    5485.5264    4861.9994   -1455.6698   -2091.0805    2799.1867 
   39500    248.51713   -128.48236    -100.7599   -128.48236            0    8426.3922    17.089676     20.12938    20.849364    7172.2766    8360.1073    8919.6788    7999.3904   -1743.9108    489.78225    367.98639 
   40000    246.33486   -128.46794   -100.98891   -128.46794            0    6808.1738    17.097847    20.139004    20.859333    7182.5695    8516.8937    5952.5642    5955.0634   -3572.1066    30.047974       -124.3 
   40500    251.51636   -129.87212   -101.81509   -129.87212            0    7145.6898    17.133988    20.181573    20.903424    7228.2125     7297.162    8800.0763    5339.8312    3202.7469     1299.065    738.56969 
   41000    260.84168    -130.9054   -101.80812    -130.9054            0    5164.3683    17.167153    20.220638    20.943886    7270.2674    2330.8164     6581.624    6580.6644   -123.66225    16.258631    204.89965 
   41500    260.25092   -130.06924   -101.03786   -130.06924            0    4392.5399    17.085615    20.124596    20.844409    7167.1646    4213.9589    3405.0015    5558.6594   -2126.9329    3372.2379   -1571.8547 
   42000    252.50862   -129.71485   -101.54714   -129.71485            0     3127.459    17.184899     20.24154    20.965536    7292.8372    1561.2322    1274.4994    6546.6455     503.2255   -1161.9898   -2709.0341 
   42500    258.37664    -129.2107   -100.38839    -129.2107            0     13157.78    17.085333    20.124264    20.844066    7166.8101    10504.834    14458.688    14509.817   -623.24287   -376.07877    -566.8108 
   43000    249.81656   -128.28148   -100.41407   -128.28148            0     6247.499    17.210743    20.271981    20.997066    7325.7893    6076.1324     5406.598    7259.7665    1586.8639    166.91332   -1823.7964 
   43500    250.62678   -129.41388   -101.45609   -129.41388            0    4801.1641    17.167488    20.221032    20.944295    7270.6933    4129.4105    2842.3864    7431.6955    3043.5621    1908.9857    30.185063 
   44000     245.7785   -128.95081   -101.53385   -128.95081            0    9387.0278    17.143294    20.192535    20.914779    7239.9973    7210.2129    10376.135    10574.736   -346.47655    2440.1558   -246.85268 
   44500    246.45579   -128.47023   -100.97772   -128.47023            0    4033.3651    17.169314    20.223184    20.946523     7273.014    4075.9252    4392.1874    3631.9828    2895.6529    1739.5812   -1713.4918 
   45000    240.77867   -129.96726   -103.10804   -129.96726            0    5095.4481      17.1591    20.211153    20.934062    7260.0415    5508.8201    4623.9394    5153.5848    725.35728    1463.5412   -1613.7893 
   45500    239.77432   -129.12805   -102.38087   -129.12805            0    6864.0463    17.120142    20.165265    20.886533    7210.7039    4986.2209     8860.409     6745.509    1432.9498   -1217.2023   -2535.5059 
   46000    253.21772   -130.14486   -101.89804   -130.14486            0     3847.759     17.15702    20.208702    20.931523    7257.4007    4380.1482    2537.4743    4625.6544    202.25545    352.30847   -2724.8598 
   46500    254.69269   -129.75226    -101.3409   -129.75226            0    6617.2089    17.227481    20.291696    21.017486    7347.1833    3115.6713    4981.1826    11754.773    580.19328    2895.0557    1773.5859 
   47000    253.36699   -129.84754   -101.58407   -129.84754            0    5050.2464     17.14885     20.19908    20.921557    7247.0388    7698.4784    6212.9902    1239.2706   -966.32755    280.48755   -1333.6583 
   47500    254.96779   -129.04391   -100.60187   -129.04391            0    3677.9825    17.159387    20.211491    20.934412    7260.4056    3104.2177    2689.5465    5240.1832   -319.81127   -508.49796    67.891001 
   48000    248.27982   -128.27833   -100.58235   -128.27833            0    6347.4353    17.263676    20.334329    21.061644    7393.5907    6698.0903     7136.811    5207.4047   -848.39956    185.12486    2537.7475 
   48500    247.02037   -128.55968   -101.00419   -128.55968            0    7971.1057    17.119542    20.164558    20.885801    7209.9457    7954.0211     9601.579     6357.717    1385.5939   -148.98657    341.47549 
   49000    256.15145   -128.22195   -99.647869   -128.22195            0    9408.0684    17.142929    20.192105    20.914333    7239.5341     9002.503    9180.4571    10041.245     2555.836    2696.1838   -476.31445 
   49500    264.19976   -126.50838   -97.036501   -126.50838            0   -464.81552    17.259914    20.329897    21.057054    7388.7575   -1155.0374    665.08456   -904.49373    4142.4697   -727.62179    117.10389 
   50000    258.69598   -127.80587   -98.947946   -127.80587            0    4568.7564    17.150807    20.201384    20.923943    7249.5192    221.77269    8129.2996    5355.1969   -1276.4243    21.132714    650.45943 
   50500     246.5475    -128.1515   -100.64876    -128.1515            0    5807.7217    17.180376    20.236213    20.960018    7287.0801    8229.1756    4376.1125     4817.877    1899.6214   -1817.1541    814.89509 
   51000     251.2116   -128.14954   -100.12651   -128.14954            0    6588.8065    17.182367    20.238558    20.962447    7289.6138    3441.5748    6987.7223    9337.1223    331.38901   -1812.7557    267.55615 
   51500    248.93811   -128.68493   -100.91551   -128.68493            0    6163.7366    17.167076    20.220547    20.943792    7270.1692    5286.3859     6146.151    7058.6729    217.50988   -893.20813    -1706.103 
   52000    247.31687   -130.56674   -102.97817   -130.56674            0    4780.9256    17.115772    20.160118    20.881201    7205.1834    4286.4023    6993.6061    3062.7684    2896.2073   -810.33044   -564.04845 
   52500    257.49282   -128.86106   -100.13734   -128.86106            0    4612.7417    17.139511    20.188079    20.910163    7235.2048    4797.6985    1592.2475    7448.2791     751.2673    1553.2604   -2410.1348 
   53000    256.32053   -130.19378   -101.60084   -130.19378            0     8433.091    17.129954    20.176822    20.898504     7223.109    10816.578    7704.7834    6777.9114    354.39212   -1896.3088    457.17349 
   53500    256.08908   -129.57388   -101.00675   -129.57388            0    7080.9655     17.14559     20.19524     20.91758    7242.9068    6545.0819    8456.9746    6240.8401   -40.395672   -366.96961   -1738.4918 
   54000    258.52301    -129.4834   -100.64476    -129.4834            0    5213.4612    17.142416    20.191501    20.913707    7238.8849    6194.7421    5261.4009    4184.2406    -582.0233   -2635.7339    987.19105 
   54500     246.6079   -131.04659   -103.53711   -131.04659            0    4764.1177    17.129755    20.176588    20.898261    7222.8575    497.55877    8312.4102    5482.3842    636.25884   -933.07979    2127.0751 
   55000    252.05734   -129.79765   -101.68028   -129.79765            0    6905.2165    17.110552    20.153969    20.874832    7198.5924    6012.4964    7679.7384    7023.4146    326.84847    3545.7408    745.46325 
   55500     244.8868   -130.28596   -102.96847   -130.28596            0    4480.5865    17.150316    20.200806    20.923345    7248.8975    3123.2855    3267.8169    7050.6572     -396.039    -2347.691   -1277.1014 
   56000    253.95758   -128.42157   -100.09222   -128.42157            0    7393.3393    17.135577    20.183446    20.905364    7230.2244    7428.4466    9859.1331    4892.4381   -1891.7053    1576.9845   -177.48217 
   56500    252.11658   -127.95981   -99.835822   -127.95981            0    3612.9449    17.137469    20.185673    20.907671    7232.6189      6268.37    2461.9603    2108.5043   -2279.4654    989.38633    607.70432 
   57000    256.54587   -129.56347   -100.94539   -129.56347            0    5216.6581     17.16181    20.214344    20.937367    7263.4812    3610.9276    4799.0069    7240.0399   -756.49142   -1785.9773    65.301188 
   57500    256.53244   -129.74364   -101.12706   -129.74364            0    5281.5812    17.149331    20.199645    20.922143    7247.6477    4536.3357    6052.0005    5256.4074   -44.862915    135.65825   -3166.0509 
   58000    260.95643   -130.60417   -101.49409   -130.60417            0    7740.0515    17.121439    20.166793    20.888115    7212.3424    8049.1281    5351.8808    9819.1456    3136.1412   -68.105061    841.76204 
   58500    243.65708   -129.50077   -102.32045   -129.50077            0    2193.0428    17.211307    20.272645    20.997754    7326.5096     755.6116    3762.0466    2061.4701   -22.937473    361.25369    758.04692 
   59000    253.81022    -128.3652   -100.05229    -128.3652            0    7530.9304    17.112628    20.156415    20.877366    7201.2141    4729.5185    7404.9336    10458.339    1360.9597   -252.94683    1416.2706 
   59500     258.1775   -129.62069    -100.8206   -129.62069            0    6674.6705    17.064485    20.099708    20.818631    7140.6066    6089.3634    8057.1933    5877.4549   -340.40738    1667.2301   -1662.5171 
   60000    249.09992   -129.60531   -101.81784   -129.60531            0    5774.9789    17.178997    20.234589    20.958336    7285.3261    2577.8571    7830.5352    6916.5443    236.30279    634.78856    -452.4077 
   60500    254.57185    -130.9355   -102.53763    -130.9355            0    5835.7062    17.126281    20.172496    20.894022    7218.4631    8560.6872    4358.5087    4587.9225    1335.2467    783.73809   -1785.3466 
   61000    247.75137   -129.60998   -101.97294   -129.60998            0    9078.1868    17.114845    20.159026    20.880071     7204.013    9791.5276    8906.5816    8536.4512   -1049.8311   -1996.3477    3418.2569 
   61500    255.17815   -129.91753   -101.45202   -129.91753            0    5784.6277    17.176907    20.232126    20.955786    7282.6667    7226.4368    4175.1567    5952.2895    434.88355    1779.6404    -844.8411 
   62000     249.4393   -128.62287   -100.79754   -128.62287            0    7397.0257    17.151042    20.201661     20.92423    7249.8172    6233.1651    10136.172      5821.74   -359.38583   -633.98974    -699.9158 
   62500    247.58384   -128.71757   -101.09922   -128.71757            0    6216.2121    17.084346    20.123102    20.842861    7165.5677    6460.0664    6130.1761    6058.3939    3991.4117    499.81796   -655.39582 
   63000    270.21081   -129.54711   -99.404689   -129.54711            0    7632.5078    17.140037    20.188698    20.910804    7235.8707    10150.976     7111.102    5635.4458    784.95217   -1552.2536     878.7024 
   63500    244.49465    -129.2754   -102.00165    -129.2754            0    6576.6658    17.213079    20.274732    20.999916    7328.7724    6899.3052    6472.0849    6358.6072    1270.5447    552.11541    -707.5716 
   64000    258.00232   -129.16847   -100.38792   -129.16847            0    5379.1207    17.156343    20.207905    20.930698    7256.5419    4918.4185    2138.5529    9080.3908    1376.6171   -1999.5801    1664.0269 
   64500    248.81518   -129.21323   -101.45752   -129.21323            0    5533.0514    17.102229    20.144166    20.864679    7188.0932    4932.0164     6415.953    5251.1849    2100.5085   -1593.8887    3470.1282 
   65000    239.88656    -130.1455    -103.3858    -130.1455            0    3692.0035    17.149165     20.19945    20.921941    7247.4377    2947.9065    3206.6704    4921.4334   -772.17118   -1032.1613   -2123.6453 
   65500    249.48354   -129.86813   -102.03787   -129.86813            0    6815.3311    17.117207    20.161808    20.882952    7206.9954    7341.3698    7435.9351    5668.6885   -5.3610274    2177.2529    1193.2154 
   66000    252.91041   -128.05229   -99.839758   -128.05229            0    5141.8749    17.086849     20.12605    20.845915    7168.7179    6810.4937    5687.5338    2927.5973   -1755.4758   -612.87493   -1457.2254 
   66500    251.92874   -128.78119   -100.67816   -128.78119            0    6136.3926    17.196047    20.254671    20.979137     7307.039     7748.448    5201.1611    5459.5688     96.46041    -2029.984    1205.9039 
   67000    248.08328   -129.35259   -101.67852   -129.35259            0    4696.5062    17.128089    20.174625    20.896228    7220.7491    6792.1766    4823.7887    2473.5533   -2505.9033    261.49026     400.5293 
   67500    252.73084   -130.45178   -102.25928   -130.45178            0    4918.0964    17.094747    20.135353    20.855551    7178.6635    2830.8154    7856.0771    4067.3968   -203.43339    1695.8612    -1347.822 
   68000    244.73321   -129.62856    -102.3282   -129.62856            0    5527.1349      17.2372    20.303144    21.029343    7359.6255    5282.3623    1412.0264     9887.016   -488.29929   -3299.1442    1773.0986 
   68500    259.11106   -130.87621   -101.97198   -130.87621            0    3801.8309    17.166358    20.219701    20.942916     7269.257    4410.9446    3745.2242    3249.3238   -805.51673    807.46254   -189.21701 
   69000    236.82748   -130.23487    -103.8164   -130.23487            0    4592.0521    17.190356    20.247967    20.972193    7299.7861    4881.1476    2862.3032    6032.7055    876.50418   -703.86149   -926.94925 
   69500    244.46051   -130.53423   -103.26429   -130.53423            0    8387.0549    17.060337    20.094822     20.81357    7135.4004     4491.683    8920.7058    11748.776    154.83969    -618.8693    1803.8958 
   70000    250.60751   -130.94496   -102.98932   -130.94496            0    5327.0602     17.15356    20.204627    20.927302    7253.0111    8542.5483     788.0143    6650.6178    1191.6821   -60.959096    496.09517 
   70500    245.28718   -130.00627   -102.64411   -130.00627            0    3488.2968    17.084991    20.123862    20.843649    7166.3798    238.98946    6292.6158    3933.2853   -3293.7426    1133.1161   -538.56421 
   71000    240.82339   -129.75289   -102.88868   -129.75289            0    7000.8553    17.091319    20.131315    20.851369    7174.3459    11763.982    2075.0944    7163.4894    1500.3602   -617.76899     486.2107 
   71500    250.83031    -131.4371    -103.4566    -131.4371            0    6643.7214    17.152743    20.203664    20.926305    7251.9744     6959.181     8721.576    4250.4072   -1692.0099   -984.52451    1508.9139 
   72000    268.16018   -129.37432   -99.460649   -129.37432            0    9209.2334      17.1206    20.165804    20.887091    7211.2823     7423.996    9399.6865    10804.018    2356.8772   -502.41061   -2261.0304 
   72500    257.78891   -130.31918   -101.56244   -130.31918            0    5939.8634    17.098873    20.140213    20.860585    7183.8633    7506.8419    3614.6579    6698.0904    2709.9186    1495.9791   -1666.5177 
   73000    245.23663   -130.48961    -103.1331   -130.48961            0    7743.0199    17.092436    20.132631    20.852732    7175.7526    7920.8836    11229.231    4078.9455   -1245.4198   -459.14243    246.33621 
   73500    247.40892   -129.70388   -102.10504   -129.70388            0     6648.473    17.078678    20.116426    20.835947    7158.4391    4423.3106    11202.995    4319.1139    1059.6618   -134.31068    900.08383 
   74000    251.42609   -130.70477   -102.65781   -130.70477            0    6078.0363    17.105553    20.148081    20.868734    7192.2852    9673.4345    2034.2201    6526.4542   -1169.4668    1168.0295    366.18548 
   74500    245.73218    -129.0738   -101.66201    -129.0738            0     4103.494    17.141269     20.19015    20.912308    7237.4317    4232.1293    4973.2677    3105.0849    2173.8116    875.02446   -1428.3623 
   75000    249.59292   -129.40852   -101.56605   -129.40852            0    9910.9364    17.121479    20.166839    20.888164    7212.3928    10117.811    10964.745    8650.2526    1285.7309    570.12468   -969.14763 
   75500    239.64867   -129.87057    -103.1374   -129.87057            0    6350.2769    17.099151    20.140541    20.860924    7184.2134    6224.9226    2526.4091    10299.499   -543.73719   -1008.9162    2861.6337 
   76000    254.79596   -130.97979   -102.55692   -130.97979            0    4578.9081    17.177501    20.232826     20.95651    7283.4221    8159.8129    24.372762    5552.5386    924.28247   -560.91301   -1894.6903 
   76500    232.73687   -131.81401   -105.85186   -131.81401            0    6064.2228    17.185583    20.242345     20.96637    7293.7075    5272.3257     7321.068    5599.2747    2234.8494    955.90803    1957.7037 
   77000    246.42358   -132.50794   -105.01901   -132.50794            0    8614.2865    17.148661    20.198857    20.921326    7246.7988     8570.198    7917.7417    9354.9198    1666.6337    1747.5482   -1383.6995 
   77500      245.518   -129.97518   -102.58728   -129.97518            0    4822.8591    17.136248    20.184236    20.906182    7231.0735     4009.387    6084.4493    4374.7409   -2899.4549   -2119.3391   -2107.6087 
   78000      262.802   -130.15765   -100.84169   -130.15765            0    6670.2867    17.146512    20.196325    20.918704    7244.0745    4561.2784    7476.6002    7972.9814   -1212.9356   -91.521445   -273.22941 
   78500    231.96717   -129.28912   -103.41283   -129.28912            0     110.8734    17.233381    20.298645    21.024684    7354.7345    1303.8785   -1022.4531    51.194858   -2347.4791   -1358.3963    2735.0941 
   79000    243.47362   -130.03259   -102.87274   -130.03259            0    7600.6382    17.168155    20.221817    20.945108    7271.5401    8261.6445     5624.503    8915.7672    1618.1682    1447.4424    761.67579 
   79500    263.87167   -129.57267   -100.13739   -129.57267            0    4934.3776    17.170563    20.224654    20.948046    7274.6009    5791.3298    7331.7106    1680.0922    1317.2996   -1291.6681   -1463.9759 
   80000    255.04528   -128.85144   -100.40076   -128.85144            0    6447.8948     17.14764    20.197654     20.92008    7245.5042    4604.9086     8832.458    5906.3179   -815.59567   -636.31166   -1532.1554 
   80500    251.01937   -129.39389    -101.3923   -129.39389            0    5684.3446    17.207904    20.268637    20.993602    7322.1648    6416.5432    6604.4662    4032.0244   -782.70892   -662.82926   -747.38297 
   81000    246.82802   -129.53568   -102.00164   -129.53568            0    6509.1727    17.110576    20.153998    20.874862    7198.6234    7681.3969    4415.4471    7430.6742   -731.72096   -2960.0032   -1151.0698 
   81500     252.4909   -130.29462   -102.12888   -130.29462            0     8428.659    17.142821    20.191978    20.914201     7239.398    9994.1176    8339.6203     6952.239   -494.37237    780.81362   -500.41816 
   82000    250.70343   -130.88369   -102.91734   -130.88369            0    5581.4415    17.179359    20.235015    20.958778    7285.7864    4778.1307    4469.5873    7496.6065   -16.238936    -1263.776    1059.1148 
   82500    253.71361   -128.63753   -100.33539   -128.63753            0    3231.2046      17.1925    20.250494     20.97481    7302.5188    4782.9698    2401.1041    2509.5399    917.29265    2653.9764    1591.9841 
   83000    261.89166   -129.31142   -100.09701   -129.31142            0    6125.0016    17.172277    20.226674    20.950138    7276.7799      8603.96    4275.4597    5495.5851   -178.95518    286.37522   -1661.5142 
   83500    249.49403   -129.24081   -101.40937   -129.24081            0    5092.6278    17.091445    20.131464    20.851522    7174.5043     2639.475    4031.0904     8607.318    701.73625    480.67031    501.70709 
   84000    270.79821   -129.58131    -99.37336   -129.58131            0    3834.0583    17.163846    20.216742    20.939851    7266.0666    3338.4346    3907.2552     4256.485   -1835.0681    2137.6446   -278.50909 
   84500    257.27065   -129.43953    -100.7406   -129.43953            0    5214.0993    17.135648    20.183529     20.90545    7230.3144    4942.2583     9527.791    1172.2485    1615.2095   -300.27773    1016.8456 
   85000    251.87162   -130.11643   -102.01977   -130.11643            0    6557.5288    17.169784    20.223737    20.947096    7273.6107     8209.088    5965.3049    5498.1936   -173.41956   -969.43407    715.55504 
   85500    253.10634   -128.36941   -100.13502   -128.36941            0    6100.1027    17.154687    20.205954    20.928677    7254.4407    5620.4252    6164.6608     6515.222   -1123.8742    2273.1509    3445.4995 
   86000    255.96828   -129.63656   -101.08291   -129.63656            0    5678.0729     17.10612    20.148749    20.869426    7193.0005    7450.5634    1529.9331    8053.7224   -127.91162    1029.4622   -2403.7868 
   86500    240.75064   -130.37772   -103.52162   -130.37772            0    4599.7273    17.184398     20.24095    20.964925    7292.1992    3295.7803    2653.5105     7849.891    862.17974    1432.8831     188.2757 
   87000    242.49567   -130.74986   -103.69911   -130.74986            0    6891.5717    17.138837    20.187285     20.90934    7234.3509    8509.2956    7741.0756    4424.3439   -1924.6874    1080.3437    860.87362 
   87500    249.06308   -129.96451   -102.18115   -129.96451            0    9325.2333    17.016351    20.043013    20.759908    7080.3519    8265.1691    8541.1422    11169.389    858.07998   -3995.1743   -1871.5928 
   88000     254.0185   -131.17787   -102.84172   -131.17787            0     5265.187    17.250809    20.319174    21.045946    7377.0711    8434.6748    5120.4522    2240.4339   -1357.4065    337.60975   -1213.0664 
   88500    242.54963   -130.26599   -103.20921   -130.26599            0     7228.937    17.170058     20.22406     20.94743    7273.9592    10111.071    6699.8907    4875.8496    2665.6878   -2395.2146    806.78991 
   89000    239.29146   -131.70173   -105.00841   -131.70173            0    7588.3697    17.127345     20.17375    20.895321    7219.8093     5616.426    4952.6825    12196.001   -794.07931   -2308.4454    1534.1317 
   89500    231.73143   -130.47544   -104.62545   -130.47544            0    3782.4013    17.166678    20.220078    20.943307    7269.6643    5750.4377    2762.3795    2834.3869    496.47546   -134.41572    1989.2169 
   90000     244.9443    -132.4223   -105.09839    -132.4223            0    7263.7023    17.155135    20.206482    20.929224    7255.0095    7064.1349    5571.2487    9155.7233     2321.376   -278.14887    2715.5191 
   90500    247.45697   -130.22876   -102.62457   -130.22876            0    5639.7432    17.150067    20.200513    20.923042     7248.582    6829.2608     4174.672    5915.2969    1852.0409   -3660.5301    1320.5608 
   91000    248.07167   -130.15411   -102.48134   -130.15411            0    7142.1088    17.174677      20.2295    20.953065    7279.8311    10535.901    5743.0334    5147.3916    1035.3179   -779.45512   -408.88911 
   91500    239.82384   -132.23903   -105.48632   -132.23903            0    4576.8062    17.182785     20.23905    20.962957    7290.1457    6761.1885    3257.8824    3711.3478   -20.679454    569.32134   -109.47306 
   92000    250.95761   -131.32603   -103.33133   -131.32603            0    5357.6059    17.108415    20.151452    20.872225    7195.8958    5862.0834    3806.5911    6404.1433    412.74623   -1372.8343    1264.7721 
   92500    243.90521   -130.99605   -103.78805   -130.99605            0    5871.2075    17.172164     20.22654        20.95    7276.6362    4327.3928    4918.7661    8367.4636    1110.7483    1606.0954     1939.822 
   93000    237.84827   -130.12015   -103.58782   -130.12015            0    5485.5846    17.247541    20.315324    21.041959    7372.8789     7986.337    3584.6161    4885.8006   -279.67383   -289.17333     15.60539 
   93500    245.63602   -130.18774   -102.78667   -130.18774            0    6744.9724    17.176971    20.232202    20.955864    7282.7483    6872.2994    9701.7189    3660.8989    2012.7809   -1781.9629    510.93477 
   94000    245.38811   -130.49765   -103.12423   -130.49765            0    7034.9673    17.118155    20.162924    20.884108     7208.193    6677.9342    4854.3821    9572.5856   -2702.7789    2698.4614     233.6051 
   94500     240.3788   -129.38832    -102.5737   -129.38832            0    4194.7783    17.185046    20.241713    20.965716    7293.0243    5041.3917    4362.8562    3180.0871   -3282.0175   -3137.7186   -675.05577 
   95000    240.26758    -130.6757   -103.87349    -130.6757            0     7141.792    17.164327     20.21731    20.940439    7266.6782    6773.5606    6392.2374    8259.5781    1273.7455   -58.652308    1627.2254 
   95500    242.21106   -129.43233   -102.41333   -129.43233            0    4532.4629    17.163537    20.216379    20.939475    7265.6749    3383.0566    6543.2401    3671.0919    408.70682    4370.4424   -1730.2963 
   96000    248.35194   -128.61977   -100.91574   -128.61977            0    3380.1906    17.207651    20.268339    20.993293     7321.841    1703.0431     6252.484    2185.0448   -1218.7751     2183.293    840.73456 
   96500    257.88953   -129.68401   -100.91604   -129.68401            0    7131.2489    17.178211    20.233662    20.957376    7284.3253    6618.3659    6231.2837    8544.0972    3692.7307   -1719.1673   -340.51161 
   97000    247.50852   -129.25252   -101.64258   -129.25252            0    5278.7025    17.172162    20.226537    20.949997    7276.6329    2568.1182    7988.6506    5279.3385   -1215.5298    2140.1618    722.68475 
   97500    251.73483    -129.5772    -101.4958    -129.5772            0    7195.6268    17.143996    20.193362    20.915635    7240.8869    7423.1095    8972.1547    5191.6162    2896.0718    952.60783   -340.11598 
   98000    251.34481   -131.07326   -103.03537   -131.07326            0    4148.3622    17.155225    20.206588    20.929334    7255.1235    652.59781    4274.4993    7517.9896   -537.20678    863.70644    639.66213 
   98500    252.46956   -130.29218   -102.12882   -130.29218            0    4744.7138    17.162226    20.214835    20.937876      7264.01    6009.5096    7380.0136    844.61812    1328.8683    970.17593    470.71691 
   99000    247.09983   -129.52572   -101.96136   -129.52572            0    6192.4711    17.227779    20.292047     21.01785    7347.5652    6997.1482    1196.7155     10383.55    -1092.047   -1334.3724   -2068.7471 
   99500    253.72387    -127.4582   -99.154915    -127.4582            0    5198.1572    17.130241     20.17716    20.898853    7223.4715    3727.2279    4326.4214    7540.8223   -236.22305    1385.9235    1793.3986 
  100000    253.71155   -129.59842   -101.29652   -129.59842            0    4232.7676    17.152264    20.203101    20.925722    7251.3681    726.51115    5494.7311    6477.0607   -1091.1333   -741.06392   -1937.9686 
  100500    244.84535   -127.80723   -100.49436   -127.80723            0    9420.9469    17.127586    20.174033    20.895614    7220.1136    9330.1391    8363.8218     10568.88    2079.3731   -3188.8455    1705.0509 
  101000     246.0486   -129.91247   -102.46538   -129.91247            0    5091.1194    17.191432    20.249236    20.973507     7301.158    5422.3204    2082.6922    7768.3458   -1744.0172   -1040.9287    2129.6294 
  101500    249.49369   -130.22321   -102.39181   -130.22321            0    7422.3192    17.101047    20.142774    20.863237    7186.6035    8672.9719    5136.8909    8457.0949    274.25887    1272.9064   -579.94028 
  102000    259.90433   -131.13292    -102.1402   -131.13292            0    6397.9203    17.166903    20.220343    20.943581    7269.9497    4575.1975    7004.3268    7614.2366    1257.1089   -1021.2301   -1219.6663 
  102500    253.12083   -131.07484   -102.83883   -131.07484            0    1012.3421    17.202785    20.262608    20.987358    7315.6324    1434.7517    699.82797    902.44672   -1532.4625    1455.1194    901.77784 
  103000    254.94567   -130.01831   -101.57874   -130.01831            0    7005.3692    17.164116    20.217061    20.940181    7266.4098    5906.5525    6655.5666    8453.9885    3937.4602     -4667.47    3135.5929 
  103500    250.63368   -131.17511   -103.21654   -131.17511            0    4468.0698    17.193678    20.251881    20.976247    7304.0199    7351.5126    2230.3919    3822.3047    2106.3707   -2413.3236   -181.21257 
  104000    250.17853   -129.48047   -101.57268   -129.48047            0    4908.7115    17.146922    20.196808    20.919204    7244.5939    4044.9571     1932.717    8748.4603    1408.0973    997.73664   -466.99404 
  104500     248.3852   -130.41452   -102.70678   -130.41452            0     722.3018     17.23883    20.305064    21.031332    7361.7135    531.05833     356.9364    1278.9107   -523.09707   -730.81867   -2530.6408 
  105000    257.62575   -129.44205   -100.70351   -129.44205            0    12264.743    17.158039    20.209902    20.932767     7258.694    15199.179     12073.39    9521.6592   -553.52035    56.549347    3301.4051 
  105500     254.9449    -129.0534   -100.61391    -129.0534            0    7054.8392    17.189134    20.246528    20.970702    7298.2296     5223.824    6726.1667     9214.527    1857.2183   -1439.2169    2280.8664 
  106000    247.12607    -128.9246   -101.35732    -128.9246            0    5895.9568    17.245297    20.312682    21.039222    7370.0024    6545.2226    6217.8621    4924.7858   -415.97377   -3213.8257    556.50529 
  106500    248.54637   -129.00155   -101.27583   -129.00155            0    9794.4825    17.137056    20.185188    20.907168    7232.0965    11739.493    8965.1833    8678.7712    3117.6468    545.11791    1171.2926 
  107000    243.49346    -128.6798   -101.51774    -128.6798            0    2954.0621    17.147072    20.196985    20.919387    7244.7844   -207.23218    6946.8868    2122.5316   -2725.9296    92.773918    16.052232 
  107500    250.39478   -129.72708   -101.79517   -129.72708            0    4348.3582    17.173213    20.227775    20.951279    7277.9691    5245.7438    2510.3286     5289.002    837.84808    862.46214   -1317.8932 
  108000    251.46537   -128.51944    -100.4681   -128.51944            0    4695.8926    17.188932    20.246291    20.970457     7297.973    5414.8036    3206.8952    5465.9791   -3148.5046    2211.8963     277.0632 
  108500    261.95656   -129.49187   -100.27022   -129.49187            0    6677.7325    17.117422    20.162061    20.883214     7207.267    8697.4511    7912.3617    3423.3846    293.89248   -1105.7984    771.48268 
  109000    242.52728    -129.2185   -102.16422    -129.2185            0    5573.2535    17.239432    20.305773    21.032067    7362.4855    6901.1984    5916.6636    3901.8986   -1938.8552    476.65957    1429.8537 
  109500    258.16234   -129.61059   -100.81219   -129.61059            0    4726.3081    17.181079    20.237041    20.960876    7287.9748    6523.1839    2348.0715    5307.6689   -57.631307   -2071.2762    1667.5572 
  110000    249.53709   -129.93582   -102.09959   -129.93582            0    7131.4531    17.197644    20.256552    20.981085    7309.0754      6984.46    7940.7592      6469.14    2303.1477    32.445334      723.444 
  110500    242.16094   -130.15534   -103.14193   -130.15534            0    7492.8404    17.186244    20.243125    20.967177    7294.5497     7538.138    8544.3069    6396.0764    1963.5591   -1491.4348   -201.39533 
  111000    245.21533   -129.32666   -101.97252   -129.32666            0    4182.6146    17.128951    20.175641     20.89728    7221.8403    4631.8962    4428.1987     3487.749    39.131189   -1266.3425   -3289.9153 
  111500     254.9662   -129.86802   -101.42616   -129.86802            0     7796.878    17.183435    20.239816    20.963751    7290.9739    6845.4948    10246.492    6298.6475    1675.2842   -660.85518   -1188.6283 
  112000    257.24404   -130.43095   -101.73499   -130.43095            0    3877.2091    17.207436    20.268086    20.993032    7321.5675    2586.8881    5457.7284    3587.0109     219.0692   -930.88259    965.00991 
  112500    246.65506   -130.66305   -103.14831   -130.66305            0    9197.6457    17.149159    20.199443    20.921934    7247.4305    10817.959    7834.7193    8940.2586   -1087.3249    120.90064   -1776.8587 
  113000    248.08234   -130.37328   -102.69932   -130.37328            0    3440.0262    17.162495    20.215152    20.938204    7264.3516    5374.8109    723.66308    4221.6046   -290.15385    622.93969    3626.7765 
  113500    243.77231   -129.63929   -102.44612   -129.63929            0    7204.9101    17.160755    20.213102     20.93608    7262.1419    7234.1073    7792.0753    6588.5477    1657.0403   -427.56939    -62.94518 
  114000    252.53699   -131.24455   -103.07367   -131.24455            0    6336.8915    17.174447    20.229229    20.952785    7279.5383    7318.0753    4480.6043    7211.9949   -1627.0594   -78.351586    822.46439 
  114500    248.00193    -128.6738   -101.00881    -128.6738            0     6479.684    17.204545    20.264681    20.989504    7317.8777    5226.8202    5836.3355    8375.8963    -342.6763   -2906.3401   -713.96654 
  115000    248.39011   -129.31919    -101.6109   -129.31919            0    7062.5677     17.12936    20.176122    20.897778     7222.357    8823.2579    5066.0455    7298.3997   -574.94153   -920.28467    23.077499 
  115500    253.37649   -128.95722   -100.69269   -128.95722            0    6804.6038    17.278605    20.351913    21.079857    7412.7875     4783.675    7623.9617    8006.1747    1099.8221    691.99003   -1358.9993 
  116000    249.45409   -129.93621   -102.10923   -129.93621            0    5461.7786     17.10456    20.146911    20.867523     7191.033    3808.1789    7703.5394    4873.6175    1414.5356   -767.81857    831.43418 
  116500    255.69341    -129.2932   -100.77022    -129.2932            0    7168.0797    17.122742    20.168327    20.889705    7213.9892    6607.0279    7174.6928    7722.5185    209.58979    2081.5508    2615.6217 
  117000    239.68034   -129.83391   -103.09721   -129.83391            0    8044.7299    17.178076    20.233504    20.957212     7284.154    11109.516    9466.3727    3558.3005    846.67315   -167.56828    2578.5236 
  117500    244.29161   -129.75297   -102.50187   -129.75297            0    5473.3917    17.153873    20.204995    20.927684    7253.4082    5710.6129    5929.9807    4779.5814      221.271    201.83822   -2419.4485 
  118000    246.69007   -130.22681   -102.70816   -130.22681            0    7261.2953    17.135086    20.182867    20.904764    7229.6023    5572.6829    7451.3979    8759.8053    214.84845     1682.815   -1177.5701 
  118500    246.31332   -128.84686   -101.37024   -128.84686            0     6735.892    17.090791    20.130694    20.850725    7173.6814    5510.2187    10675.243    4022.2144   -1450.0149    500.60337   -1066.9322 
  119000    250.02499   -130.81257    -102.9219   -130.81257            0    5422.3862    17.174701    20.229528    20.953094    7279.8613    3819.2115    3513.4281    8934.5189    1127.9678    98.429085     4293.314 
  119500    257.14374   -130.17214   -101.48737   -130.17214            0    9243.7239    17.170584    20.224678    20.948071    7274.6269    10967.087    5649.8941    11114.191    674.23616   -1485.2257   -1957.1131 
  120000    249.17424    -129.2319   -101.43614    -129.2319            0     6144.414    17.192297    20.250253    20.974561    7302.2591    4481.5861    6861.1237    7090.5322   -270.75393    273.04961    415.58385 
  120500    254.66518   -129.92684   -101.51855   -129.92684            0    7147.3224    17.141538    20.190467    20.912636    7237.7726    5676.1403    5944.9885    9820.8383   -1827.7752   -1303.5002    1693.6766 
  121000    257.30891   -130.66547   -101.96227   -130.66547            0    4889.1712    17.177107    20.232362     20.95603    7282.9214    3206.4143    5846.2705    5614.8287    2219.8703   -942.82753   -1548.0236 
  121500    244.06217   -129.43329   -102.20779   -129.43329            0    5058.8831    17.129271    20.176017     20.89767    7222.2442    9128.5456    1194.2677     4853.836   -63.008573    1595.4979    3622.4914 
  122000    259.51509   -129.94381   -100.99451   -129.94381            0    7968.3205    17.136685     20.18475    20.906715    7231.6261     7940.018    8077.5119    7887.4314   -1302.3998    536.01959    2436.4445 
  122500     258.9503   -128.99143   -100.10513   -128.99143            0    5154.2105    17.191944    20.249838    20.974131    7301.8099    3859.5448    4746.2658     6856.821    890.77159     1293.484   -366.10519 
  123000    254.54353   -130.16271     -101.768   -130.16271            0    6582.5111    17.107451    20.150316    20.871049    7194.6795    6327.2882    4875.5655    8544.6795    863.62617   -92.479226   -2738.1433 
  123500    249.81162   -130.36089   -102.49403   -130.36089            0    7083.0221    17.113687    20.157662    20.878658    7202.5511    4375.9557    10182.644    6690.4669    1673.7421   -685.56209    1674.9854 
  124000    247.63033   -130.16752   -102.54399   -130.16752            0    5381.9914    17.219213    20.281958    21.007399    7336.6106    7365.2476    1717.1725    7063.5542   -2540.5333    526.57506   -69.561171 
  124500    260.81066   -130.37969   -101.28587   -130.37969            0    7891.2754      17.1212    20.166511    20.887824    7212.0407    10647.037     7442.577    5584.2122   -1101.1113    -541.7773    979.04055 
  125000    253.58028   -129.03374   -100.74648   -129.03374            0    5014.0569    17.102463    20.144441    20.864964    7188.3881    7736.4919     1862.304    5443.3747    1970.4547   -2995.7699   -958.90818 
  125500    250.18409   -129.98324   -102.07483   -129.98324            0    1314.7082    17.205785    20.266141    20.991017    7319.4601    4802.7936   -2271.5097    1412.8407    1565.2555    1454.9623    1438.8476 
  126000    255.03371   -130.43403   -101.98463   -130.43403            0    6636.6686     17.15849    20.210434    20.933317    7259.2668    6617.8789     7056.527    6235.5997    1172.3342     22.81328   -318.30592 
  126500    247.87895   -132.24657    -104.5953   -132.24657            0    7179.6158    17.104021    20.146277    20.866865    7190.3534    5588.7377    7642.9122    8307.1975    773.87271    809.15693   -1432.5936 
  127000    248.94968   -130.75877   -102.98806   -130.75877            0    8122.0609    17.173392    20.227987    20.951498    7278.1974    9505.8139    4897.2013    9963.1674    2133.2628   -242.19442   -2385.1694 
  127500     249.5737   -129.56514   -101.72482   -129.56514            0    7026.1405    17.126771    20.173073     20.89462    7219.0827    11952.484    5690.5316    3435.4054   -964.42725    124.82417    1174.4231 
  128000    253.81466   -131.16187   -102.84847   -131.16187            0    8108.5105    17.101281    20.143049    20.863522    7186.8978    10862.007    6222.7114     7240.813   -2931.0002    1729.4184   -721.66264 
  128500    241.04118   -129.24385   -102.35534   -129.24385            0    7781.8184    17.108291    20.151306    20.872074    7195.7396    4766.9167    9331.4878    9247.0508    888.11469    -131.9196   -696.09743 
  129000    251.05697   -129.39426   -101.38848   -129.39426            0    10953.522    17.112274    20.155997    20.876933    7200.7663    12262.149    10072.495    10525.924   -1646.7772    1729.1854    1211.3243 
  129500    231.38415   -127.92157   -102.11032   -127.92157            0    7213.2056    17.137346     20.18553    20.907522    7232.4641    9559.4229    6705.6388    5374.5552   -1503.3761   -1720.2562     482.4026 
  130000      228.195   -128.97328   -103.51778   -128.97328            0    5821.4767    17.051852    20.084829    20.803219    7124.7599    5394.8847     5661.593    6407.9525    2169.7236    2878.0614   -281.47742 
  130500    251.17017    -130.9791   -102.96069    -130.9791            0      6271.04    17.085932     20.12497    20.844796    7167.5638    9728.1107     2500.263    6584.7461    999.17831    210.97933   -1224.6227 
  131000    241.38698   -131.46342   -104.53634   -131.46342            0    5687.2531    17.126017    20.172185      20.8937    7218.1291    6579.7785    2946.5941    7535.3867    661.39074   -1372.6229   -1356.8356 
  131500    236.52565   -131.17689    -104.7921   -131.17689            0    6983.2333    17.071234    20.107658    20.826865    7149.0822    4555.3844    10369.179    6025.1364   -1429.6386    1452.6167   -876.02147 
  132000    261.01996   -132.13723   -103.02006   -132.13723            0    6684.2087    17.084492    20.123274     20.84304    7165.7518      7654.48    3630.2406    8767.9054   -119.93416  -0.33552843   -402.53907 
  132500    264.85165    -131.6102    -102.0656    -131.6102            0    8062.1653    17.190113    20.247682    20.971897    7299.4774     8905.453    8828.7184    6452.3246    172.60644    1504.9662    1886.8156 
  133000    261.09394   -130.79792    -101.6725   -130.79792            0    5729.9277    17.165231    20.218374    20.941541    7267.8258    3523.1968    9777.4067    3889.1797   -209.81262    256.68155   -2633.4662 
  133500    246.71399   -129.59138   -102.07006   -129.59138            0    4246.6564    17.085142    20.124039    20.843832    7166.5692    7751.9147    1723.5693    3264.4851   -1988.5913   -206.89295    782.19002 
  134000      244.936   -132.72342   -105.40044   -132.72342            0     7905.714      17.0278    20.056498    20.773875    7094.6529    7253.8021    9411.4705    7051.8693    1638.9572   -2215.9131   -211.68759 
  134500     240.6054    -130.8807   -104.04081    -130.8807            0    2803.0606    17.183695    20.240123    20.964068     7291.305    5907.1093    200.11108    2301.9614    27.284463   -345.36716      2855.63 
  135000    238.03868   -130.60071   -104.04714   -130.60071            0    7832.6027    17.062488    20.097356    20.816195    7138.0998    6595.5509    7782.2736    9119.9836   -423.82642     1010.791    2348.3618 
  135500    250.77152   -131.27956   -103.30562   -131.27956            0    6528.8766    17.045523    20.077373    20.795497    7116.8288    10288.822    6623.0831    2674.7249   -3226.3047   -1195.6211   -1284.7073 
  136000    245.83329   -130.50364   -103.08057   -130.50364            0    5191.7856    17.067981    20.103826    20.822897    7144.9964    4323.4826    4282.6464    6969.2278    1297.8761    426.28473     751.7404 
  136500    250.37965   -131.01981   -103.08958   -131.01981            0    4146.5823     17.12802    20.174544    20.896144    7220.6626    5790.1438    1657.0836    4992.5193   -704.31967   -2133.9002   -760.36842 
  137000    251.71783   -131.61804   -103.53853   -131.61804            0    5240.8368     17.05397    20.087323    20.805803    7127.4151    7580.7419    7262.9219    878.84662   -327.44823     641.7005    790.21857 
  137500    262.73329   -131.10478   -101.79648   -131.10478            0    4728.6157     17.17494    20.229809    20.953386    7280.1648     2441.054    6814.0429    4930.7503    70.954753    1524.7887   -414.56795 
  138000    245.51275   -130.76457   -103.37726   -130.76457            0    6858.6627    17.128846    20.175517    20.897151    7221.7068    6717.3548    8358.1033      5500.53    2771.4755    323.98086   -1871.5877 
  138500    241.07098   -130.08461   -103.19278   -130.08461            0    6810.6108     17.01707    20.043859    20.760785    7081.2495    3898.2494    10313.101    6220.4816    514.31952    939.21117   -687.51546 
  139000    241.75313   -132.08062    -105.1127   -132.08062            0    5254.1055    17.164016    20.216943    20.940059    7266.2827    7351.8247    5054.1381    3356.3536    308.38212    2079.2617    472.39301 
  139500    245.66518   -131.25267   -103.84835   -131.25267            0    8404.1737    17.099804    20.141309     20.86172    7185.0358    6382.9032     10161.17    8668.4474   -1985.8035    2243.5572   -1667.8705 
  140000    253.47413   -131.20078   -102.92536   -131.20078            0    879.35126    17.153544    20.204608    20.927283    7252.9913   -1870.2172     865.9985    3642.2725   -2053.1725    573.69819     198.4656 
  140500    259.09021   -131.16128   -102.25938   -131.16128            0    6665.9711    17.145136    20.194704    20.917025    7242.3306    6442.4512    8166.6729    5388.7893   -354.17802    211.96767    319.72882 
  141000    234.90603   -129.31582   -103.11169   -129.31582            0    3725.4986    17.149251    20.199551    20.922045    7247.5466    -1015.823    6997.5609    5194.7579    2417.2441   -1313.8282   -735.03409 
  141500    244.79546   -131.03554   -103.72824   -131.03554            0    9757.9701     17.12619    20.172388    20.893911    7218.3477    6582.8597    12003.964    10687.087   -33.244561    1189.6646   -423.66444 
  142000    249.69227   -131.18922   -103.33567   -131.18922            0    3799.9843    17.167306    20.220818    20.944073    7270.4622    3947.5207     4424.015     3028.417   -2212.7701     170.5669   -1100.3437 
  142500    262.55872   -130.85184   -101.56302   -130.85184            0    5833.8804    17.108023     20.15099    20.871747     7195.401    4608.6941    5904.1713     6988.776    172.39116    276.11968     222.3361 
  143000    260.69815   -131.27451   -102.19324   -131.27451            0     2950.708    17.211264    20.272595    20.997701    7326.4545    1077.6719     1815.748    5958.7041   -784.43339    1242.4806    39.464543 
  143500    253.25465   -130.57756   -102.32662   -130.57756            0     3360.715      17.1103    20.153672    20.874525    7198.2748    4374.2888    427.32255    5280.5336   -1084.1562    1483.8852   -1670.1145 
  144000    256.90874   -131.04065    -102.3821   -131.04065            0    7396.4386    17.078026    20.115657    20.835151    7157.6184    6696.1264    5524.0531    9969.1365   -2289.6077   -72.758662    2918.5348 
  144500    246.06144   -129.73264   -102.28411   -129.73264            0    4126.7234    17.139224    20.187741    20.909813    7234.8419    3353.1398    4552.7189    4474.3116    567.10496   -1199.6273    1284.5405 
  145000    253.50524    -129.2995   -101.02061    -129.2995            0     8026.646    17.087969    20.127369    20.847281    7170.1274     6662.004    11227.186    6190.7482    58.767379   -1451.9111   -1442.2711 
  145500    258.51892   -130.41748    -101.5793   -130.41748            0    7057.9435    17.106256    20.148909    20.869592    7193.1722    10025.482    4770.2642    6378.0846    347.75938    1649.1179   -2394.5662 
  146000    250.26884   -131.10326   -103.18539   -131.10326            0    4097.2828    17.154145    20.205317    20.928017     7253.754    1951.9185    3577.6663    6762.2634   -204.73758   -134.50658   -1466.4172 
  146500    249.12503   -131.50649   -103.71622   -131.50649            0    5245.9777     17.10704    20.149832    20.870548    7194.1612    4602.4474    7613.7309    3521.7549   -577.58444    466.14562   -965.09743 
  147000    247.44485   -130.62242   -103.01957   -130.62242            0    7665.6413    17.110725    20.154173    20.875044    7198.8113    8608.5098    7614.6023    6773.8117   -706.76476    -756.4177    832.90488 
  147500    250.84497   -130.64929   -102.66716   -130.64929            0    8365.8557    17.092576    20.132796    20.852902    7175.9288    8467.9496    10873.549    5756.0684   -10.476096    1639.8575    -2076.917 
  148000    242.58924   -129.94364   -102.88245   -129.94364            0    5223.8628    17.117386    20.162019     20.88317    7207.2216    3827.4859    5795.3352    6048.7674    1032.7734    260.11415    929.50117 
  148500    248.36542   -130.48438   -102.77884   -130.48438            0    4711.8573    17.093463     20.13384    20.853984    7177.0457    4413.3308    5446.7875    4275.4535   -1548.8606    1750.7234     1947.606 
  149000    252.73875   -128.60516   -100.41177   -128.60516            0    5989.0518    17.088479     20.12797    20.847904    7170.7697    4944.4724    7506.1694    5516.5136   -3191.4446    2263.0374   -2168.1623 
  149500    263.95786   -129.76287   -100.31797   -129.76287            0    7836.7614    17.036938    20.067262    20.785024    7106.0818    8450.4216    9829.7368    5230.1259   -1834.3647    1595.1712   -2309.5183 
  150000    249.25414    -130.3686   -102.56393    -130.3686            0    6790.9782    17.063647    20.098722    20.817609    7139.5552    8761.0815    7656.8338    3955.0194    2555.2929   -1238.1904     1682.834 
  150500    249.88636   -130.82444   -102.94924   -130.82444            0    5650.5991     17.08663    20.125792    20.845648    7168.4421    3975.7391    5894.1176    7081.9406   -2317.4975    771.62528    241.81647 
  151000     251.2359   -128.95134    -100.9256   -128.95134            0    5720.1616    17.058987    20.093233    20.811924    7133.7072    6863.7291    5302.1164    4994.6394    208.21483    3259.5525    1776.1721 
  151500    251.54808   -130.18921   -102.12865   -130.18921            0    7311.4119     17.08159    20.119856      20.8395    7162.1016    9044.9598    3416.9303    9472.3455   -3089.5485    1552.2305   -968.13274 
  152000    247.86105   -129.81872   -102.16945   -129.81872            0    4863.6476    17.126218    20.172422    20.893946    7218.3839    2696.9363    7451.6567    4442.3498   -1142.8743    1355.5179    13.989386 
  152500    256.60814   -131.59748   -102.97246   -131.59748            0     8317.299    17.040565    20.071534    20.789449    7110.6214    11117.704    9284.6197    4549.5732   -1820.1431    470.74868   -311.30432 
  153000    248.16546   -129.96032   -102.27709   -129.96032            0    7299.4259    17.092684    20.132923    20.853034    7176.0642    5716.9634    7503.5935    8677.7208    880.46918    2777.8247    -1375.703 
  153500    253.52558   -130.66927   -102.38811   -130.66927            0    7216.5697      17.1527    20.203614    20.926254    7251.9207    6162.1595    10402.594    5084.9556   -186.21898    1383.2066     2294.086 
  154000    246.00641   -129.91052   -102.46814   -129.91052            0    6927.2003    17.056512    20.090317    20.808904    7130.6021    5770.1829    3400.9893    11610.429   -233.69509    2597.2779    282.25732 
  154500     246.3928   -130.65275   -103.16726   -130.65275            0    3815.9224    17.119272    20.164241    20.885472    7209.6047    2963.0837     1129.438    7355.2455    2604.5186    651.80916   -173.69408 
  155000    240.96263   -130.00993   -103.13018   -130.00993            0    8031.6295     17.02653    20.055003    20.772326    7093.0662    8007.1022    7460.4369    8627.3492   -1478.9534    181.14202   -2774.9201 
  155500    261.27281    -132.2403   -103.09492    -132.2403            0    7047.2604    17.084021    20.122719    20.842465    7165.1591    7510.1529    8559.0742    5072.5541    896.73134    1409.1425     1227.209 
  156000    239.98987   -130.49538   -103.72415   -130.49538            0    3458.7556    17.154504    20.205739    20.928455    7254.2091    5317.4752    1619.4597     3439.332   -1708.2881   -836.76312   -1971.4973 
  156500    236.35351   -130.29006   -103.92447   -130.29006            0    8031.8128    17.092621    20.132848    20.852957     7175.985    6036.5388    8615.3238    9443.5757    108.25505   -183.29146   -391.21221 
  157000    236.27371   -130.15965   -103.80296   -130.15965            0    8671.2833    17.050003     20.08265    20.800963    7122.4422     9277.957    6832.8583    9903.0345    275.99062   -2939.8668    2151.4852 
  157500     238.8095   -131.66251   -105.02295   -131.66251            0    3719.4883    17.149183    20.199471    20.921963    7247.4606    3867.1199    4579.7239    2711.6211    2501.4837    1606.7844   -1430.7641 
  158000    253.56963   -131.57745   -103.29138   -131.57745            0    7629.9668    17.097801     20.13895    20.859276     7182.511    12166.973    4577.7356    6145.1915    -3544.845   -2509.9563    1204.1348 
  158500    258.68803   -131.94883   -103.09179   -131.94883            0    4884.5846    17.045756    20.077648    20.795782    7117.1216    3062.3749     4736.059    6855.3199    2705.5349    452.12375   -1869.4428 
  159000    255.92898   -132.16915   -103.61988   -132.16915            0    7829.4451    17.147966    20.198038    20.920478    7245.9177    9057.1643    10661.297    3769.8738   -314.57049    433.46507    110.27348 
  159500    253.69347   -129.57751   -101.27762   -129.57751            0    4568.1993    17.095864    20.136668    20.856913    7180.0701    5985.4173    5143.3736     2575.807   -398.73769   -2236.8291   -662.91137 
  160000    249.48937   -129.99952    -102.1686   -129.99952            0    7508.4363    17.054767    20.088261    20.806775    7128.4137    8647.3983    8169.3338    5708.5768   -1752.2908   -788.36538   -2686.7393 
  160500    248.25228   -130.29024   -102.59732   -130.29024            0    8174.0824    17.094846     20.13547    20.855672    7178.7883    5494.9052    8934.9416      10092.4    1411.5748    451.06524    3410.3538 
  161000    250.02978   -129.84182   -101.95062   -129.84182            0    4558.8642    17.119983    20.165078    20.886339    7210.5029    2864.5669    6408.3163    4403.7092    1117.6315   -1411.8115    372.94656 
  161500    246.33446   -129.78894   -102.30996   -129.78894            0    6197.0189     17.08455    20.123342     20.84311    7165.8245     9952.921    4465.4654    4172.6702    313.46777   -105.28398    543.07895 
  162000    238.67824   -128.05199   -101.42707   -128.05199            0    5325.1036     17.05854    20.092706    20.811378    7133.1461    5565.1003    8100.8011    2309.4094   -1343.1848   -1737.7864    2239.2696 
  162500     241.1122    -129.2285   -102.33207    -129.2285            0    6037.8154    17.124467    20.170359    20.891809      7216.17    4366.0319    5303.8971    8443.5172   -2497.5193    3565.4162    672.10566 
  163000    253.29494   -130.16154   -101.90611   -130.16154            0    4749.9988    17.083583    20.122203    20.841931     7164.608    6616.5804    4213.6572    3419.7589   -2771.3259    1889.2337    1050.9384 
  163500    251.60016    -130.4035   -102.33713    -130.4035            0    4728.1468    17.088773    20.128317    20.848263    7171.1402    3317.9546     6616.914    4249.5717   -293.33291   -1214.0381   -1288.4235 
  164000    250.97423   -129.91949   -101.92293   -129.91949            0    9937.4141    17.084921     20.12378    20.843564     7166.292    9924.1855    10373.325    9514.7322    206.29808   -906.09351    2077.3765 
  164500    252.58298   -130.74498   -102.56897   -130.74498            0       6701.3    17.085713    20.124712     20.84453    7167.2886    4359.5123    5435.5823    10308.805   -2304.7681   -729.48334    1514.6157 
  165000    256.45326   -131.14216   -102.53441   -131.14216            0    3666.6614    17.160251    20.212508    20.935466    7261.5025    2804.8144    5186.9013    3008.2685    2379.7935    2617.1852    746.36875 
  165500    250.99124   -130.25362   -102.25517   -130.25362            0    4531.3057    17.049335    20.081864    20.800149    7121.6054    3699.1507    2850.7395    7044.0269   -737.74659   -231.44873   -2278.3287 
  166000    255.40091   -129.48132   -100.99097   -129.48132            0    3294.9163    17.091385    20.131393    20.851449    7174.4287    3577.3305    3419.2611    2888.1573    18.430486   -1496.1793    1252.3853 
  166500     253.7059   -131.50527   -103.20399   -131.50527            0    3365.5209    17.138384    20.186752    20.908788    7233.7784    2389.9933    4020.8388    3685.7308   -1367.5233    1522.2417    592.96452 
  167000    237.60635   -130.23914    -103.7338   -130.23914            0    9037.6761    17.018334    20.045348    20.762327    7082.8277    7707.2022    6864.6102    12541.216   -795.66786   -1368.4893   -1076.8955 
  167500    241.00494   -130.69291   -103.80844   -130.69291            0    4895.8746    17.133788    20.181338    20.903181    7227.9598    7312.6303    4177.0491    3197.9443   -443.46128   -606.58807    166.94815 
  168000    245.91878    -129.6971   -102.26449    -129.6971            0    7750.7732    17.059536    20.093879    20.812594     7134.396    7873.7089    6178.2752    9200.3355    383.47148   -1150.7812   -1023.8201 
  168500    237.74137   -129.45636   -102.93595   -129.45636            0    4980.8346    17.124393    20.170272    20.891719     7216.076    7936.6819    3235.5543    3770.2676   -264.71074   -567.16983   -830.80576 
  169000    254.06164   -128.58641   -100.24545   -128.58641            0     7104.186    17.096592    20.137526    20.857802    7180.9879    10294.314    5107.8719    5910.3724   -3181.0871   -349.73714   -1668.3461 
  169500    244.74673   -128.93017   -101.62831   -128.93017            0    4543.7491    17.054017    20.087379    20.805861    7127.4743    6183.1272    3108.5696    4339.5506   -553.10132    1302.6689   -190.02149 
  170000    249.68449   -128.32981   -100.47713   -128.32981            0    2897.1101    17.195432    20.253947    20.978386    7306.2552    4854.2671    3561.9818    275.08149    -3059.073   -1004.8772   -689.00699 
  170500    241.92789   -130.16541   -103.17799   -130.16541            0    5310.2542     17.10558    20.148113    20.868767    7192.3198    4784.1118    5529.3426    5617.3081    90.356177    780.65448     1961.003 
  171000    241.10979   -129.63146    -102.7353   -129.63146            0    7400.7557    17.064064    20.099212    20.818118    7140.0782    7716.2071    7165.6756    7320.3843    1896.9666    629.46438   -537.70577 
  171500    246.03928   -129.83292   -102.38687   -129.83292            0    4412.6208    17.149502    20.199847    20.922351    7247.8644    3886.5812    3546.3545    5804.9268   -1050.4395    797.44889    212.92657 
  172000    257.17372   -130.61355   -101.92543   -130.61355            0    4531.7553    17.110797    20.154258    20.875132    7198.9022    6342.4219    6926.3455    326.49859    1594.1408   -1952.7766    1158.4483 
  172500    255.50309   -128.71939   -100.21764   -128.71939            0    5711.0317    17.129606    20.176412    20.898079    7222.6685    6575.6049    3717.0068    6840.4834    1762.5637    141.33735    1005.6489 
  173000    258.61058    -130.3153    -101.4669    -130.3153            0     7231.939    17.039013    20.069705    20.787555    7108.6779    7817.7501    7594.2519    6283.8151   -1142.5431   -2932.5865    1240.1234 
[...]
  958500    235.22345   -132.06247   -105.82294   -132.06247            0    4871.0607     17.04005    20.070927     20.78882    7109.9759    5567.9375    7203.4898    1841.7549    1324.5068    196.73481     1369.626 
  959000     245.3501   -131.91923   -104.55006   -131.91923            0    8602.0308    17.003739    20.028157    20.744521    7064.6201    13487.644    5405.7254    6912.7236    2976.9823   -161.29478    715.53011 
  959500    251.58462   -131.55184    -103.4872   -131.55184            0     8164.786    16.961969    19.978958    20.693562    7012.6854    6098.3352    8084.9476    10311.075    200.13536   -906.60628    563.61681 
  960000    242.16545   -132.32429   -105.31037   -132.32429            0    2049.0826    17.032845    20.062441    20.780031    7100.9613   -1018.3064    7885.0902   -719.53591   -687.58497    1291.5865    1645.9134 
  960500    243.56792   -132.74296   -105.57259   -132.74296            0    9345.1139    16.961202    19.978055    20.692626    7011.7341    11000.231      7671.73    9363.3804   -1479.3076    1516.5102   -1407.5975 
  961000    241.02899   -130.97009   -104.08294   -130.97009            0    5508.0909    17.088727    20.128262    20.848206    7171.0816    5601.5974    7915.2761    3007.3991   -1256.4362    567.07508    150.16009 
  961500    250.02643   -132.03303   -104.14221   -132.03303            0    4748.5783    16.968451    19.986593     20.70147    7020.7284     5924.038    6153.4393    2168.2575   -152.04009    899.65643    2414.5154 
  962000     261.8829    -132.7182   -103.50476    -132.7182            0    7592.8054    17.027469    20.056108    20.773471    7094.2391    6709.5999    7501.3494     8567.467    2200.1203   -1190.4095   -1039.0306 
  962500    252.61549   -131.62973   -103.45009   -131.62973            0    5976.4116     17.02729    20.055898    20.773254    7094.0163      4290.94    3710.6336    9927.6612    2086.7881    1325.8722    79.117046 
  963000    244.95473   -132.35217    -105.0271   -132.35217            0    4261.0095    17.048975    20.081439    20.799709    7121.1538    2854.3809    4183.0157    5745.6318   -931.81267    -1426.912    523.95868 
  963500    251.67942   -132.09333   -104.01812   -132.09333            0    6114.3527    17.143995     20.19336    20.915633    7240.8847    4443.1853    6336.7414    7563.1314     294.2359   -417.42496   -1748.5638 
  964000    240.86677   -131.83433   -104.96528   -131.83433            0    6855.0781     17.00186    20.025944    20.742229    7062.2786    2612.0203    9273.9748     8679.239   -882.37683    229.96154   -436.09938 
  964500    253.60319   -131.85411   -103.56429   -131.85411            0    5690.5412    17.002259    20.026414    20.742715    7062.7758    7004.5467     1317.341    8749.7359       535.79    -1630.011   -920.99547 
  965000    250.10814   -131.82005   -103.92011   -131.82005            0     2413.015    17.118157    20.162927    20.884112    7208.1964    3076.8045     1238.147    2924.0934    2316.7147   -3065.0543   -35.655147 
  965500     254.8435   -131.65973   -103.23156   -131.65973            0    8849.7248    17.036181     20.06637      20.7841     7105.134    9777.9545    6892.6558    9878.5639   -456.10019    715.69704   -2178.4809 
  966000    254.90902   -131.23195   -102.79647   -131.23195            0    5177.6136    17.039137    20.069852    20.787707    7108.8336    8249.3881    4446.0984    2837.3544    1608.1481    1629.7117    528.01996 
  966500    266.14747   -131.12564   -101.43649   -131.12564            0    8359.5372    17.057017    20.090912     20.80952    7131.2358      9425.78    10125.423     5527.409    2596.0015    1536.5829   -1151.1774 
  967000    247.11873   -130.76445   -103.19798   -130.76445            0    4364.9975      17.1036     20.14578    20.866351    7189.8216    5198.2826     3050.262    4846.4479    1167.8037   -1000.5381   -1612.4424 
  967500    244.06615   -131.99062   -104.76467   -131.99062            0    2958.8647    17.066254    20.101792    20.820789    7142.8273     2131.123    2318.7572    4426.7139    610.81622   -2103.0744    -2217.696 
  968000    249.30224    -130.6282   -102.81816    -130.6282            0    7712.7691    17.011238    20.036991    20.753671    7073.9722    10315.565    5542.3319    7280.4103    -2378.656   -62.158158    528.31752 
  968500    235.25596   -132.06911   -105.82595   -132.06911            0    5139.0142    17.070816    20.107166    20.826355    7148.5574    4913.5994    5166.4291    5337.0139   -1039.4467    3198.4883   -787.99808 
  969000    257.47108   -131.82689    -103.1056   -131.82689            0    8382.2496    17.133837    20.181396    20.903241     7228.022     11997.44    8391.9392    4757.3692   -159.08295    1367.7276   -583.65437 
  969500    240.50369   -130.82946   -104.00091   -130.82946            0     5017.295    17.046888    20.078981    20.797163    7118.5392    4850.3579    4542.9902    5658.5369   -765.97194   -655.47538    -928.4578 
  970000    253.66107   -130.17995   -101.88367   -130.17995            0    5595.1152    17.047642    20.079869    20.798083    7119.4834    4880.8833    6997.2577    4907.2045    1091.4726    1806.2347    814.91946 
  970500    253.91102   -131.77698   -103.45283   -131.77698            0    5155.8177    17.017702    20.044604    20.761556     7082.039    5601.6806    3567.7595    6298.0129    3186.7396    621.39476   -4836.5945 
  971000    239.11872   -133.23454   -106.56049   -133.23454            0    7068.6512    17.048466     20.08084    20.799088    7120.5161    6186.3017    5720.3281    9299.3238   -378.51463   -1614.4497    413.89714 
  971500    240.66212   -131.55396   -104.70774   -131.55396            0    786.05089    17.023224    20.051108    20.768293     7088.935   -1253.6032    72.321173    3539.4347    384.56471   -660.54279   -2719.4753 
  972000    259.55924   -131.80429   -102.85007   -131.80429            0    5049.4529    17.040846    20.071864    20.789791    7110.9723    4207.4821    2925.7026    8015.1741   -1404.0006   -9.4278697   -133.92989 
  972500    233.28058   -130.29021   -104.26741   -130.29021            0      5868.73     17.11292    20.156758    20.877721    7201.5816    5358.1631    5875.7347    6372.2921    1343.1849    2523.5988    -97.01431 
  973000    255.26528   -132.40298   -103.92776   -132.40298            0    8351.1287     17.00581    20.030597    20.747048    7067.2022    6667.6768    7432.7438    10952.966   -3485.0036     1912.178     583.8991 
  973500    255.28816    -130.9053   -102.42752    -130.9053            0    4642.9849    17.075482    20.112661    20.832047    7154.4204     8488.117    2620.2591    2820.5788   -3322.7885    1223.7162    1180.3206 
  974000    243.76537    -131.3402   -104.14781    -131.3402            0    9171.7465    17.046866    20.078955    20.797136    7118.5115    9120.1185    7530.3278    10864.793    385.24558    3123.9052   -162.81651 
  974500    240.39432   -131.43662   -104.62027   -131.43662            0    4387.1504     17.03634    20.066558    20.784295    7105.3339    4215.5732    5142.7934    3803.0845   -2180.3119   -1366.3257   -3358.3923 
  975000    241.22893    -130.9529   -104.04345    -130.9529            0    8238.4675    17.013067    20.039145    20.755901    7076.2537    3742.3357    11047.891     9925.176    994.94616   -198.32902     919.4089 
  975500    245.34558   -132.91158   -105.54292   -132.91158            0    5257.9629    17.067755     20.10356    20.822621    7144.7124    7490.6672    3024.2648    5258.9568   -1086.8419    1530.0866       -908.4 
  976000    248.83922   -132.35628   -104.59789   -132.35628            0    5616.8312    16.994063     20.01676    20.732717    7052.5671    5108.9857    8157.7608    3583.7472    86.787959     2497.197    51.707782 
  976500    246.93355   -131.87293   -104.32712   -131.87293            0    8047.6788    17.059204    20.093489    20.812189    7133.9798    8169.6976    11985.391    3987.9475    443.91532   -1319.0799   -320.26367 
  977000    259.98084   -130.69886   -101.69761   -130.69886            0    3903.0166    17.001462    20.025475    20.741743    7061.7824    241.46137    5203.9289    6263.6595   -2024.3395   -821.26512   -3513.7352 
  977500    247.24951   -131.32504   -103.74399   -131.32504            0    8460.4863    17.025648    20.053963     20.77125    7091.9637    8921.8868     8391.389    8068.1829   -1031.7954    1373.9416    83.437304 
  978000    258.39022   -131.26818   -102.44436   -131.26818            0    4051.4268     17.06082    20.095391     20.81416    7136.0067    584.07439     8211.902    3358.3039    201.76791    2530.1316    2470.9156 
  978500    252.05905   -131.06195   -102.94439   -131.06195            0    8173.7219    16.962351    19.979409    20.694029    7013.1597    4166.8285    8859.8036    11494.534   -125.21726   -516.90207   -1419.4989 
  979000    248.98618   -132.00439    -104.2296   -132.00439            0     3292.374    17.070164    20.106398     20.82556    7147.7384    2607.9869     2511.664    4757.4711    13.711363   -429.80507     1152.842 
  979500    256.22242   -133.40899   -104.82699   -133.40899            0    6947.1471    17.040192    20.071095    20.788994    7110.1542    6919.7863    8710.8571    5210.7977    -670.8501    999.81187    1459.1798 
  980000    253.42298    -131.6803   -103.41059    -131.6803            0    10877.119    16.972258    19.991077    20.706115    7025.4547    9016.6459    11379.997    12234.715   -1839.0924   -1628.0456   -2134.2073 
  980500    249.18697   -133.33391   -105.53673   -133.33391            0    3788.0057    17.087566    20.126895    20.846791    7169.6211    2335.1735    6560.6074    2468.2362   -2174.0925    1280.7297    929.40767 
  981000    243.45946   -130.38552   -103.22725   -130.38552            0    6412.9739    16.969046    19.987293    20.702195    7021.4662    9576.7401     3196.149    6466.0326    2297.0783    2309.6847   -2567.6769 
  981500    239.28826    -131.7182   -105.02523    -131.7182            0    5775.6889     17.02366    20.051622    20.768825    7089.4798    2746.0865     12478.01    2102.9699   -1048.2215     720.9384    46.113325 
  982000    255.51085   -130.54996   -102.04735   -130.54996            0     3308.781    17.041448    20.072574    20.790527     7111.727    1265.4229    6892.0194    1768.9007   -4456.9911    1033.5889    4739.9092 
  982500     255.8225   -130.48231   -101.94492   -130.48231            0    9138.5976    17.025264    20.053512    20.770782    7091.4846    11268.678    8604.8524    7542.2623    1474.4598    2152.6963   -1107.9043 
  983000    251.59281   -130.91956   -102.85401   -130.91956            0    3759.4952    17.087474    20.126786    20.846677    7169.5043    2516.5725    2950.8259    5811.0871   -48.845336   -2849.7914   -300.20651 
  983500    240.85926   -132.99214   -106.12393   -132.99214            0    8025.9814    16.952284    19.967551    20.681747    7000.6802    7447.4222    10817.193    5813.3287   -740.30496    1505.8595    2278.9753 
  984000    238.45298    -131.5565   -104.95671    -131.5565            0    5735.2148    17.074661    20.111695    20.831047    7153.3893    7181.4663    5044.3208    4979.8573    1931.0915   -1320.4964    -544.7145 
  984500    243.69405   -132.35278   -105.16835   -132.35278            0    9588.5546    16.979705    19.999849      20.7152    7034.7065    8897.1756    11891.468    7977.0204   -1812.2475    203.62534    560.89425 
  985000    239.90194   -131.60877   -104.84735   -131.60877            0    10165.593    17.029272    20.058232    20.775672    7096.4937    11005.236    11662.631    7828.9118    527.91275    1420.2948    976.94482 
  985500    241.82674   -132.89014     -105.914   -132.89014            0    7661.1892    17.046001    20.077936    20.796081    7117.4278    3018.9182     10468.32    9496.3292   -87.545703    922.35883    -2935.685 
  986000    254.17301   -132.02578    -103.6724   -132.02578            0    9728.3637    17.010779     20.03645     20.75311    7073.3995     9740.863    11310.047    8134.1811    501.94542   -1930.4463     233.9871 
  986500    255.93036   -132.73814   -104.18872   -132.73814            0    5058.5617    17.077913    20.115525    20.835013    7157.4766   -412.87644    9344.3105     6244.251   -591.08954    428.65601    25.540233 
  987000    240.71906   -132.28258      -105.43   -132.28258            0    7653.6158    17.044706    20.076411    20.794501    7115.8059     8557.751     4699.085    9704.0115   -595.73941    2505.1397    1257.0799 
  987500    238.97378   -131.05452   -104.39664   -131.05452            0    6050.5892    17.004725    20.029318    20.745724    7065.8491    4978.8343    8640.8388    4532.0945    2878.1818    792.92866   -1196.2977 
  988000    251.97785   -132.55814   -104.44963   -132.55814            0    9721.0732    17.053921    20.087266    20.805744    7127.3538    8278.2388    11168.315    9716.6657    234.27904    3098.9708    1675.2933 
  988500    250.16761   -131.29071   -103.38413   -131.29071            0    7170.6911     17.00714    20.032163     20.74867    7068.8606     2663.855    8649.3187      10198.9    204.53558    823.54224   -712.72298 
  989000    249.94381   -130.97086   -103.08925   -130.97086            0     7542.785    17.069672    20.105818    20.824959    7147.1202    6914.8131    10143.731    5569.8112    786.56779    283.24734    1099.0304 
  989500    250.47687   -131.48582   -103.54475   -131.48582            0    4735.7835     17.07708    20.114544    20.833998    7156.4299    2531.7188    6588.1105    5087.5214   -400.24304   -100.15336   -1611.9172 
  990000    262.55448   -131.40049   -102.11215   -131.40049            0    8226.2102    17.031584    20.060955    20.778492    7099.3837    8172.8272     10505.82    5999.9835    2209.4359    721.96729   -2375.2487 
  990500    239.38377   -131.33454   -104.63092   -131.33454            0    2508.8015      17.1092    20.152377    20.873184    7196.8871    7172.3402    333.06572    20.998463    3176.5241    1777.2048     2652.101 
  991000    246.43658   -131.38995   -103.89958   -131.38995            0    5342.3617    17.061017    20.095623      20.8144    7136.2538    3422.1136    5427.3529    7177.6184    2954.1539    1848.0714   -993.83078 
  991500    257.86073    -131.2609   -102.49614    -131.2609            0    5384.6319    16.987267    20.008756    20.724425    7044.1094    6622.2736    1925.4373    7606.1847    194.84023    2828.9473     -1281.34 
  992000    246.78888   -131.27344   -103.74377   -131.27344            0    2800.4859    17.002531    20.026735    20.743047     7063.115    5056.0623    2776.3273    569.06825    2960.5287   -1202.4805   -401.87193 
  992500    246.53816    -131.3643    -103.8626    -131.3643            0    5482.3229    17.027191    20.055781    20.773132    7093.8919    5586.3396    7430.2792      3430.35    728.66012    3562.4768   -232.19451 
  993000    248.86555   -132.80284   -105.04151   -132.80284            0    7554.1241    17.065244    20.100602    20.819557    7141.5597    6382.8811    11089.345    5190.1461    3371.4562   -1730.2244    779.44427 
  993500    248.42308   -131.06368   -103.35172   -131.06368            0    1819.6419    17.044535     20.07621    20.794293    7115.5922    1602.3351    2153.5646     1703.026    526.78584    3727.4566   -42.862916 
  994000    247.84784   -131.60474   -103.95694   -131.60474            0    7483.2218    17.034993    20.064971    20.782651    7103.6482    6386.3363    5192.1125    10871.217    1359.7574    1519.9734   -2244.5822 
  994500    259.49856   -132.43718   -103.48972   -132.43718            0     8510.388    17.042536    20.073855    20.791853    7113.0882    7988.7934    8658.2446    8884.1261    2643.7261   -1853.8391    152.67418 
  995000    246.01926   -132.51911   -105.07529   -132.51911            0    141.44262    17.049271    20.081788     20.80007    7121.5245    3305.1674    688.67954   -3569.5191   -856.91594    2245.9844   -2301.1651 
  995500    258.18201   -131.32861   -102.52802   -131.32861            0    8725.6663    17.041622    20.072778    20.790738    7111.9438     8907.945    10446.966    6822.0879    22.308245    1876.6086     3539.683 
  996000    250.33151    -131.7773   -103.85244    -131.7773            0    1744.5031    17.137242    20.185407    20.907395    7232.3319    1895.4616    4375.5158   -1037.4681    775.40641    398.55972   -1039.8718 
  996500    253.85853   -131.94149   -103.62319   -131.94149            0    9712.5471    17.013011    20.039078    20.755833    7076.1833    13746.106    10083.635    5307.9003    2647.6543    187.89577   -398.34036 
  997000    251.16853   -133.91293    -105.8947   -133.91293            0    6533.8195    17.041972     20.07319    20.791165    7112.3819    6088.2727    6322.0089    7191.1769   -228.58626     991.5563   -5034.3438 
  997500    250.01882   -132.05402   -104.16405   -132.05402            0    9374.1405    16.984898    20.005965    20.721535    7041.1626     7919.755    12255.559    7947.1073    227.19164    1314.8777   -1038.3542 
  998000    242.02546   -132.33011    -105.3318   -132.33011            0    2841.5807    17.113311    20.157219    20.878199    7202.0754     974.0289    5793.2806    1757.4325   -1988.9654    2145.4527    1417.1377 
  998500     240.9297   -132.19127    -105.3152   -132.19127            0    6849.9239     17.00212     20.02625    20.742546    7062.6027    11395.566     5758.555    3395.6504   -250.11536    202.77534    654.80551 
  999000    245.05965    -132.4455   -105.10873    -132.4455            0    6943.4737    16.970273    19.988739    20.703693    7022.9896    5407.0647    12388.618    3034.7386    11.838622    630.08274   -1041.4907 
  999500    252.05899   -132.08587   -103.96831   -132.08587            0    4171.3428    17.141253    20.190131    20.912288    7237.4115    1856.3932    8788.8207    1868.8146     3184.698    1108.8367    -1812.027 
 1000000    235.45638   -130.79392    -104.5284   -130.79392            0    11830.596    16.993662    20.016288    20.732227    7052.0678    13042.371    12373.282    10076.134    2958.6132    2262.8087     185.5761 
Loop time of 5609.92 on 1 procs for 1000000 steps with 864 atoms

Performance: 7.701 ns/day, 3.117 hours/ns, 178.256 timesteps/s
72.8% CPU use with 1 MPI tasks x 1 OpenMP threads

MPI task timing breakdown:
Section |  min time  |  avg time  |  max time  |%varavg| %total
---------------------------------------------------------------
Pair    | 4987.2     | 4987.2     | 4987.2     |   0.0 | 88.90
Bond    | 0.1064     | 0.1064     | 0.1064     |   0.0 |  0.00
Neigh   | 561.13     | 561.13     | 561.13     |   0.0 | 10.00
Comm    | 23.615     | 23.615     | 23.615     |   0.0 |  0.42
Output  | 4.7211     | 4.7211     | 4.7211     |   0.0 |  0.08
Modify  | 29.844     | 29.844     | 29.844     |   0.0 |  0.53
Other   |            | 3.299      |            |       |  0.06

Nlocal:        864.000 ave         864 max         864 min
Histogram: 1 0 0 0 0 0 0 0 0 0
Nghost:        4493.00 ave        4493 max        4493 min
Histogram: 1 0 0 0 0 0 0 0 0 0
Neighs:         0.00000 ave           0 max           0 min
Histogram: 1 0 0 0 0 0 0 0 0 0
FullNghs:      226000.0 ave      226000 max      226000 min
Histogram: 1 0 0 0 0 0 0 0 0 0

Total # of neighbors = 226000
Ave neighs/atom = 261.57407
Ave special neighs/atom = 0.0000000
Neighbor list builds = 100000
Dangerous builds not checked

unfix		3
unfix		2

write_data	data.final.${pid}
write_data	data.final.0
System init for write_data ...

write_restart   restart.lmp.${pid}
write_restart   restart.lmp.0
System init for write_restart ...
Total wall time: 1:33:33
