LAMMPS data file via write_data, version 29 Sep 2021, timestep = 400000

972 atoms
2 atom types

-0.11717093163165337 20.108223931632 xlo xhi
-0.05241415117485104 20.04346715117454 ylo yhi
0.07027877622356726 20.73049322377728 zlo zhi

Masses

1 1.008
2 15.999

Atoms # full

31 0 1 0 0.46011331968863056 2.0445333870680855 1.9967367730034509 0 0 0
32 0 2 0 0.611100817216897 1.1211232709418453 2.1943309902922943 0 0 0
33 0 2 0 0.7795639635193385 2.510141992504319 2.756685063907677 0 0 0
2 0 2 0 1.6737835203745945 2.5330709001193576 0.4253912523643524 0 0 0
10 0 1 0 1.5656896103357052 3.893681766171795 3.9496401705387614 0 0 0
5 0 2 0 3.224039011495654 0.9583018342764686 3.7715880111543765 0 0 0
18 0 2 0 4.01589263059903 2.9310859295840204 3.0109416965642763 0 0 0
4 0 1 0 4.053715279190704 1.224054206911924 3.2554490138281857 0 0 0
35 0 2 0 4.1731415114147605 2.4080362639893935 0.5359131743682085 0 0 0
36 0 2 0 5.5860099363776055 2.0925641833786113 1.164534048997818 0 0 0
67 0 1 0 7.211976973444717 1.5333559763513802 2.0959908545654176 0 0 0
68 0 2 0 7.323793124370595 2.1512413246005915 2.8518461141529503 0 0 0
34 0 1 0 5.09745643073195 2.6218556130947817 0.5394525120860691 0 0 0
69 0 2 0 7.822065280217454 1.8048074519370172 1.4299331183312418 0 0 0
16 0 1 0 4.138059222575543 3.8949690950811315 3.219643726326232 0 0 0
46 0 1 0 7.538656091792089 3.7587006026515573 3.6870038737427855 0 0 0
6 0 2 0 4.779354801268115 1.07234093559074 3.802320413754542 0 0 0
40 0 1 0 10.931363465633854 1.167797502559156 3.08731092681751 0 0 0
54 0 2 0 10.501388192344988 2.9617382453038346 3.430581960916904 0 0 0
41 0 2 0 10.091841694665547 0.879189589885117 3.5022717417516223 0 0 0
39 0 2 0 9.970599998490618 2.1733533455637217 0.43310846202684916 0 0 0
52 0 1 0 10.20193189728323 3.8416030725631787 3.7756490114001697 0 0 0
70 0 1 0 11.819116144740503 2.6308139830851385 0.8569207327902001 0 0 0
42 0 2 0 11.569621948053646 1.001620322157943 3.804390941129775 0 0 0
47 0 2 0 8.429103412027406 3.7946277879112267 4.059952931660138 0 0 0
37 0 1 0 9.073222562241108 2.310319961611092 0.16528777300614642 0 0 0
72 0 2 0 12.493340578387356 2.4052992397694135 1.4945889308836866 0 0 0
103 0 1 0 14.143082284746262 2.1040466939014504 2.2266453508832766 0 0 0
105 0 2 0 14.24386842323319 1.1818791354978375 2.268202490663107 0 0 0
84 0 2 0 14.411739641642681 3.197268527224487 3.6331232782144274 0 0 0
104 0 2 0 14.87070319633445 2.41081113040547 1.674086992436353 0 0 0
71 0 2 0 12.176905299506434 3.4099781824064594 0.4250170430025756 0 0 0
73 0 1 0 15.766104816578608 2.925041065898692 0.299603164624492 0 0 0
108 0 2 0 19.114638869158753 2.537805191253652 1.1423793102657154 0 0 0
76 0 1 0 17.513749123485482 1.0659348553913524 3.4372337282227 0 0 0
89 0 2 0 17.453365959257724 2.9112773483066556 3.5948090407172812 0 0 0
107 0 2 0 17.656852615457687 2.6600556025411146 0.4228620780750402 0 0 0
78 0 2 0 18.163920657742118 0.7155957054429524 4.077636583388741 0 0 0
77 0 2 0 17.559832026804088 0.46245709784599476 2.720311233641308 0 0 0
106 0 1 0 18.595724742878353 2.7585375639208283 0.25343549792123315 0 0 0
88 0 1 0 17.44382749912981 3.884671462148108 3.612925577895215 0 0 0
20 0 2 0 0.9803675775371474 5.079121657147732 2.487660384381298 0 0 0
19 0 1 0 0.7138543203527843 5.617241441163063 1.734985496759447 0 0 0
21 0 2 0 0.9459192174898086 6.50859333229664 1.9570349690728122 0 0 0
675 0 2 0 2.104501049178278 5.291747005973344 0.2884009401714862 0 0 1
12 0 2 0 2.466661944146591 4.23935312678824 3.968899713540042 0 0 0
17 0 2 0 4.5244880672268195 4.307682487757371 2.4025170712006534 0 0 0
14 0 2 0 4.222017575596549 6.083938509757031 0.259176489275568 0 0 0
114 0 2 0 4.211603695764426 7.386197625278214 2.5234745066456368 0 0 0
13 0 1 0 4.729183867619775 6.210004056424181 1.0828704741482498 0 0 0
15 0 2 0 5.690364588648642 6.0331321226378005 0.9231398324608325 0 0 0
55 0 1 0 7.16038832103754 5.616923434289172 1.8058989232044447 0 0 0
56 0 2 0 7.270665991827931 5.042137116857792 2.5577570689682303 0 0 0
57 0 2 0 7.769944953003739 5.438350111922612 1.079504375253173 0 0 0
113 0 2 0 4.7929417413473345 7.308939702154897 4.025139360704438 0 0 0
112 0 1 0 4.186006611113405 7.765645428520933 3.416653180260879 0 0 0
177 0 2 0 7.376112426124762 7.289339288897946 2.696673137263484 0 0 0
149 0 2 0 9.66956134390744 7.748004087185545 3.5700959268335493 0 0 0
51 0 2 0 11.04896493983504 5.044777300147712 2.319526267761187 0 0 0
49 0 1 0 11.320676765319714 5.7876238550725025 1.7033875072843672 0 0 0
50 0 2 0 10.845328431965473 5.599344398571115 0.9162230974602077 0 0 0
150 0 2 0 10.69418939298443 7.313206032603127 2.4075255456667244 0 0 0
82 0 1 0 14.495954591164125 4.074343504843277 3.9973896207710378 0 0 0
83 0 2 0 14.393290594823565 4.6141485115900664 3.2005405829129585 0 0 0
91 0 1 0 14.060462966021882 5.986088069620095 2.069399929630533 0 0 0
92 0 2 0 14.147010482625483 6.920413389527218 2.339246986782991 0 0 0
93 0 2 0 13.19069358668369 5.884042986686718 1.6582507381941696 0 0 0
747 0 2 0 15.277509321817055 5.621738805037746 0.6186571557428481 0 0 1
90 0 2 0 16.603562001138997 4.164105129199284 4.038282022351627 0 0 0
86 0 2 0 18.34149564701527 4.829441366007729 2.1797252481092704 0 0 0
85 0 1 0 18.406433783211774 5.6558194470602885 1.6746401347052937 0 0 0
87 0 2 0 19.34251156432036 5.748987981057599 1.4532575425909238 0 0 0
185 0 2 0 17.70815454503667 7.131387646496468 2.672790018898601 0 0 0
746 0 2 0 16.923612121991845 5.5857374027489906 0.4236764967333973 0 0 1
184 0 1 0 17.658277369358657 7.64181275794771 3.5177645611161927 0 0 0
139 0 1 0 0.8122199765380961 8.45166956495023 2.148973884197825 0 0 0
141 0 2 0 1.4713483390138604 8.523060150523103 1.4697486681275018 0 0 0
119 0 2 0 1.2927301577543275 9.932144594776297 3.3959520636735956 0 0 0
118 0 1 0 1.514487058269187 10.768205020685617 3.798485492060683 0 0 0
120 0 2 0 2.482614704919135 10.770132862685047 3.8429462183339647 0 0 0
110 0 2 0 3.5461970132710925 8.698560285134379 0.24331395490989455 0 0 0
140 0 2 0 -0.012115953357438383 8.691048801487073 1.6746405993751567 0 0 0
109 0 1 0 2.6805018471013007 9.018535475134533 0.19703170209955342 0 0 0
124 0 1 0 4.344633191047253 10.421109015384243 3.8127233538577365 0 0 0
126 0 2 0 4.367398736740901 9.4305317648757 3.7178770469213616 0 0 0
122 0 2 0 4.720366737258462 11.599778097399025 2.203508354242013 0 0 0
176 0 2 0 6.559910556817321 8.287088290116976 1.8934484494453758 0 0 0
175 0 1 0 7.266173357028193 8.28596654461187 2.5560533104715386 0 0 0
155 0 2 0 7.779747259881567 9.67745385067328 3.4587545195447027 0 0 0
156 0 2 0 7.868309588275913 11.162764083491643 2.9357367312753557 0 0 0
154 0 1 0 7.912509498664676 10.589249386888177 3.737384156545167 0 0 0
142 0 1 0 5.551937539235614 8.998483904973254 0.22321721965840927 0 0 0
148 0 1 0 10.320740554920336 8.061389092743648 2.924191812801914 0 0 0
147 0 2 0 8.640859103379304 8.621469385861149 1.1076860512370004 0 0 0
161 0 2 0 9.767238358933282 10.873026061930027 3.4177564697193104 0 0 0
162 0 2 0 10.883776482805485 9.914921050636003 2.921271402431636 0 0 0
179 0 2 0 10.976865359933665 9.13098019330962 0.44270806016974235 0 0 0
160 0 1 0 10.708552916691689 10.808446827822474 3.2351458473375803 0 0 0
178 0 1 0 11.930186837753741 9.112158610081728 0.28914831939991054 0 0 0
158 0 2 0 11.717598905617848 11.951038880184376 2.000674419701633 0 0 0
817 0 1 0 9.352929456695733 11.763285797969829 0.2106584830745537 0 0 1
145 0 1 0 9.082931455926335 8.912493938598402 0.2884163695033197 0 0 0
146 0 2 0 9.007556241418204 9.887899622108135 0.2839600898457281 0 0 0
211 0 1 0 14.062891793093883 8.627398500101899 2.3023490853724704 0 0 0
212 0 2 0 14.522767146653464 9.365381290257055 2.794395521287984 0 0 0
213 0 2 0 13.377961031088974 8.916710225084897 1.6774984218915021 0 0 0
191 0 2 0 14.856209336334695 11.68510606541709 3.4659907957266975 0 0 0
183 0 2 0 15.433982984897206 8.810064284860077 0.961924622461618 0 0 0
190 0 1 0 15.029481314625995 10.776043877813187 3.7663856856906 0 0 0
192 0 2 0 16.01002070375366 10.728012216558094 3.764703471597487 0 0 0
854 0 2 0 15.874788541984035 11.019398806199954 0.07700832159485316 0 0 1
853 0 1 0 15.869562613805352 12.004257116762425 0.10560075146971323 0 0 1
181 0 1 0 15.856801656256586 9.24240180960249 0.2169522006045263 0 0 0
186 0 2 0 17.67306782937937 8.544373924875297 3.197057564935824 0 0 0
216 0 2 0 17.72439070361166 8.924462380656111 0.35241170992767196 0 0 0
214 0 1 0 18.6674214190557 8.911202399607033 0.4120999712142146 0 0 0
196 0 1 0 17.71728668826824 10.393521666518737 3.5947041999369573 0 0 0
197 0 2 0 17.93992737734 11.019444329338148 2.872006334983417 0 0 0
129 0 2 0 0.8656874434802033 12.098968870494945 2.557932049830517 0 0 0
782 0 2 0 1.8712605041254466 12.108911845726169 0.37680786340643097 0 0 1
249 0 2 0 0.9666603006881742 14.253890947474149 2.0895716962265656 0 0 0
127 0 1 0 0.5584063143716277 12.327151670348973 1.6592647346711837 0 0 0
221 0 2 0 3.407832937105108 14.220734397611778 3.183418128098191 0 0 0
247 0 1 0 0.8530717163314491 15.171628411958837 2.3104278327103516 0 0 0
218 0 2 0 2.5856248583475314 15.780032724044878 1.1218265113523351 0 0 0
248 0 2 0 0.19236850706516573 15.484770302792066 1.66977167588221 0 0 0
220 0 1 0 4.286563560511275 14.534249638430442 2.891496849063163 0 0 0
123 0 2 0 4.304688994452172 12.146563281249739 0.8837408733859837 0 0 0
222 0 2 0 4.684958188436635 13.821689154403304 2.3425253518936153 0 0 0
121 0 1 0 4.987592168099423 12.307395865808958 1.5383719151161939 0 0 0
165 0 2 0 6.629765003177667 12.636445044629655 1.8299534433497915 0 0 0
163 0 1 0 7.592605306929859 12.726566834519309 1.9796891623849209 0 0 0
164 0 2 0 7.772831548152607 13.663176637468593 2.277746230477928 0 0 0
283 0 1 0 7.853377895928556 15.59695957257473 1.9539909720542472 0 0 0
284 0 2 0 7.042741438201367 15.907734863562201 1.505830567895422 0 0 0
819 0 2 0 8.676630741837293 12.215499138819395 0.8142824858381978 0 0 1
818 0 2 0 10.215392188265836 12.195265809065276 0.46062390105301215 0 0 1
157 0 1 0 11.705294658431443 12.664447159860106 1.4044101725340277 0 0 0
159 0 2 0 11.179619234162985 13.344473685366571 1.8962515743334107 0 0 0
256 0 1 0 10.93519292217485 14.724667041232092 3.3117240675738664 0 0 0
257 0 2 0 10.912202843914105 15.602986710310915 2.918414611247416 0 0 0
255 0 2 0 10.631852249692207 15.670070191489577 0.19834197219897873 0 0 0
285 0 2 0 8.614130115924594 15.657644306543865 1.3427435730423893 0 0 0
258 0 2 0 10.012962180906458 14.359104513461562 3.356435428440856 0 0 0
855 0 2 0 15.483413453721042 12.238307190693476 0.9537339750672239 0 0 1
200 0 2 0 13.634113723164383 12.902847792262715 1.9544955102563224 0 0 0
199 0 1 0 14.481746875147143 13.110399919958397 2.363893282612876 0 0 0
201 0 2 0 14.660784544286564 14.04912749457562 2.2005704025841837 0 0 0
319 0 1 0 14.394159158449476 15.731873846016667 1.9019133738427865 0 0 0
320 0 2 0 13.563053706911676 15.709378386445826 1.3700948934487487 0 0 0
291 0 2 0 16.17765830671531 15.94135576382131 0.9681930999000126 0 0 0
128 0 2 0 19.854823336834542 12.581371462284105 1.6771944453179621 -1 0 0
195 0 2 0 17.460020296118472 12.400018287185707 1.0318352460235123 0 0 0
193 0 1 0 18.151670983594087 12.414636605467464 1.7342551679381462 0 0 0
194 0 2 0 18.037692236973882 13.211074894214935 2.315800084954117 0 0 0
292 0 1 0 17.65938905646835 14.683386622700446 3.150234942952238 0 0 0
294 0 2 0 17.093229215520587 14.46837469386774 3.895114114079683 0 0 0
290 0 2 0 17.62056165906739 15.932246722590877 0.5412912288396841 0 0 0
293 0 2 0 17.69540438046321 15.693821506208172 3.2907011127165777 0 0 0
322 0 1 0 19.355587441079443 16.009821079296298 0.5132068802341572 0 0 0
318 0 2 0 19.272025192366392 13.993808463066514 4.201931613359006 0 0 0
289 0 1 0 16.733962254913315 15.937198598596792 0.2085434970726211 0 0 0
217 0 1 0 2.9398380970481135 16.05691868169569 0.27230910888059295 0 0 0
227 0 2 0 1.0816948793797092 16.63390051336593 3.123047253502787 0 0 0
235 0 1 0 0.5933494264865495 19.60502346832581 1.7572340562712814 0 0 0
236 0 2 0 0.6927549433012181 18.86273014079578 2.4135301258081077 0 0 0
237 0 2 0 1.22380206389466 19.289569110076165 1.0163835429120351 0 0 0
226 0 1 0 1.2672412895929364 17.44164756653581 3.5878144352097077 0 0 0
891 0 2 0 3.3361582366223965 19.05881203512985 0.20085563906708218 0 0 1
228 0 2 0 2.259967710316502 17.462215634550983 3.579470133851602 0 0 0
232 0 1 0 3.907759318499525 17.291716479171683 2.904724429574661 0 0 0
272 0 2 0 7.3916444586992025 19.86842184181323 1.9538720348765608 0 0 0
230 0 2 0 4.376842789521235 20.01396266637715 2.183232860113111 0 0 0
233 0 2 0 4.432138468252463 16.49236513426464 2.6160914424098354 0 0 0
251 0 2 0 4.537633458961543 16.07314389197706 0.755560697911788 0 0 0
250 0 1 0 5.477421708279363 16.21845452851685 0.6420031422885207 0 0 0
234 0 2 0 4.097056437222721 18.010807849437846 2.28248320995454 0 0 0
229 0 1 0 4.568392900116181 19.410908742711413 1.4517109092079143 0 0 0
231 0 2 0 5.523442429216323 19.196561728620928 1.481721000942615 0 0 0
271 0 1 0 7.164082263732112 18.939579732061024 1.6809495422992549 0 0 0
273 0 2 0 7.355284000604299 18.317494249208156 2.393703722675177 0 0 0
252 0 2 0 5.563328246918455 16.989075376202113 0.09475242382505566 0 0 0
263 0 2 0 8.0948241733024 16.707278929616166 3.143708752584941 0 0 0
266 0 2 0 11.1141975762739 19.95272449102089 1.8264532915642167 0 0 0
262 0 1 0 8.031889064955559 17.378472040719224 3.845180203287003 0 0 0
927 0 2 0 8.440223932903455 18.377770754679364 0.404847971194512 0 0 1
264 0 2 0 8.95461837344668 17.633038677752705 4.041971010224799 0 0 0
265 0 1 0 11.446802636164639 19.23135249458494 1.2740312226355965 0 0 0
268 0 1 0 10.70702384430367 17.410745077294223 3.2063462557868108 0 0 0
269 0 2 0 10.877501344830758 17.881516166767128 2.39119975846554 0 0 0
267 0 2 0 10.719429433072994 19.138384747682576 0.6519613529143895 0 0 0
270 0 2 0 11.44499530415048 17.728769965189233 3.8024428974692617 0 0 0
321 0 2 0 14.3417482913236 16.513517484161305 2.480436552973098 0 0 0
307 0 1 0 14.243230135898328 19.40919048388288 1.7964312815145944 0 0 0
308 0 2 0 13.25620673453362 19.254113444112946 1.7086065339209033 0 0 0
309 0 2 0 14.576366211732935 18.886121173448654 2.493669441289543 0 0 0
298 0 1 0 14.776212680624466 17.767414240633578 3.823921133603838 0 0 0
963 0 2 0 15.145228682149776 18.88348428864192 0.39576327047601995 0 0 1
300 0 2 0 15.69834518195916 17.902107958555284 4.177613536380891 0 0 0
302 0 2 0 17.588214574680393 19.05850376573099 0.7594005976512377 0 0 0
301 0 1 0 18.15857509986168 19.19650909741066 1.582235568413979 0 0 0
303 0 2 0 19.079713882837353 19.414484678560047 1.3278752918401315 0 0 0
306 0 2 0 17.84023386436892 17.975138654254035 2.887696602442666 0 0 0
304 0 1 0 17.563898987921945 17.39009439235 3.622003093226844 0 0 0
22 0 1 0 1.8548638586345743 0.48228073223787593 4.712836885221024 0 0 0
23 0 2 0 1.988553250840051 1.1193924785252578 5.42434364486332 0 0 0
325 0 1 0 2.2439146517451394 2.3457598132892525 6.895505194699753 0 0 0
327 0 2 0 2.2863822336417483 3.2979704815386333 6.581896042212082 0 0 0
101 0 2 0 -0.007366871729613214 0.6026481627990711 5.235176556884685 1 0 0
326 0 2 0 3.1483911484544413 2.2320765956729223 7.220201971913987 0 0 0
28 0 1 0 5.827156192685398 0.4216767054787759 5.210477851777271 0 0 0
29 0 2 0 6.782450696155833 0.5412177606703156 4.989872043191667 0 0 0
358 0 1 0 5.088097031407372 2.196979801857958 7.248413869437173 0 0 0
359 0 2 0 5.433292281117896 1.4234750605117306 6.7283820019368825 0 0 0
360 0 2 0 5.491184129336269 2.0769933630821167 8.103367994380251 0 0 0
392 0 2 0 7.751031966287096 2.022786229906438 8.282523847260927 0 0 0
8 0 2 0 5.722357880836828 3.5528284182545575 6.15118802327233 0 0 0
48 0 2 0 6.90508017103382 3.775652649768826 4.405723783243288 0 0 0
58 0 1 0 8.55349421860773 0.5540547671912225 4.753755059396674 0 0 0
59 0 2 0 8.806310920751223 1.3209166772944363 5.325802733175113 0 0 0
361 0 1 0 8.772567909362662 2.5064801890389847 6.793034160453323 0 0 0
363 0 2 0 8.617392368915118 3.4871893537810292 6.706512814709841 0 0 0
362 0 2 0 9.720340577587782 2.466354650956378 7.096833623505677 0 0 0
394 0 1 0 11.477166120591372 2.5876740482970315 7.4636560832205685 0 0 0
396 0 2 0 11.924734961489719 3.3885223618032203 7.0052562348670975 0 0 0
395 0 2 0 11.939469258940958 2.4127190734713784 8.297407633986122 0 0 0
96 0 2 0 16.00219731454986 0.699903262516413 4.326252361415955 0 0 0
66 0 2 0 12.424164807851952 1.4022925317321069 5.9419794031360125 0 0 0
65 0 2 0 13.586521706493295 1.0275697832332586 5.002441072265625 0 0 0
64 0 1 0 12.637036340557959 0.8522269546938688 5.175604617212569 0 0 0
94 0 1 0 15.501578965727438 0.5654764727472901 5.1383073268608035 0 0 0
95 0 2 0 15.73212518707664 1.243688280156047 5.750324720492295 0 0 0
399 0 2 0 15.562187453296659 3.601042148250057 6.922888156350588 0 0 0
397 0 1 0 15.674036771629403 2.646501940224005 7.195883487186119 0 0 0
100 0 1 0 19.346626835243413 0.29357637540600234 5.535263364884027 0 0 0
430 0 1 0 18.46156359886217 2.6184080467723456 7.0757803551964 0 0 0
431 0 2 0 18.73931520224521 1.8136420175672934 6.596281358174152 0 0 0
432 0 2 0 18.885480598228384 3.3116905726594212 6.517799668612056 0 0 0
398 0 2 0 16.619614199445664 2.4888154866920775 7.315372413384793 0 0 0
131 0 2 0 2.5436377121268015 7.7695061115514505 4.266305742281377 0 0 0
11 0 2 0 1.0183716603070205 4.518733418953768 4.4494142198480215 0 0 0
25 0 1 0 2.341391697651084 5.275180073708439 6.6426482595238685 0 0 0
26 0 2 0 2.0331077470200083 5.914847491779299 5.9679523852701735 0 0 0
27 0 2 0 3.0709277454830604 5.652792846943795 7.1298601010998786 0 0 0
130 0 1 0 1.9375525128981677 7.524123929872061 4.92071333382564 0 0 0
132 0 2 0 1.041386628639216 7.612834588107816 4.63966037825432 0 0 0
344 0 2 0 1.011061302771323 5.347437911760999 8.104987984941372 0 0 0
9 0 2 0 5.121611600802852 4.018756716509189 4.788071474376009 0 0 0
7 0 1 0 5.668090473316913 4.311822884709867 5.523165899526378 0 0 0
137 0 2 0 5.8249032168442545 6.077683541222722 5.651573666862704 0 0 0
136 0 1 0 5.983304229433816 6.994407697136253 5.529546532608306 0 0 0
138 0 2 0 6.941587416637216 7.077721160328158 5.516141025643863 0 0 0
339 0 2 0 5.290484883807613 5.76467728011813 8.217056368442492 0 0 0
337 0 1 0 4.30494704841453 5.948305503532147 8.3196245225565 0 0 0
53 0 2 0 10.814504840951319 4.016473817100584 4.524777154900868 0 0 0
63 0 2 0 8.213718592147819 5.291029983658554 7.426437310083674 0 0 0
61 0 1 0 8.961863821093322 5.1146813136711495 6.841897964582817 0 0 0
167 0 2 0 8.761290138992894 6.599526747757285 5.878510589403455 0 0 0
166 0 1 0 8.642000417727255 7.457924454185673 5.385562739275316 0 0 0
62 0 2 0 9.747957942360683 5.251625893429777 7.377144926807214 0 0 0
173 0 2 0 11.562087538669156 7.7142531037387165 4.601847982277352 0 0 0
204 0 2 0 16.03016293007704 7.367589124505333 4.236347139070928 0 0 0
44 0 2 0 12.988703031771676 4.568993426059071 5.068575970391523 0 0 0
43 0 1 0 12.187127650612176 4.617755480496137 5.625250685376058 0 0 0
45 0 2 0 12.031425505440824 5.561316760934246 5.7364371587450576 0 0 0
172 0 1 0 12.202446982741879 7.595923101391296 5.292764159617845 0 0 0
202 0 1 0 15.294052688841438 7.48219212032668 4.869394617887021 0 0 0
416 0 2 0 14.277288673216786 5.583591926345195 8.133729363921871 0 0 0
99 0 2 0 15.551551325783212 6.107727228355661 6.114386776397411 0 0 0
97 0 1 0 15.755419377914356 5.4462558619086705 6.764971343431505 0 0 0
174 0 2 0 13.032415464804775 7.367984999954293 4.8225486511736575 0 0 0
81 0 2 0 18.747434640481856 4.608851215787143 4.791232195126346 0 0 0
79 0 1 0 19.56134860686676 4.865309327935665 5.316711029810635 0 0 0
80 0 2 0 19.374040325885304 5.775885571945229 5.605478363846126 0 0 0
98 0 2 0 16.17892350808004 5.9350679343281705 7.437506679012108 0 0 0
208 0 1 0 19.30158634695367 7.402792421394946 5.950987108945314 0 0 0
209 0 2 0 18.76306476689087 7.757187427817792 5.166251491591644 0 0 0
435 0 2 0 2.2978558678235195 8.38147685662229 6.524991585967051 0 0 0
433 0 1 0 2.4942917908264612 9.046807641185875 7.244906423941509 0 0 0
135 0 2 0 2.8469324678947867 10.586091571196125 6.7538710839472245 0 0 0
434 0 2 0 3.44803051876947 8.881095229699216 7.3358208874760145 0 0 0
189 0 2 0 0.6535368431201101 10.947982465034224 5.4880242355571385 1 0 0
133 0 1 0 2.800510022748179 11.558863130290984 6.67159456523737 0 0 0
134 0 2 0 3.5441769105563514 11.958164077415061 7.1542838433311 0 0 0
125 0 2 0 5.074965885532848 10.62009372702774 4.390182830243936 0 0 0
468 0 2 0 5.5194476938579715 8.429087681760295 6.683533446374298 0 0 0
466 0 1 0 5.244669660315903 9.134235492917403 7.271107436019768 0 0 0
467 0 2 0 5.466420402307955 9.998601797747744 6.73595372841442 0 0 0
115 0 1 0 6.246887758338912 11.150020294367698 5.753552203237004 0 0 0
116 0 2 0 7.027803345320208 10.99026581558117 5.169230150425659 0 0 0
168 0 2 0 8.837635314632156 8.184039894894797 6.027567573467239 0 0 0
469 0 1 0 9.20745383161173 9.137184850456961 7.379735112179386 0 0 0
471 0 2 0 10.1221887657812 9.22560890997536 7.684988526953116 0 0 0
470 0 2 0 8.957681910207572 9.885865025912775 6.893862579525519 0 0 0
502 0 1 0 11.920014679352734 9.654242739753023 7.2276456632330675 0 0 0
169 0 1 0 9.046389218063494 11.864941782237722 6.272777387574808 0 0 0
171 0 2 0 9.997000680092064 11.931103310710782 6.4772576699357245 0 0 0
152 0 2 0 12.159913017454931 10.843809642676623 4.496215135482311 0 0 0
203 0 2 0 15.539096536706325 8.269696017502723 5.2814984109653915 0 0 0
504 0 2 0 12.176887713551753 10.455334467628992 6.744980716866178 0 0 0
503 0 2 0 12.054577905909124 8.98279869152786 6.546865911649215 0 0 0
151 0 1 0 12.779234974480826 11.286827425680553 5.171242213017061 0 0 0
153 0 2 0 13.695829697363978 11.06465568437973 4.846451345170129 0 0 0
507 0 2 0 15.689869184492382 9.293934105918126 7.678632546833012 0 0 0
198 0 2 0 18.38402281745212 10.46071574324128 4.276928328078735 0 0 0
505 0 1 0 16.44205671961334 9.266376611351138 7.014401602918499 0 0 0
207 0 2 0 16.199661401432785 11.135242781407143 6.389429903976026 0 0 0
210 0 2 0 19.274501904455647 8.140903985560879 6.581213628424007 0 0 0
506 0 2 0 17.21267904730707 9.318937410864113 7.6188724748760075 0 0 0
538 0 1 0 18.890536496673988 9.774393889097952 8.089769095466735 0 0 0
540 0 2 0 19.54690647951228 10.165200665524432 7.490113171241148 0 0 0
187 0 1 0 19.97900669144355 10.983773100636105 5.882696725977687 0 0 0
188 0 2 0 19.708539171326237 11.891910043850375 5.86262158087766 0 0 0
453 0 2 0 1.6431462691514453 12.181693719949253 7.93041690536298 0 0 0
238 0 1 0 2.3095850072357798 13.834571306027648 4.857378453815277 0 0 0
239 0 2 0 1.3762729711643327 14.067154934725632 4.874176987502117 0 0 0
240 0 2 0 2.348163752468741 12.963321442597545 5.308134603382056 0 0 0
542 0 2 0 2.2589771547204416 15.315100645487638 6.225442026180026 0 0 0
543 0 2 0 3.543065836727314 15.97266438351841 6.833577840031995 0 0 0
573 0 2 0 1.5953630793297138 15.604649714277732 8.239933316403405 0 0 0
246 0 2 0 5.367603358575054 14.017145572974574 4.55334330538185 0 0 0
117 0 2 0 6.104736455728239 12.099484015907287 5.838250262457487 0 0 0
244 0 1 0 5.959826457498018 14.084200037288918 5.300710711812255 0 0 0
245 0 2 0 5.445045118451737 14.537597495924409 6.012881348799141 0 0 0
276 0 2 0 7.627461471622904 14.113324711335206 4.991405255246957 0 0 0
575 0 2 0 5.751718809493884 15.864519677086287 7.900928383671727 0 0 0
574 0 1 0 5.222943842615945 15.869556631360858 7.08578807891805 0 0 0
447 0 2 0 6.054403771562769 12.745695621444069 8.080832023535983 0 0 0
445 0 1 0 5.089986868615102 12.518123810392801 7.963188047427571 0 0 0
446 0 2 0 4.589561371824281 13.348091992199087 8.171467629882386 0 0 0
489 0 2 0 8.296692022922858 12.340217155433967 7.982414291073073 0 0 0
170 0 2 0 8.913817156291616 12.506958379429111 5.575086094068953 0 0 0
274 0 1 0 8.616845002307063 14.205307376962534 4.795946031504218 0 0 0
275 0 2 0 8.88365254034166 15.020614363847438 5.23888572535673 0 0 0
578 0 2 0 8.4735798743485 15.762757493761614 7.578018577546355 0 0 0
611 0 2 0 10.982644181518758 15.701467847588994 7.205022293886475 0 0 0
610 0 1 0 11.954486863340312 15.827769516071793 7.139129244783254 0 0 0
481 0 1 0 11.382821499170019 12.658238320878056 7.948869074217907 0 0 0
281 0 2 0 12.074916709551234 14.354221464306304 4.71741899403024 0 0 0
282 0 2 0 12.565502115575866 13.191348806610051 5.527418071948083 0 0 0
280 0 1 0 12.739033230260052 14.135269136390521 5.389188298058532 0 0 0
205 0 1 0 16.047492527698537 12.113859795240831 6.463406560497375 0 0 0
612 0 2 0 12.159504977536884 15.230669378365683 6.387994427983878 0 0 0
311 0 2 0 14.89585898985714 14.733252100847205 4.920456998123769 0 0 0
206 0 2 0 15.305307075804832 12.225874347807784 7.129908746968749 0 0 0
310 0 1 0 15.76565324681945 14.623605896975647 5.2110033363950805 0 0 0
312 0 2 0 15.742016010921581 13.741352459403517 5.56576798959919 0 0 0
645 0 2 0 14.816160994004406 15.634844266984604 8.173895999805408 0 0 0
524 0 2 0 13.219230263692834 12.509835651332152 8.2963297410627 0 0 0
614 0 2 0 16.15051753425388 15.755032866048511 6.52151763207542 0 0 0
316 0 1 0 19.716075617633173 13.784215114425603 5.034656531623942 0 0 0
317 0 2 0 19.464627799665386 14.526034044610617 5.5804603703555085 0 0 0
518 0 2 0 17.298903644731176 12.367829489777106 7.858514719660837 0 0 0
648 0 2 0 19.836825308710132 15.652229767168638 7.967999771568757 0 0 0
646 0 1 0 19.25370521199344 15.543699655091894 7.1629330302665215 0 0 0
647 0 2 0 18.306902098827166 15.718407844173049 7.41726868396545 0 0 0
519 0 2 0 18.75674252203771 12.150892908095962 8.318265302976489 0 0 0
24 0 2 0 2.06153084781199 19.712763526340634 5.095567660915709 0 -1 0
541 0 1 0 2.5311185540489656 16.062470112387746 6.811679689138699 0 0 0
241 0 1 0 2.4888102838634327 18.7800378495389 6.407614965730715 0 0 0
242 0 2 0 2.522133871742763 17.78252552237837 6.49497800108841 0 0 0
243 0 2 0 3.2272630047571753 19.098133807715964 6.83983146906342 0 0 0
560 0 2 0 1.1392555263165156 18.90770644653908 7.6526525386157545 0 0 0
297 0 2 0 0.10977946426598276 17.418402019940242 4.848698382410502 1 0 0
30 0 2 0 5.757517763587076 19.576290850732377 5.400117401282452 0 -1 0
224 0 2 0 5.326712506630223 17.53172973145102 4.5449623944225825 0 0 0
225 0 2 0 6.8131762054638125 17.616365418373565 4.806358395406968 0 0 0
223 0 1 0 5.941971760415749 17.7883416023994 5.261618617799141 0 0 0
576 0 2 0 5.6145418845097455 16.505921589450534 6.459446332398845 0 0 0
278 0 2 0 7.964992359730692 19.01034759713973 7.2825307087614055 0 0 0
577 0 1 0 9.079383280487274 16.04588451791556 6.919735565536069 0 0 0
60 0 2 0 8.614053153845859 19.858021720395804 5.318081350276456 0 -1 0
277 0 1 0 8.755535497982592 18.87021415417477 6.7122511497890445 0 0 0
579 0 2 0 8.92124167567554 17.060167923391685 6.814156925171381 0 0 0
279 0 2 0 9.456112339669312 19.171227981362616 7.304717078862815 0 0 0
261 0 2 0 11.910912831503564 17.645244791989295 5.988226033994438 0 0 0
260 0 2 0 12.24235639046476 19.101354816995187 5.56509925581789 0 0 0
299 0 2 0 14.024758887819795 17.89826971649655 4.452725877079472 0 0 0
259 0 1 0 12.229716141792798 18.162529908344354 5.235989680022552 0 0 0
315 0 2 0 14.902093051658431 18.97914147676482 7.422758028433914 0 0 0
314 0 2 0 15.635464236804067 19.278884569405832 6.167413938358112 0 0 0
313 0 1 0 15.625120240366552 18.65722856910336 6.8841834729556375 0 0 0
102 0 2 0 19.417968454788436 19.37330420255421 5.54925858908133 0 -1 0
613 0 1 0 16.405921210170597 16.05684127938092 7.372683946171963 0 0 0
615 0 2 0 16.286422639678136 17.036783766653905 7.298287256557554 0 0 0
305 0 2 0 18.24254331632318 17.54878362633529 4.318520654217181 0 0 0
295 0 1 0 19.633257497464733 17.643054395135078 5.5060061123285005 0 0 0
296 0 2 0 19.62657880521087 17.056554960602085 6.266740248020541 0 0 0
627 0 2 0 17.58868792194872 19.252963814890503 7.508993743375036 0 0 0
626 0 2 0 19.11287010176534 19.233073272114982 8.061370108958037 0 0 0
625 0 1 0 18.164470753626567 19.468275351718496 8.260878521101288 0 0 0
356 0 2 0 1.0618785115751868 2.193050432199943 8.377623426381838 0 0 0
355 0 1 0 0.31955220265542317 2.143389125449458 8.990779574163296 0 0 0
335 0 2 0 0.7660697779741712 3.0696703783697576 10.341683873640177 0 0 0
346 0 1 0 1.8925922379552556 0.6279905154896359 12.112954079940518 0 0 0
347 0 2 0 2.480589205225609 1.0854547817060396 11.50433665495494 0 0 0
348 0 2 0 0.999776488129215 0.7938937378908069 11.814968500086936 0 0 0
561 0 2 0 0.7393966737535518 0.0796740166672136 8.36767207666491 0 1 0
329 0 2 0 3.767880783867172 2.4458976067227103 10.539323423501731 0 0 0
328 0 1 0 3.879476422013669 1.4749918517040699 10.429783561906781 0 0 0
334 0 1 0 0.9813462459634188 3.627926571938074 11.076262484978807 0 0 0
336 0 2 0 1.9107141217173886 3.7543730125462464 11.081481392796144 0 0 0
330 0 2 0 4.7235554104283946 1.1790924404334817 10.870725401719763 0 0 0
393 0 2 0 7.242328852199996 1.0595148861601376 9.358393249745896 0 0 0
353 0 2 0 6.749750872004201 0.7093477880109789 11.88715581507252 0 0 0
372 0 2 0 7.425523655948557 3.2707082041662554 10.321258755134902 0 0 0
391 0 1 0 7.118705943225463 1.994924348057927 9.052567850789544 0 0 0
554 0 2 0 3.9770503730966826 0.10077292366496315 8.835755637424068 0 1 0
352 0 1 0 5.8716540411835965 0.6182185801800055 12.233365537251661 0 0 0
382 0 1 0 8.662449014717655 0.7734366614740567 11.8176611746775 0 0 0
366 0 2 0 9.967205369820885 0.9844234941906118 10.907543750285056 0 0 0
364 0 1 0 10.702813979221709 1.425083886978052 10.441649722977601 0 0 0
378 0 2 0 10.613228190793691 3.3037254097975186 10.528793021503711 0 0 0
365 0 2 0 11.567889778827384 1.324261534028811 10.964038248682586 0 0 0
383 0 2 0 8.744675122819888 -0.018205600543890345 12.342858899756282 0 0 0
591 0 2 0 10.588399397404482 -0.008064287920815455 9.067384009033715 0 1 0
427 0 1 0 13.76911164767468 1.81634560144385 8.993490644850835 0 0 0