LAMMPS (29 Sep 2021 - Update 2)
  using 1 OpenMP thread(s) per MPI task
echo both

include		in.partitions
variable        pid world 0
include		in.temp
variable        temperature equal 260
variable        tempDamp equal 0.100 # this is 0.1 ps
include		in.pressure
variable        pressure equal 2026.5
variable        pressureDamp equal 1.0 #this is 1ps
include		in.seed
variable        seed world 745823

units           metal
atom_style	full
include		in.box
read_data       iceIII.data
Reading data file ...
  orthogonal box = (0.0000000 0.0000000 0.0000000) to (19.991053 19.991053 20.800772)
  1 by 1 by 1 MPI processor grid
  reading atoms ...
  972 atoms
Finding 1-2 1-3 1-4 neighbors ...
  special bond factors lj:    0        0        0       
  special bond factors coul:  0        0        0       
     0 = max # of 1-2 neighbors
     0 = max # of 1-3 neighbors
     0 = max # of 1-4 neighbors
     1 = max # of special neighbors
  special bonds CPU = 0.003 seconds
  read_data CPU = 0.016 seconds
include 	in.setup
variable	out_freq equal 500
variable	out_freq2 equal 500

timestep        0.0005

neigh_modify    delay 7 every 1

include         in.deepmd
# This is deepMD model

# create groups ###
#group ox type 2
#group hy type 1

mass 2 15.999
mass 1 1.008

pair_style      deepmd ../graph.pb
pair_coeff      * *

bond_style      none
angle_style     none
dihedral_style  none
improper_style  none
neigh_modify exclude none


neighbor        2.0 bin
neigh_modify    every 10 delay 0 check no

thermo          ${out_freq}
thermo          500
thermo_style 	custom step temp pe etotal epair emol press lx ly lz xy xz yz vol pxx pyy pzz pxy pxz pyz cella cellb cellc cellalpha cellbeta cellgamma

restart 	${out_freq} restart.lmp.${pid} restart2.lmp.${pid}
restart 	500 restart.lmp.${pid} restart2.lmp.${pid}
restart 	500 restart.lmp.0 restart2.lmp.${pid}
restart 	500 restart.lmp.0 restart2.lmp.0


include         in.dump
dump            myDump all atom ${out_freq2} dump.water.${pid}
dump            myDump all atom 500 dump.water.${pid}
dump            myDump all atom 500 dump.water.0
dump            myDump2 all dcd ${out_freq2} dump.dcd
dump            myDump2 all dcd 500 dump.dcd
dump_modify     myDump append yes
dump_modify     myDump2 append yes


timer           timeout 04:55:00 every 1000
New timer settings: style=normal  mode=nosync  timeout=04:55:00

fix             2 all nph aniso ${pressure} ${pressure} ${pressureDamp}
fix             2 all nph aniso 2026.5 ${pressure} ${pressureDamp}
fix             2 all nph aniso 2026.5 2026.5 ${pressureDamp}
fix             2 all nph aniso 2026.5 2026.5 1
fix             3 all temp/csvr ${temperature} ${temperature} ${tempDamp} ${seed}
fix             3 all temp/csvr 260 ${temperature} ${tempDamp} ${seed}
fix             3 all temp/csvr 260 260 ${tempDamp} ${seed}
fix             3 all temp/csvr 260 260 0.1 ${seed}
fix             3 all temp/csvr 260 260 0.1 745823
velocity 	all create ${temperature} ${seed} dist gaussian
velocity 	all create 260 ${seed} dist gaussian
velocity 	all create 260 745823 dist gaussian

run             400000

CITE-CITE-CITE-CITE-CITE-CITE-CITE-CITE-CITE-CITE-CITE-CITE-CITE

Your simulation uses code contributions which should be cited:

- USER-DEEPMD package:

@article{Wang_ComputPhysCommun_2018_v228_p178,
  author = {Wang, Han and Zhang, Linfeng and Han, Jiequn and E, Weinan},
  doi = {10.1016/j.cpc.2018.03.016},
  url = {https://doi.org/10.1016/j.cpc.2018.03.016},
  year = 2018,
  month = {jul},
  publisher = {Elsevier {BV}},
  volume = 228,
  journal = {Comput. Phys. Commun.},
  title = {{DeePMD-kit: A deep learning package for many-body potential energy representation and molecular dynamics}},
  pages = {178--184}
}

CITE-CITE-CITE-CITE-CITE-CITE-CITE-CITE-CITE-CITE-CITE-CITE-CITE

Neighbor list info ...
  update every 10 steps, delay 0 steps, check no
  max neighbors/atom: 2000, page size: 100000
  master list distance cutoff = 8
  ghost atom cutoff = 8
  binsize = 4, bins = 5 5 6
  1 neighbor lists, perpetual/occasional/extra = 1 0 0
  (1) pair deepmd, perpetual
      attributes: full, newton on
      pair build: full/bin
      stencil: full/bin/3d
      bin: standard
Per MPI rank memory allocation (min/avg/max) = 7.648 | 7.648 | 7.648 Mbytes
Step Temp PotEng TotEng E_pair E_mol Press Lx Ly Lz Xy Xz Yz Volume Pxx Pyy Pzz Pxy Pxz Pyz Cella Cellb Cellc CellAlpha CellBeta CellGamma 
       0          260   -175.65013   -143.01712   -175.65013            0    37711.489    19.991053    19.991053    20.800772            0            0            0    8312.8663    41483.418    41959.303    29691.747   -62.837842   -1049.8213   -449.94001    19.991053    19.991053    20.800772           90           90           90 
     500    254.19955   -161.89385   -129.98886   -161.89385            0   -2448.9346    20.187519    20.093897    20.676058            0            0            0    8387.1588   -2310.4418   -1442.1204   -3594.2415   -565.65503   -802.23381   -760.72367    20.187519    20.093897    20.676058           90           90           90 
    1000     263.1426   -160.09899   -127.07155   -160.09899            0    1089.2278    20.307762    20.175554     20.47359            0            0            0    8388.4462    841.82521     1826.174    599.68428    -1315.653    441.72804    407.89074    20.307762    20.175554     20.47359           90           90           90 
    1500    253.68934   -160.41478   -128.57383   -160.41478            0    8927.7261    20.331711    20.223741     20.43432            0            0            0    8402.2502     5881.124     12499.08    8402.9748    1787.3231   -280.11963   -511.88945    20.331711    20.223741     20.43432           90           90           90 
    2000    255.37975   -158.48907   -126.43595   -158.48907            0    -3617.118    20.231458     20.18123    20.417827            0            0            0    8336.5109    -3344.609   -3126.5064   -4380.2387   -12.756159   -152.00538    361.00644    20.231458     20.18123    20.417827           90           90           90 
    2500    256.25556   -157.53084   -125.36779   -157.53084            0    5027.2981    20.148021    20.285379    20.567254            0            0            0    8406.0475    5111.3146    3232.3716    6738.2082   -220.78486    2774.3926   -511.28131    20.148021    20.285379    20.567254           90           90           90 
    3000    269.88903    -159.4474   -125.57319    -159.4474            0    4470.8508    20.152453    20.310075    20.817782            0            0            0    8520.6728    8433.8374     2726.446    2252.2689   -1538.3815    134.60104   -1989.6992    20.152453    20.310075    20.817782           90           90           90 
    3500    264.51655   -159.55134   -126.35144   -159.55134            0    3613.7951    20.166725    20.011438    20.739082            0            0            0    8369.5714     111.6057    3889.1149    6840.6649   -910.48412    992.94112     506.6538    20.166725    20.011438    20.739082           90           90           90 
    4000    253.73459   -158.71928   -126.87264   -158.71928            0    4324.2043    20.360278     19.97967    20.691086            0            0            0     8416.961    5396.0107    5428.4387    2148.1636    -562.8696   -1631.5497    928.92837    20.360278     19.97967    20.691086           90           90           90 
    4500    266.59041   -160.61787   -127.15768   -160.61787            0    4996.6998    20.301233    20.120867    20.559749            0            0            0    8398.2132    3805.9505    6203.7099    4980.4391    1050.9339    1935.2636    2345.3748    20.301233    20.120867    20.559749           90           90           90 
    5000    251.41357   -158.09024   -126.53492   -158.09024            0   -525.18424    20.214674    20.280572    20.519622            0            0            0    8412.3302   -1750.5734   -1340.3788    1515.3994    233.97117   -1879.6325    593.61734    20.214674    20.280572    20.519622           90           90           90 
    5500     248.2077   -159.28807   -128.13512   -159.28807            0    3048.4934    20.100329    20.230543    20.495915            0            0            0    8334.4705    1203.6577    4145.9155    3795.9071    960.42893    359.36238    -452.0128    20.100329    20.230543    20.495915           90           90           90 
    6000     268.7345    -160.1982   -126.46891    -160.1982            0   -689.60062    20.152275    20.363059     20.70513            0            0            0    8496.5977   -2786.2911    1284.9439   -567.45464   -885.19574   -541.66001   -573.52407    20.152275    20.363059     20.70513           90           90           90 
    6500    255.24289   -159.32802   -127.29208   -159.32802            0    1268.1303    20.097991    20.164609    20.620898            0            0            0    8356.9926   -297.67337   0.29049096    4101.7738     950.1064    1010.5605     818.4972    20.097991    20.164609    20.620898           90           90           90 
    7000    263.96056   -158.26822    -125.1381   -158.26822            0    824.38103     20.36229    20.027463    20.607656            0            0            0    8403.9055    3588.0668   -1640.4797    525.55595    412.41078   -3974.1244   -1280.5272     20.36229    20.027463    20.607656           90           90           90 
    7500    260.44471   -157.69095   -125.00212   -157.69095            0    3122.2414    20.467758    19.961735    20.564913            0            0            0     8402.247    1694.0133    2003.9801    5668.7308    1087.3412    1737.9541    792.58744    20.467758    19.961735    20.564913           90           90           90 
    8000    253.08357    -158.6149   -126.84998    -158.6149            0    3647.3887    20.341445     20.09736    20.552513            0            0            0    8402.0598    5312.8517    1625.6003    4003.7141    122.52959   -785.59403   -1941.4417    20.341445     20.09736    20.552513           90           90           90 
    8500    254.31155   -159.96575    -128.0467   -159.96575            0     996.7386     20.03376    20.396153     20.61308            0            0            0    8422.7441   -424.97119    234.23182    3180.9552   -477.12141   -2176.4915   -931.53009     20.03376    20.396153     20.61308           90           90           90 
    9000    265.48295   -157.83418   -124.51299   -157.83418            0    6245.4315    19.966432    20.354158    20.670965            0            0            0    8400.6784     3369.254    10474.721    4892.3195    2225.0122    4581.5937    1528.1553    19.966432    20.354158    20.670965           90           90           90 
    9500    258.98833    -157.8702   -125.36416    -157.8702            0     6294.496    20.222705    20.133102    20.807656            0            0            0    8471.7497    6467.8801    4575.0606    7840.5474   -46.122735    -864.5981    11.539578    20.222705    20.133102    20.807656           90           90           90 
   10000      262.989   -157.58518   -124.57701   -157.58518            0    3321.0604    20.402725    20.068887    20.830378            0            0            0    8529.2064    4376.1486    3463.6986    2123.3339   -1399.4105   -180.11722   -350.87673    20.402725    20.068887    20.830378           90           90           90 
   10500     269.1633   -156.39641    -122.6133   -156.39641            0    1402.9535    20.282171    20.109326    20.656626            0            0            0    8425.0277    1653.4915    3316.2022   -760.83307    2257.2667   -1343.3896   -4240.5292    20.282171    20.109326    20.656626           90           90           90 
   11000    275.32126   -159.48593   -124.92991   -159.48593            0    4961.0312    20.154618    20.188557    20.400333            0            0            0    8300.7458     7204.068    5029.4664    2649.5593   -1640.9287   -1893.9614   -2816.2576    20.154618    20.188557    20.400333           90           90           90 
   11500    260.02482   -159.39786   -126.76172   -159.39786            0    3661.8943    20.309048    20.379699    20.497827            0            0            0    8483.8923   -2310.3436    8568.1275    4727.8989    2551.0724    1494.4628    395.20146    20.309048    20.379699    20.497827           90           90           90 
   12000    263.82984   -158.64017   -125.52646   -158.64017            0    2138.2448    20.227347    20.246315    20.659503            0            0            0    8460.6707    1994.8962     3410.993    1008.8451    -1397.541    522.86067   -504.40989    20.227347    20.246315    20.659503           90           90           90 
   12500    268.98498   -158.79681   -125.03608   -158.79681            0    1293.8834    20.142301    20.062685    20.747914            0            0            0    8384.4114    441.50926    632.73869    2807.4022    1099.0386   -430.50291    1007.5621    20.142301    20.062685    20.747914           90           90           90 
   13000    260.69409   -156.87927   -124.15914   -156.87927            0    3561.4398    20.221644    20.142503    20.873071            0            0            0     8501.905    3730.3819     4586.564    2367.3735   -357.27573    1991.1568   -38.284075    20.221644    20.142503    20.873071           90           90           90 
   13500    267.18908   -160.27582   -126.74049   -160.27582            0   -40.463434     20.14022    20.190526    20.643374            0            0            0    8394.4555    1746.5569   -2063.1847    195.23742   -514.10653    1120.3879   -612.78731     20.14022    20.190526    20.643374           90           90           90 
   14000    262.65176   -160.66784   -127.70199   -160.66784            0    5998.2093    20.249363    20.245834    20.432619            0            0            0    8376.6636     7756.221    4875.3304    5363.0766     143.1481   -275.76116    1031.6162    20.249363    20.245834    20.432619           90           90           90 
   14500    259.56422   -160.89633   -128.31801   -160.89633            0    4743.0226     20.33068     20.20853    20.478884            0            0            0    8413.8138    5068.5468    2375.8935    6784.6275   -344.55208    972.10453   -1304.9891     20.33068     20.20853    20.478884           90           90           90 
   15000    254.32609   -157.51873   -125.59785   -157.51873            0   -684.63163     20.24201    20.168754    20.600564            0            0            0    8410.3062   -3455.8183    5680.6309   -4278.7075    906.51804   -1387.6054     972.7761     20.24201    20.168754    20.600564           90           90           90 
   15500    259.18167   -158.60844   -126.07813   -158.60844            0    2399.5953    20.167824     20.19314    20.657756            0            0            0    8412.9062    2498.1816    2587.0921    2113.5121   -2609.4319    1887.4378    102.41838    20.167824     20.19314    20.657756           90           90           90 
   16000    268.89233   -159.26361    -125.5145   -159.26361            0    900.93153    20.153717    20.174258    20.632514            0            0            0    8388.8973   -702.70679    2910.4378    495.06354    350.31383   -269.41019    289.25515    20.153717    20.174258    20.632514           90           90           90 
   16500    264.66133   -159.08262   -125.86455   -159.08262            0    452.70411    20.231201    20.188631    20.586116            0            0            0    8408.1984   -1703.8012    3716.5039   -654.59038   -825.50474   -3007.9612    1837.1252    20.231201    20.188631    20.586116           90           90           90 
   17000    270.25105   -159.87418   -125.95454   -159.87418            0    4295.0223    20.275945    20.129659    20.511278            0            0            0    8371.6341     5090.788    2515.2503    5279.0285    1768.9082   -402.99047   -1850.3893    20.275945    20.129659    20.511278           90           90           90 
   17500     256.3954    -158.1482    -125.9676    -158.1482            0    3720.4334    20.277511    20.145481    20.541162            0            0            0    8391.0691    3253.5044    3966.7039    3941.0918    2534.5758    -949.6985    1941.1094    20.277511    20.145481    20.541162           90           90           90 
   18000    256.54348   -160.16933   -127.97015   -160.16933            0    50.478871    20.146179    20.324746    20.703762            0            0            0     8477.486   -2762.4934   -193.17241    3107.1025    1115.1606   -389.12531   -3064.5862    20.146179    20.324746    20.703762           90           90           90 
   18500     260.8439   -160.12817   -127.38923   -160.12817            0    4095.2356    19.972481    20.292955    20.815602            0            0            0    8436.5771    6933.4395    3560.0956    1792.1716   -1403.7155    353.19549    91.202596    19.972481    20.292955    20.815602           90           90           90 
   19000     258.3386   -159.10428   -126.67979   -159.10428            0    4545.8857    20.135239    20.110798     20.78526            0            0            0     8416.694    6068.2506    4590.2584    2979.1479   -621.54284    1227.9218    2387.0127    20.135239    20.110798     20.78526           90           90           90 
   19500    263.90716   -159.31744   -126.19403   -159.31744            0    3905.3797    20.381325    19.998954    20.647923            0            0            0    8416.2005    3322.2716    3691.7934    4702.0741    260.84626   -1664.2866   -907.22661    20.381325    19.998954    20.647923           90           90           90 
   20000    252.90151   -159.74098   -127.99891   -159.74098            0    4313.8676    20.413341    20.132835    20.475369            0            0            0    8414.9347    1854.3707    5529.7516    5557.4804    1063.9894    933.83788    1353.5035    20.413341    20.132835    20.475369           90           90           90 
   20500    251.89721   -159.11032    -127.4943   -159.11032            0    5070.0742     20.11436    20.312036    20.277324            0            0            0    8284.5766    5906.8707    3327.5095    5975.8424    -94.36851   -1966.4567    622.88141     20.11436    20.312036    20.277324           90           90           90 
   21000    257.19644   -159.98376   -127.70263   -159.98376            0    1277.4164     20.08671    20.458999    20.489524            0            0            0    8420.2516    3268.3637   -918.53741    1482.4229    472.61975   -2431.5905   -115.31569     20.08671    20.458999    20.489524           90           90           90 
   21500    251.66215   -160.51111   -128.92459   -160.51111            0    949.04424    20.176518    20.167525    20.723471            0            0            0    8432.5967    701.37064    927.75144    1218.0106   -487.63499   -2220.4022   -43.020327    20.176518    20.167525    20.723471           90           90           90 
   22000    260.54951   -159.30437   -126.60239   -159.30437            0     1609.918     20.22132    19.913987     20.77336            0            0            0    8365.1642    2436.6803    834.94042    1558.1332   -55.694759   -1138.0689   -490.49015     20.22132    19.913987     20.77336           90           90           90 
   22500    260.57708   -159.44732   -126.74187   -159.44732            0     1842.507     20.29527    20.074537    20.699064            0            0            0    8433.1744     4490.477   -427.85367    1464.8976   -1487.1814    3754.3378     -3085.02     20.29527    20.074537    20.699064           90           90           90 
   23000    260.55561   -160.74605   -128.04329   -160.74605            0    5322.0895    20.224202     20.25211    20.489746            0            0            0     8392.247    4413.2353    5099.9137    6453.1194    1651.2701   -1175.2714    640.87055    20.224202     20.25211    20.489746           90           90           90 
   23500    271.26872    -160.1378   -126.09043    -160.1378            0    2696.6427    20.155909    20.369437     20.41335            0            0            0    8380.9973    1090.5837      5096.44    1902.9044   -228.30007    4703.8606   -639.12643    20.155909    20.369437     20.41335           90           90           90 
   24000    265.12293   -157.69982   -124.42382   -157.69982            0     1151.585    20.220801    20.339603    20.490263            0            0            0    8427.2982    3094.1775   -258.84252    619.41997    556.55458   -3640.6934      765.705    20.220801    20.339603    20.490263           90           90           90 
   24500    264.94527   -159.09217   -125.83847   -159.09217            0   -461.35217    20.340177    20.105441    20.650048            0            0            0    8444.8007    -3143.369     2892.045   -1132.7325   -1887.5385    906.75621     165.2891    20.340177    20.105441    20.650048           90           90           90 
   25000    267.92649   -159.14554   -125.51766   -159.14554            0    4653.5665    20.245699    19.907797    20.727026            0            0            0     8353.971    1524.3225    7874.1642     4562.213    308.70288    603.85552    113.87652    20.245699    19.907797    20.727026           90           90           90 
   25500     259.9481   -157.60082   -124.97432   -157.60082            0    108.42825    20.222327    20.100567    20.856889            0            0            0    8477.9134    693.85706   -382.97999    14.407681    96.362172    1224.2438    3590.4921    20.222327    20.100567    20.856889           90           90           90 
   26000    272.21258   -158.49627   -124.33043   -158.49627            0   -216.89661    20.155263    20.268647    20.738391            0            0            0    8472.0457    2548.9113   -3218.5988     18.99765   -370.21446   -2154.6056   -364.20204    20.155263    20.268647    20.738391           90           90           90 
   26500    253.30381   -159.07687   -127.28431   -159.07687            0    4371.0873    20.132646    20.287785    20.503914            0            0            0    8374.7582    5965.7222    3383.3079    3764.2319    846.97659    863.11349   -2547.4208    20.132646    20.287785    20.503914           90           90           90 
   27000      266.146   -157.82454   -124.42013   -157.82454            0    2525.8106    20.308499    20.260175    20.420591            0            0            0    8402.1287    4654.3602    282.16522    2640.9063   -1639.6562   -2131.6093     -1141.54    20.308499    20.260175    20.420591           90           90           90 
   27500     264.0819   -159.08062   -125.93528   -159.08062            0    3141.0347    20.384115    20.128918     20.57121            0            0            0    8440.5771    3557.7781    2236.8856    3628.4405   -757.20011     1654.978     585.1105    20.384115    20.128918     20.57121           90           90           90 
   28000    259.00139   -159.61191   -127.10423   -159.61191            0    1926.2435    20.134165    20.082172    20.872814            0            0            0    8439.6673    2872.3739    1141.1236     1765.233    956.50286   -2245.1436   -348.38114    20.134165    20.082172    20.872814           90           90           90 
   28500    258.90455   -157.68463   -125.18911   -157.68463            0    1606.4967    19.958936    20.163282    21.001913            0            0            0    8451.9607   -647.43566    964.34448    4502.5814    48.714392    1684.1408   -3135.2997    19.958936    20.163282    21.001913           90           90           90 
   29000    255.70087   -158.08878   -125.99535   -158.08878            0    3210.1953     20.12313    20.140599    20.730437            0            0            0    8401.8781    4753.4859    1311.0309    3566.0692     531.0085   -3414.6837    1312.5591     20.12313    20.140599    20.730437           90           90           90 
   29500    271.24316   -158.71965   -124.67549   -158.71965            0    2192.3147    20.524982    20.105608    20.476225            0            0            0    8449.8672   -151.23068    8015.3735   -1287.1986   -56.134627    -241.4649    429.56647    20.524982    20.105608    20.476225           90           90           90 
   30000     265.4806   -156.17998   -122.85909   -156.17998            0    4479.9615    20.432875    20.212976    20.378196            0            0            0    8416.3827    5235.4801    1449.9574    6754.4471   -645.87659    1835.6161    1261.5873    20.432875    20.212976    20.378196           90           90           90 
   30500    263.37151   -157.80056   -124.74438   -157.80056            0    1444.3189    20.237944    20.358799    20.564154            0            0            0    8472.8476   -7.9660088    3802.6181    538.30471   -71.591261    -1976.959    846.36473    20.237944    20.358799    20.564154           90           90           90 
   31000    277.51617   -158.87509   -124.04359   -158.87509            0    2399.8076    20.052903     20.24558    20.677181            0            0            0    8394.5767   -878.93511    5861.5043    2216.8535   -659.65252   -2393.7146   -3154.2108    20.052903     20.24558    20.677181           90           90           90 
   31500    258.78196   -157.67167   -125.19153   -157.67167            0     4241.894    20.242822     20.18481    20.808798            0            0            0    8502.4232    4589.6782    5216.8335    2919.1703   -573.16397   -289.40922     32.17575    20.242822     20.18481    20.808798           90           90           90 
   32000    267.31501   -160.01575   -126.46461   -160.01575            0   -776.52368    20.344441     20.11902    20.682797            0            0            0    8465.6801   -6471.1103    3806.6788     334.8605   -1138.1453     346.6142    637.74972    20.344441     20.11902    20.682797           90           90           90 
   32500     269.1722   -158.90388   -125.11965   -158.90388            0    2428.8218    20.252978    20.185396    20.435881            0            0            0    8354.4821    2661.7934    569.86808     4054.804   -192.16713    2097.1006   -2829.4925    20.252978    20.185396    20.435881           90           90           90 
   33000    261.64263   -158.11318   -125.27399   -158.11318            0    20.360694    20.278261    20.455275    20.420148            0            0            0    8470.2244   -921.74971   -503.32663    1486.1584    1868.1655    714.76221   -1188.8388    20.278261    20.455275    20.420148           90           90           90 
   33500    258.43175   -158.94062   -126.50443   -158.94062            0     5002.379    20.155676    20.240613     20.46011            0            0            0    8346.9729    7120.5025     3649.091    4237.5437   -2374.1388   -74.868163    1243.3147    20.155676    20.240613     20.46011           90           90           90 
   34000    250.94855   -159.77409   -128.27713   -159.77409            0    1455.0152    20.239631    19.992039    20.773398            0            0            0    8405.5707    3784.4183   -3486.1788    4066.8061   -977.43032    1481.8434    65.301991    20.239631    19.992039    20.773398           90           90           90 
   34500    249.99272   -160.54804   -129.17105   -160.54804            0    2316.8515    20.232242    19.937108    20.812618            0            0            0    8395.2358    4033.9708    1281.8722    1634.7115    1332.6345    765.32333    1560.0382    20.232242    19.937108    20.812618           90           90           90 
   35000     259.8189   -162.23646   -129.62617   -162.23646            0    1350.1101    20.252185     20.17542    20.621093            0            0            0    8425.7032   -1486.0366    1841.3891    3694.9779   -583.77741   -540.64035   -828.50319    20.252185     20.17542    20.621093           90           90           90 
   35500    257.91505   -160.14588   -127.77455   -160.14588            0     1444.658    20.215946    20.269149    20.404669            0            0            0    8361.0179    407.29326     1954.917    1971.7637   -670.34237    175.04038    563.13614    20.215946    20.269149    20.404669           90           90           90 
   36000    258.02986   -159.37511   -126.98937   -159.37511            0    4420.3304    20.206517    20.242116    20.435545            0            0            0     8358.601     4378.999    4966.5483    3915.4438   -912.78076    103.42797    1032.4299    20.206517    20.242116    20.435545           90           90           90 
   36500    255.43734   -158.23692   -126.17657   -158.23692            0    774.11792    20.291755    20.262286    20.689509            0            0            0    8506.6434    1406.9273   -245.31748     1160.744    682.86914   -964.90313   -730.15462    20.291755    20.262286    20.689509           90           90           90 
   37000    260.79355   -158.65347   -125.92086   -158.65347            0    1857.0449    20.125596    20.137396    20.705742            0            0            0    8391.5629    4941.3146      103.001    526.81928    507.32379    3270.2225   -1493.4989    20.125596    20.137396    20.705742           90           90           90 
   37500    255.77403   -159.33233   -127.22972   -159.33233            0    454.77987    20.164251    20.145492    20.681427            0            0            0    8401.1832    911.36357    1416.6028   -963.62673    1368.8287   -1800.8528   -280.81339    20.164251    20.145492    20.681427           90           90           90 
   38000    265.35562   -158.53929   -125.23408   -158.53929            0    1313.6748    20.382692    20.116304    20.612184            0            0            0    8451.4987    697.51496    1224.3351    2019.1742   -1098.1606   -413.90069   -2633.3035    20.382692    20.116304    20.612184           90           90           90 
   38500    260.90154   -158.12685   -125.38068   -158.12685            0   -3779.4878    20.424446    20.068377    20.528335            0            0            0    8414.2662   -4773.6418     -3769.74   -2795.0815    2580.7024    1990.5989    -1464.503    20.424446    20.068377    20.528335           90           90           90 
   39000    258.26743     -159.711   -127.29544     -159.711            0    3239.8187    20.258284    20.182512     20.55752            0            0            0    8405.2105    3694.4727    4082.0371    1942.9463   -494.73448    -1176.963   -1825.6012    20.258284    20.182512     20.55752           90           90           90 
   39500    262.81778   -159.13052   -126.14384   -159.13052            0   -563.48854    20.004952    20.451101    20.721257            0            0            0    8477.5489    1978.4163   -4178.9019       510.02   -954.19824   -1481.9752    1664.4029    20.004952    20.451101    20.721257           90           90           90 
   40000    257.09624   -158.52812   -126.25955   -158.52812            0    4177.2169    19.895525    20.428664    20.809195            0            0            0    8457.6684    5272.6228     3107.013    4152.0148    1072.3794   -631.72331   -379.35159    19.895525    20.428664    20.809195           90           90           90 
   40500    264.13681   -160.05968   -126.90745   -160.05968            0    5960.9005    20.099377    20.049719    20.765661            0            0            0    8368.2885     4979.691     8509.693    4393.3176   -1910.1605    2635.0308   -2582.9044    20.099377    20.049719    20.765661           90           90           90 
   41000    248.44902   -158.59412   -127.41088   -158.59412            0    2903.9136    20.395773    19.970617    20.622129            0            0            0    8399.7264    3874.3211    3489.7733    1347.6466    1584.6266   -2478.7756    313.83793    20.395773    19.970617    20.622129           90           90           90 
   41500    266.79636   -159.33838   -125.85234   -159.33838            0    4229.6167    20.404294    20.232353    20.525458            0            0            0    8473.4605    3018.3395     3898.512    5771.9984   -2352.3493   -1218.9136    3034.0931    20.404294    20.232353    20.525458           90           90           90 
   42000    262.77245    -159.1862   -126.20521    -159.1862            0    967.43973    20.171028    20.325379    20.559427            0            0            0    8429.0317   -444.07926    470.75507    2875.6434    975.62273    732.65538     2462.386    20.171028    20.325379    20.559427           90           90           90 
   42500    271.29411   -158.92338   -124.87283   -158.92338            0    2477.1393     20.06994    20.108038    20.555122            0            0            0    8295.3713    4145.3781    2467.3976    818.64228   -1617.5009    1015.2201    181.44083     20.06994    20.108038    20.555122           90           90           90 
   43000    265.70598   -158.59887   -125.24968   -158.59887            0   -1817.7745    20.369664    20.191369    20.692779            0            0            0    8510.7621   -2980.1357   -2339.5493   -133.63844    2431.0724    2937.0653   -110.22565    20.369664    20.191369    20.692779           90           90           90 
   43500    261.61037    -158.9259   -126.09076    -158.9259            0    3383.6633    20.260484    20.195194    20.635881            0            0            0    8443.4679    572.54708    8271.6872    1306.7555   -543.02148   -836.18538    750.98572    20.260484    20.195194    20.635881           90           90           90 
   44000    258.61202   -158.36566   -125.90685   -158.36566            0    1520.5599    20.054225    20.276455    20.607269            0            0            0    8379.5047    1352.8376    1471.1785    1737.6637    461.15923    1140.6414    3476.4738    20.054225    20.276455    20.607269           90           90           90 
   44500    250.20147   -157.75873   -126.35554   -157.75873            0    2559.7174    20.075687     20.31201    20.591809            0            0            0    8396.8776   -138.22888    8029.4866   -212.10546   -652.16406   -401.09827   -1799.5182    20.075687     20.31201    20.591809           90           90           90 
   45000    247.60576   -159.99066   -128.91326   -159.99066            0    4005.2504    20.280875    20.159441     20.59396            0            0            0     8419.863    1067.3079    3766.6132      7181.83    704.13782    200.18682   -1469.1124    20.280875    20.159441     20.59396           90           90           90 
   45500    262.68588   -160.69001   -127.71988   -160.69001            0    418.26441    20.348269    20.094823    20.632773            0            0            0     8436.635    986.02649     969.2574   -700.49067    978.37278   -4659.2437   -736.50356    20.348269    20.094823    20.632773           90           90           90 
   46000    258.38055    -159.4295   -126.99974    -159.4295            0     1421.509    20.219291    20.120822     20.58118            0            0            0     8373.016    1742.4368    1506.1416    1015.9487   -1667.9541   -1242.7991   -537.36947    20.219291    20.120822     20.58118           90           90           90 
   46500    253.65376   -158.56063   -126.72414   -158.56063            0    5177.3189    20.159747    20.384327     20.61349            0            0            0     8470.967    4816.0648    5881.8246    4834.0674    439.50136   -1750.8607   -1382.2066    20.159747    20.384327     20.61349           90           90           90 
   47000    264.87972   -159.08077    -125.8353   -159.08077            0    730.41061    20.105294    20.369543    20.570945            0            0            0     8424.535   -1486.6325    1899.1869    1778.6774    685.52792   -951.58868     2629.226    20.105294    20.369543    20.570945           90           90           90 
   47500    261.17821   -157.97725   -125.19636   -157.97725            0   -985.53734    20.260177    20.177784    20.585596            0            0            0    8415.5045   -1268.7399   -1522.2477   -165.62446   -192.41518    2118.6938   -1978.4913    20.260177    20.177784    20.585596           90           90           90 
   48000    256.51097   -157.60271    -125.4076   -157.60271            0     3669.986    20.428163    20.029274     20.66952            0            0            0     8457.167    1725.9829    5610.1676    3673.8076   -159.99249   -1850.5248    552.19591    20.428163    20.029274     20.66952           90           90           90 
   48500    261.32411   -158.71424   -125.91503   -158.71424            0    2786.4575    20.237735    20.064397    20.720597            0            0            0     8413.763    4040.7911    1955.1566    2363.4248   -465.35972    2023.8377   -1805.9011    20.237735    20.064397    20.720597           90           90           90 
   49000    267.32509   -157.27025   -123.71785   -157.27025            0    445.42344    20.094717    20.269688    20.736228            0            0            0    8446.1485    1587.2397   -510.51395    259.54457    447.93852   -2024.0378     909.6689    20.094717    20.269688    20.736228           90           90           90 
   49500    279.64694   -156.55976   -121.46083   -156.55976            0    1914.9337    20.180547    20.255492    20.624914            0            0            0    8430.7823    3030.4453    1463.9027    1250.4531   -507.63227   -3559.8793   -924.77301    20.180547    20.255492    20.624914           90           90           90 
   50000    278.80447   -159.23205   -124.23885   -159.23205            0    2478.3697    20.351551    20.221417    20.495083            0            0            0    8434.4891     1769.948     2937.223    2727.9383   -921.44114    2280.1449    1034.3921    20.351551    20.221417    20.495083           90           90           90 
   50500    267.81404   -159.76684   -126.15307   -159.76684            0    1277.8814    20.415567    20.225503    20.490644            0            0            0    8460.8966   -1792.5557    4829.9278    796.27199    233.97109    915.26979   -1667.0901    20.415567    20.225503    20.490644           90           90           90 
   51000    265.29582   -158.51538   -125.21767   -158.51538            0    2857.2351    20.126612    20.124532    20.631892            0            0            0    8356.7139    347.49305    5752.7482    2471.4641   -167.12138    3532.0289    394.98271    20.126612    20.124532    20.631892           90           90           90 
   51500    261.60318   -158.89865   -126.06442   -158.89865            0    4783.3025    20.070501    20.087194    20.834484            0            0            0    8399.6317     4908.427    4612.8424    4828.6379    1973.6636   -2091.9307   -1026.3276    20.070501    20.087194    20.834484           90           90           90 
   52000    255.20161   -160.25018   -128.21942   -160.25018            0    1813.7803    20.346945    20.120101    20.886985            0            0            0    8550.7678    980.14573    4073.7918    387.40331    1185.9202    586.79986   -363.25634    20.346945    20.120101    20.886985           90           90           90 
   52500    263.55911   -157.92437   -124.84464   -157.92437            0    171.68228    20.372646    20.187194    20.547043            0            0            0    8450.3117    5433.6137   -6548.8077    1630.2408      1062.15   -1239.2908   -2195.9876    20.372646    20.187194    20.547043           90           90           90 
   53000    265.72127   -160.17358   -126.82247   -160.17358            0    4784.0813    20.241073    20.264883    20.350109            0            0            0     8347.268    5354.5396    6143.6882    2854.0162    82.654248    1947.1231   -1848.8679    20.241073    20.264883    20.350109           90           90           90 
   53500    258.78392   -159.15892   -126.67853   -159.15892            0    657.01755    20.207288    20.409886    20.499311            0            0            0    8454.4991   -832.19944    2721.5383    81.713831    1370.6428    1280.5188   -2685.7283    20.207288    20.409886    20.499311           90           90           90 
   54000    255.25895   -156.72795   -124.68999   -156.72795            0    -246.5158    20.186144     20.27829    20.779794            0            0            0    8506.0105     204.1487   -613.25686   -330.43922    1529.7271    915.58292   -2297.8101    20.186144     20.27829    20.779794           90           90           90 
   54500    254.28822   -160.21443   -128.29831   -160.21443            0     3197.489    20.163787    20.077026    20.818389            0            0            0     8427.885    3028.5771     4589.682    1974.2079   -283.68267    1730.1798   0.15607707    20.163787    20.077026    20.818389           90           90           90 
   55000    251.46037   -158.40463   -126.84344   -158.40463            0    1841.9804    20.232358    20.119344    20.760479            0            0            0    8450.7973    796.71468    3297.9359    1431.2907    2541.4675    -1575.534    441.61581    20.232358    20.119344    20.760479           90           90           90 
   55500    253.98876   -159.83075   -127.95222   -159.83075            0    253.23659    20.294558    20.291021    20.566061            0            0            0    8469.0486    1196.4149   -1258.6685    821.96332    631.07091   -468.91381   -579.80317    20.294558    20.291021    20.566061           90           90           90 
   56000     270.8273   -158.83063   -124.83866   -158.83063            0    3009.4279    20.197974    20.290442      20.2809            0            0            0    8311.6364    1295.3302    3816.1829    3916.7704    45.083945   -1971.3011   -588.75109    20.197974    20.290442      20.2809           90           90           90 
   56500    268.85356   -159.81858   -126.07434   -159.81858            0    2022.2005    20.273163    20.358518    20.415635            0            0            0    8426.1769    1426.0161    870.53937    3770.0462    199.36127   -2009.1974    1369.8809    20.273163    20.358518    20.415635           90           90           90 
   57000    260.14756   -158.35454     -125.703   -158.35454            0    1049.9083     20.31663     20.29279    20.845774            0            0            0    8594.3187    850.91001    1224.8287    1073.9862   -266.93363    1018.1998    -506.2534     20.31663     20.29279    20.845774           90           90           90 
   57500    260.83358   -158.95522   -126.21758   -158.95522            0    1212.8156    20.095425     19.95158    20.864615            0            0            0    8365.3645    -488.2727    2935.3996    1191.3198    1045.2426    78.767446   -708.12277    20.095425     19.95158    20.864615           90           90           90 
   58000    258.08868   -159.05716   -126.66404   -159.05716            0    238.65582    20.200881    20.081745    20.887476            0            0            0    8473.4002    -784.2663     2833.744   -1333.5102   -361.93164   -677.00577   -2308.7255    20.200881    20.081745    20.887476           90           90           90 
   58500    263.17037   -159.48467   -126.45373   -159.48467            0    2938.0048    20.243925    20.136005    20.612853            0            0            0    8402.4538   -392.58409    5408.3394     3798.259   -362.94028   -504.06422    -1242.163    20.243925    20.136005    20.612853           90           90           90 
   59000    264.71452   -158.05651   -124.83177   -158.05651            0    399.21531    20.352518    20.286824    20.566176            0            0            0    8491.5261    577.64463    1184.9323   -564.93102   -1291.1001    269.89476   -2171.8887    20.352518    20.286824    20.566176           90           90           90 
   59500    265.48187    -158.6197   -125.29865    -158.6197            0    3830.7095    20.241395    20.235886    20.549126            0            0            0    8416.9748    1015.7065    7498.0763    2978.3456   -1480.9973    2513.7236    2135.8562    20.241395    20.235886    20.549126           90           90           90 
   60000    256.19812   -159.39801   -127.24218   -159.39801            0    314.87734    20.158767    20.207278    20.644862            0            0            0    8409.7636     1416.305   -956.25901    484.58601   -665.12444     153.1861   -1598.8181    20.158767    20.207278    20.644862           90           90           90 
   60500    257.65578   -159.84345   -127.50466   -159.84345            0    -863.7646    20.247639    20.222885    20.789814            0            0            0    8512.7148    65.718368   -3424.0174     767.0052     -818.893     310.0416   -1349.3461    20.247639    20.222885    20.789814           90           90           90 
   61000    263.85502   -158.96698   -125.85011   -158.96698            0    4106.5437    20.220735    20.087497    20.788942            0            0            0    8444.1344    4610.6541    3309.3049    4399.6722   -395.63982   -1666.9387   -1754.9268    20.220735    20.087497    20.788942           90           90           90 
   61500    263.99892    -158.5003   -125.36537    -158.5003            0    1738.7215    20.168244    20.108301    20.729936            0            0            0    8407.0072    2494.5945    3566.4653   -844.89541   -2211.9244   -869.78336    308.52953    20.168244    20.108301    20.729936           90           90           90 
   62000    258.31839   -157.88949   -125.46754   -157.88949            0    779.69435    20.247292    20.328052    20.676402            0            0            0    8510.1592     670.5693    628.51085    1040.0029   -546.04217    394.55706    2400.8145    20.247292    20.328052    20.676402           90           90           90 
   62500     269.3953   -159.71424     -125.902   -159.71424            0    3224.1116    20.223793    20.211801    20.332595            0            0            0    8311.1374     5189.488    1908.5552    2574.2916   -416.39805   -1396.1545    797.46548    20.223793    20.211801    20.332595           90           90           90 
   63000    267.24298   -157.13559    -123.5935   -157.13559            0    3128.3832    20.393354    20.236117     20.34693            0            0            0     8396.818    2474.6557    3936.7191    2973.7747    950.56326    1964.6082    640.57856    20.393354    20.236117     20.34693           90           90           90 
   63500    256.32904   -158.76071   -126.58844   -158.76071            0   -69.029416    20.426261    20.293944    20.679072            0            0            0    8572.0833   -2006.9794   -420.80527    2220.6964    39.397934    118.45147    1867.1942    20.426261    20.293944    20.679072           90           90           90 
   64000    260.37814   -157.73039   -125.04991   -157.73039            0   -1567.5315    20.103246     20.19056     20.78106            0            0            0    8434.9447   -1913.9186   -1895.3069   -893.36909    919.48441     2672.793   -328.43113    20.103246     20.19056     20.78106           90           90           90 
   64500    260.06697   -158.43252    -125.7911   -158.43252            0    2548.8313    20.054925    20.147991     20.77339            0            0            0      8393.83   -77.458638    4588.0886    3135.8639   -952.53267   -896.18947   -250.12887    20.054925    20.147991     20.77339           90           90           90 
   65000    252.06484   -159.91258   -128.27552   -159.91258            0    1768.9336    20.327757    20.167225    20.621615            0            0            0    8453.9228    2808.2524    386.82347     2111.725   -1025.8684    759.28214   -200.51866    20.327757    20.167225    20.621615           90           90           90 
   65500    259.32044   -159.48624   -126.93851   -159.48624            0    1499.4325    20.495666    20.212104    20.485398            0            0            0    8486.2915   -235.06372     3691.265    1042.0963   -162.35897    2344.1713   -1428.6615    20.495666    20.212104    20.485398           90           90           90 
   66000     272.6856   -157.94227   -123.71706   -157.94227            0    3955.7103    20.228032    20.182464    20.364031            0            0            0    8313.6467    543.92239     5501.596    5821.6124   -1079.4135    1889.9343   -3589.2322    20.228032    20.182464    20.364031           90           90           90 
   66500    263.11783   -157.62634   -124.60201   -157.62634            0    903.43905    20.090393    20.350345    20.638921            0            0            0    8438.1491    -34.37329    5603.9262   -2859.2357    1088.1829    3822.8673    804.79806    20.090393    20.350345    20.638921           90           90           90 
   67000    258.55719   -158.79655   -126.34462   -158.79655            0    1697.2928    20.115156    20.258515    20.822858            0            0            0    8485.3809    1461.7322     2289.283    1340.8631    2207.3309    2725.9829    817.50902    20.115156    20.258515    20.822858           90           90           90 
   67500    257.31534   -159.12034   -126.82428   -159.12034            0    672.30003    20.218817    20.030444    20.855478            0            0            0    8446.2992    1383.0673    2973.5578    -2339.725   -284.07949    16.576892    -2604.678    20.218817    20.030444    20.855478           90           90           90 
   68000     251.8961   -158.58753   -126.97165   -158.58753            0    3995.0212    20.312524    20.071718    20.737716            0            0            0    8454.9173     4832.563    5602.7488     1549.752    1014.4943    169.34296     4167.238    20.312524    20.071718    20.737716           90           90           90 
   68500    264.01771   -158.21075   -125.07346   -158.21075            0    3.8169539    20.261225    20.313084    20.513701            0            0            0    8442.7823   -196.02211   -1168.4363    1375.9092   -1034.9046    1052.8283   -194.55145    20.261225    20.313084    20.513701           90           90           90 
   69000    260.05788   -159.75832   -127.11804   -159.75832            0     1934.574     20.18366    20.345033    20.439978            0            0            0    8393.4159    2931.2794    -842.6806    3715.1232    1551.0904   -1405.2418    -316.3512     20.18366    20.345033    20.439978           90           90           90 
   69500    251.40996   -159.31439   -127.75953   -159.31439            0    2176.0868    20.239491    20.209982    20.598501            0            0            0    8425.6055    3946.8942    1541.1875    1040.1788    2144.5064    1834.8873   -2372.8819    20.239491    20.209982    20.598501           90           90           90 
   70000    251.92967   -158.46484   -126.84475   -158.46484            0    3741.8146    20.236778    19.978702    20.689249            0            0            0    8364.7573     3383.761    4307.5368     3534.146    789.63179   -1502.9889    890.57698    20.236778    19.978702    20.689249           90           90           90 
   70500    258.31873   -159.87949   -127.45749   -159.87949            0    670.68163    20.246566    20.090069    20.794436            0            0            0    8458.2388   -173.44718    1602.7634    582.72863   -1391.4619     489.9877    -529.5341    20.246566    20.090069    20.794436           90           90           90 
   71000     258.1621   -159.33756   -126.93522   -159.33756            0    1895.6771    20.129251    20.341709    20.670354            0            0            0    8463.7525    3976.3596   -503.03669    2213.7084    482.18404   -802.15932   -1260.8392    20.129251    20.341709    20.670354           90           90           90 
   71500    255.83194   -158.54801   -126.43814   -158.54801            0    3558.0195    20.114723    20.367376    20.437763            0            0            0    8373.0274     5823.591    1819.9472    3030.5202    928.82364    1106.1069   -2568.5061    20.114723    20.367376    20.437763           90           90           90 
   72000    257.46255   -156.01098   -123.69644   -156.01098            0    1740.4001    20.404448    20.217809     20.45132            0            0            0    8436.8493    4183.0797   -569.93384    1608.0546    291.34123    600.26721    7.7413475    20.404448    20.217809     20.45132           90           90           90 
   72500    258.79497   -157.79401   -125.31224   -157.79401            0   -464.08175    20.598871    20.046933    20.623528            0            0            0    8516.3661    1356.7215   -728.64201   -2020.3248    986.90713     631.0895   -3172.3219    20.598871    20.046933    20.623528           90           90           90 
   73000    259.90579   -159.71885   -127.09766   -159.71885            0      6330.44    20.239488    20.024238     20.63391            0            0            0    8362.5179    7101.3353    3954.2575    7935.7273    -543.8013    4412.5907      -2057.3    20.239488    20.024238     20.63391           90           90           90 
   73500    262.72718   -158.68441    -125.7091   -158.68441            0    2445.5298    20.029569    20.298492    20.713737            0            0            0     8421.585    4073.4084   -100.18745    3363.3683   -1513.9508   -4816.8593   -1847.5158    20.029569    20.298492    20.713737           90           90           90 
   74000    260.92388   -159.52222   -126.77324   -159.52222            0    2224.3425    20.205521    20.347161      20.6603            0            0            0    8493.9655    1525.5624    2252.8314    2894.6337    257.21302   -658.16606   -635.45246    20.205521    20.347161      20.6603           90           90           90 
   74500    264.25946   -159.67483    -126.5072   -159.67483            0    640.16211    20.351668    20.194645    20.524956            0            0            0    8435.6484   -271.41037    1729.8048    462.09194    2487.0487    848.37944    3160.1707    20.351668    20.194645    20.524956           90           90           90 
   75000    262.54345   -158.15441   -125.20216   -158.15441            0    2418.3138    20.280361    20.164259    20.427747            0            0            0    8353.6911   -1731.4651    6778.5484    2207.8581   -1593.5672    2384.4255    1196.9948    20.280361    20.164259    20.427747           90           90           90 
   75500     259.6494    -160.0047   -127.41569    -160.0047            0    2685.4397    20.225645    20.358281    20.524262            0            0            0    8451.0571   -78.176612     3222.416    4912.0799    571.61329    1779.5176    2890.6988    20.225645    20.358281    20.524262           90           90           90 
   76000    268.29748   -159.66638   -125.99194   -159.66638            0    1017.4659    20.186605    20.332677    20.643605            0            0            0    8473.1205    3123.7065    277.38145   -348.69041    295.66775    2454.3791   -641.25639    20.186605    20.332677    20.643605           90           90           90 
   76500    244.30061   -160.22531   -129.56275   -160.22531            0    4863.6109    20.196862    20.087554    20.649344            0            0            0    8377.5537    3559.6098    5737.1994    5294.0235    2141.7499   -793.63196    914.17412    20.196862    20.087554    20.649344           90           90           90 
   77000    245.05965   -160.19292   -129.43509   -160.19292            0    77.852587    20.294431    20.091349    20.635731            0            0            0     8414.064   -136.91666    1113.4671   -742.99269   -2126.8673    1682.6461   -31.253008    20.294431    20.091349    20.635731           90           90           90 
   77500    256.06306   -158.66174   -126.52285   -158.66174            0    3972.1331     20.28379    20.220985    20.511127            0            0            0    8412.8072   -948.32595     8836.481    4028.2441    661.59059    67.668222    1908.4219     20.28379    20.220985    20.511127           90           90           90 
   78000    268.44904   -157.26374   -123.57027   -157.26374            0    3430.0021    20.218201    20.395792    20.491603            0            0            0     8450.045    8099.1241   -1453.4594    3644.3417   -544.59041   -955.56824    -2546.689    20.218201    20.395792    20.491603           90           90           90 
   78500    263.68753   -161.05878   -127.96293   -161.05878            0    1331.9727    20.111618     20.31616    20.501715            0            0            0    8376.8134    2733.6576   -1323.2766    2585.5371    1210.3918   -202.95217   -1845.0659    20.111618     20.31616    20.501715           90           90           90 
   79000    253.07822   -159.56353   -127.79927   -159.56353            0    388.43393    20.229888    20.127835    20.684129            0            0            0     8422.243   -771.77327    650.97374    1286.1013    1386.5525    18.388783   -537.04737    20.229888    20.127835    20.684129           90           90           90 
   79500    257.73832   -157.98347   -125.63432   -157.98347            0    3832.1317    20.333771    19.927807    20.903325            0            0            0    8470.1837    2733.1637    5578.7739    3184.4574   -335.87953   -730.90532    3259.7016    20.333771    19.927807    20.903325           90           90           90 
   80000    266.99321   -158.28598   -124.77523   -158.28598            0    2996.0273    20.268709     19.98224    21.067457            0            0            0    8532.6195    7080.7988    832.78899     1074.494     1301.112     -1437.74   -149.09263    20.268709     19.98224    21.067457           90           90           90 
   80500    256.10354   -157.94482   -125.80086   -157.94482            0   -390.52956    19.992422    20.300684    20.888462            0            0            0    8477.7881   -349.90606    2354.1755   -3175.8581   -2186.5885   -1101.9824   -1802.1523    19.992422    20.300684    20.888462           90           90           90 
   81000    258.40636   -158.36498   -125.93198   -158.36498            0     1252.213       19.979    20.489611     20.50258            0            0            0    8392.9756    7901.3919   -4656.3481    511.59515   -935.12999    1928.3878    2637.1642       19.979    20.489611     20.50258           90           90           90 
   81500    251.39478   -158.78372   -127.23076   -158.78372            0    1497.5309    20.338531    20.348303    20.286956            0            0            0    8395.8495   -74.221747    526.85497    4039.9593   -130.41183    -969.6947    2460.8875    20.338531    20.348303    20.286956           90           90           90 
   82000    264.56356   -160.36454   -127.15874   -160.36454            0    688.18129    20.439322    20.146681    20.411006            0            0            0    8404.9359    -2050.194    3402.7763    711.96161    1788.7349    1521.9149   -45.003003    20.439322    20.146681    20.411006           90           90           90 
   82500    262.25021   -157.08484    -124.1694   -157.08484            0    3666.8793    20.216302    20.130367    20.702134            0            0            0    8424.9733    1085.1208     7316.896    2598.6212   -578.30846    1746.2905   -2595.6145    20.216302    20.130367    20.702134           90           90           90 
   83000    255.50763   -157.51319   -125.44402   -157.51319            0     1003.443    20.075301    20.232736    20.829594            0            0            0    8460.5283    -261.5911    626.17614    2645.7438    1680.9075   -1124.7072    3503.0752    20.075301    20.232736    20.829594           90           90           90 
   83500    263.59606   -158.61702   -125.53265   -158.61702            0    3169.5728    20.178297    20.272349    20.850848            0            0            0    8529.2786    4820.6045    608.57782    4079.5362    803.04733    2341.7659   -2051.3526    20.178297    20.272349    20.850848           90           90           90 
   84000    266.03107   -157.22048   -123.83049   -157.22048            0    3852.7047     20.22073    20.037931    20.570597            0            0            0    8334.8272    3525.7436    4179.1394    3853.2311   -682.02239   -3735.2104    4754.7391     20.22073    20.037931    20.570597           90           90           90 
   84500    261.82915   -158.59289   -125.73029   -158.59289            0     1768.462    20.404438    20.209774    20.596987            0            0            0    8493.5607    1470.0437    1712.1609    2123.1814    829.57574    431.71203    642.44391    20.404438    20.209774    20.596987           90           90           90 
   85000    262.00417   -159.25546   -126.37089   -159.25546            0    3018.7799    20.286515    20.300509    20.501754            0            0            0    8443.1675    5376.4604    1673.9182    2005.9612     410.2188   -2087.4755   -1355.0568    20.286515    20.300509    20.501754           90           90           90 
   85500    273.27824   -158.86086   -124.56127   -158.86086            0    1822.8442    20.114799    20.314833    20.511121            0            0            0    8381.4342    1296.1723     2132.772    2039.5882   -485.52267   -1261.8371    595.56974    20.114799    20.314833    20.511121           90           90           90 
   86000    263.12887   -158.67583    -125.6501   -158.67583            0    2045.8856    20.118406    20.261858    20.661573            0            0            0    8422.4067   -12.528674     3837.826    2312.3594   -31.851473   -344.17947    1489.0759    20.118406    20.261858    20.661573           90           90           90 
   86500    250.98767   -158.78369   -127.28182   -158.78369            0    -116.8374    20.387973    20.105023    20.836467            0            0            0    8540.8817   -193.90903    1052.0318   -1208.6349    1359.1624    2262.5115   -395.01775    20.387973    20.105023    20.836467           90           90           90 
   87000    251.77945   -159.51892   -127.91768   -159.51892            0    752.58332     20.32936    19.925549     20.63702            0            0            0    8359.5133   -802.20821     2799.835    260.12314   -690.95036    1085.1671    975.29046     20.32936    19.925549     20.63702           90           90           90 
   87500    261.20017   -160.00708   -127.22343   -160.00708            0    1976.1655     20.21662    20.154125    20.571312            0            0            0    8381.7461    -1275.659    2824.4319    4379.7236   -157.00448    2371.3278    3997.1944     20.21662    20.154125    20.571312           90           90           90 
   88000    262.95598   -158.93365   -125.92962   -158.93365            0    2939.5031    20.246348    20.357677    20.692539            0            0            0    8528.8149    2273.4528    1417.9316     5127.125     452.6813    1193.2825   -1.4867976    20.246348    20.357677    20.692539           90           90           90 
   88500    254.88675   -158.76902   -126.77778   -158.76902            0   -477.39549    20.198045    20.191728    20.686661            0            0            0    8436.7116   -81.071853   -1617.8097    266.69505    577.72133    -511.4687    445.63199    20.198045    20.191728    20.686661           90           90           90 
   89000    255.99443   -160.90181   -128.77154   -160.90181            0    1270.7897    20.167878     20.11972    20.636979            0            0            0    8373.9094    3853.6307   -1569.9457     1528.684   -387.07788    983.93199   -2601.4166    20.167878     20.11972    20.636979           90           90           90 
   89500    241.16923   -159.43462   -129.16508   -159.43462            0    -991.4085     20.21379    20.239423    20.518437            0            0            0    8394.4093    -1505.884    283.97827   -1752.3198    397.24249    -2473.381    2151.7388     20.21379    20.239423    20.518437           90           90           90 
   90000    246.48134   -159.67156    -128.7353   -159.67156            0    1486.2705    20.258677    20.326964    20.485317            0            0            0    8435.8004    2175.9074    670.50645    1612.3976   -855.72639   -670.53971   -1717.0533    20.258677    20.326964    20.485317           90           90           90 
   90500    264.13096   -159.52692   -126.37542   -159.52692            0    1474.5131    20.250617    20.206023    20.599302            0            0            0    8428.9138   -1840.0286    3078.7928    3184.7751    330.37945    1782.7667    1514.3947    20.250617    20.206023    20.599302           90           90           90 
   91000     265.0119   -159.63811   -126.37604   -159.63811            0    2767.3599      20.1788    20.072434    20.658965            0            0            0    8367.6583    3130.3251     3178.288    1993.4667    2438.7254    591.70114    264.74562      20.1788    20.072434    20.658965           90           90           90 
   91500    238.07445   -159.59972   -129.71862   -159.59972            0    306.76979    20.263579    20.179625    20.919012            0            0            0    8554.0225    2999.2555   -476.63501   -1602.3111   -387.35666   -1231.8195    1801.8374    20.263579    20.179625    20.919012           90           90           90 
   92000    264.19125    -160.6583   -127.49923    -160.6583            0    4971.3118    20.023151    20.154418    20.952383            0            0            0     8455.438    8644.1963    2075.7393    4193.9998   -1019.5354   -204.76567    415.47337    20.023151    20.154418    20.952383           90           90           90 
   92500    264.36242   -160.35881   -127.17826   -160.35881            0    1063.2458    20.012257    20.071798    20.815662            0            0            0    8361.2764    3262.8773    989.34318   -1062.4832    1453.3882   -1008.8722    1379.5628    20.012257    20.071798    20.815662           90           90           90 
   93000    248.32567    -157.7595   -126.59175    -157.7595            0    2664.6758    20.487501    20.170449    20.501266            0            0            0    8471.9862    1695.1291    2268.2038    4030.6945   -1081.8629   -1144.2171   -1348.6433    20.487501    20.170449    20.501266           90           90           90 
   93500    247.10607   -158.23108    -127.2164   -158.23108            0    4252.3108    20.586403     20.22544    20.274057            0            0            0      8441.49     4488.827    3004.2524    5263.8531   -1418.7853    2552.0489    106.05303    20.586403     20.22544    20.274057           90           90           90 
   94000    252.56885   -159.11984   -127.41952   -159.11984            0    1384.1415    20.217079    20.178519    20.342903            0            0            0    8298.9014    647.71344    2800.6761    704.03492    398.51789    113.67851    528.66462    20.217079    20.178519    20.342903           90           90           90 
   94500    251.55225   -159.08166   -127.50893   -159.08166            0    2576.2543    20.163921    20.295146    20.688892            0            0            0    8466.5097    4439.7207    1682.9727    1606.0696   -1431.9417    1038.3481    284.64281    20.163921    20.295146    20.688892           90           90           90 
   95000    246.12034   -160.27904   -129.38808   -160.27904            0     2673.784    20.189658    20.254715    20.850245            0            0            0     8526.411    3951.5745    2242.0366     1827.741   -146.73481   -957.38225   -495.59673    20.189658    20.254715    20.850245           90           90           90 
   95500    267.46496   -160.08832   -126.51836   -160.08832            0    2358.9303    20.218899    20.128879    20.834523            0            0            0    8479.3129    334.47342    4483.2288    2259.0887    1079.7091    478.26507     2753.689    20.218899    20.128879    20.834523           90           90           90 
   96000    274.95137   -159.62895   -125.11936   -159.62895            0    4197.4377    20.175554    20.143327    20.623832            0            0            0    8381.5829    3405.8067    6002.0939    3184.4126     277.3963    4.0849664   -668.39973    20.175554    20.143327    20.623832           90           90           90 
   96500    266.61508   -159.35365   -125.89036   -159.35365            0    2208.1429    20.311671    20.354763     20.42542            0            0            0    8444.6707    3756.7564   -1229.2386    4096.9108    146.27623   -4620.3118    66.583447    20.311671    20.354763     20.42542           90           90           90 
   97000     261.9517   -159.63494   -126.75696   -159.63494            0    1750.2515    20.421268    20.355834     20.36367            0            0            0    8465.0134    3018.0744     538.7497    1693.9305     -1805.04    1132.0635    1831.3442    20.421268    20.355834     20.36367           90           90           90 
   97500    261.70285   -159.11376   -126.26702   -159.11376            0    4459.5528    20.263615    20.110887    20.445374            0            0            0     8331.884    2408.1327    6331.9568    4638.5689   -132.58827   -1355.5176   -1904.7614    20.263615    20.110887    20.445374           90           90           90 
   98000    252.84309   -159.79129   -128.05655   -159.79129            0    3430.6762    20.226374    20.166876    20.760234            0            0            0     8468.157     7391.689     1249.117    1651.2227   -1035.2397    561.00694   -207.56856    20.226374    20.166876    20.760234           90           90           90 
   98500    255.03881   -158.77678   -126.76645   -158.77678            0    4135.9404    20.138427     20.23525    20.785338            0            0            0    8470.1522     6299.938    2134.1573     3973.726   -2178.2665   -991.81264    1906.1595    20.138427     20.23525    20.785338           90           90           90 
   99000    254.44208   -158.78075   -126.84531   -158.78075            0    4697.4142    20.189978    20.341334    20.704373            0            0            0    8503.1015    1738.1573    4483.6453    7870.4401   -463.94898     1512.833    432.67432    20.189978    20.341334    20.704373           90           90           90 
   99500    265.96342    -157.4544    -124.0729    -157.4544            0    1479.9758    20.166598     20.23968    20.465632            0            0            0     8353.365     1417.577    2982.6598    39.690792   -47.579341    1439.0025    673.94188    20.166598     20.23968    20.465632           90           90           90 
  100000    254.62906   -158.55433   -126.59543   -158.55433            0    1650.0458    20.320667     20.15752    20.451792            0            0            0    8377.3455    1188.7144    3488.0624    273.36055   -200.98437    -237.9026   -2129.7674    20.320667     20.15752    20.451792           90           90           90 
  100500    264.52381   -158.69077   -125.48997   -158.69077            0    3190.1173    20.446782     20.17891    20.577536            0            0            0    8490.1637    3503.6638    5428.0902    638.59801   -285.04786   -210.10778     117.6808    20.446782     20.17891    20.577536           90           90           90 
  101000     256.6236   -158.90745   -126.69822   -158.90745            0    3102.6467    20.218308    20.029179     20.62952            0            0            0    8354.0502     5612.667    1822.5513    1872.7217     1219.975   -1435.0314    1513.0856    20.218308    20.029179     20.62952           90           90           90 
  101500    254.91777   -158.95717   -126.96204   -158.95717            0   -2015.7567    20.109222    20.269431    20.904195            0            0            0    8520.6016    2364.1964   -4173.6035    -4237.863    1182.9379    687.12724   -1268.4941    20.109222    20.269431    20.904195           90           90           90 
  102000    254.55624   -158.35077   -126.40101   -158.35077            0    493.64632     20.04174    20.336946    20.764163            0            0            0    8463.2193    1105.7335     150.5834    224.62208    1076.5678   -976.48363   -3679.3615     20.04174    20.336946    20.764163           90           90           90 
  102500    248.07783   -158.09619   -126.95955   -158.09619            0    3532.3465    20.321316    20.256286    20.516654            0            0            0    8445.3601   -505.73745    3263.8762    7838.9009    1239.6869    1196.6463   -1864.2231    20.321316    20.256286    20.516654           90           90           90 
  103000    257.29802   -158.03272   -125.73883   -158.03272            0    2269.2032     20.43274    20.225811    20.453466            0            0            0    8452.7781    72.561023    3197.5839    3537.4646    3.8511548   -106.49207   -1800.6911     20.43274    20.225811    20.453466           90           90           90 
  103500     250.1861   -158.76575   -127.36449   -158.76575            0    1770.8732    20.120992    20.226769    20.424465            0            0            0     8312.403    1967.0528    2764.1533    581.41357   -1187.0238    1491.9104    840.38366    20.120992    20.226769    20.424465           90           90           90 
  104000    256.63772    -157.8739   -125.66289    -157.8739            0    2114.7885     20.11341    20.364122    20.711057            0            0            0    8483.0815     6287.593   -115.09191    171.86431   -29.659211    -1464.824   -167.35884     20.11341    20.364122    20.711057           90           90           90 
  104500    249.63316   -158.61466    -127.2828   -158.61466            0    1734.0382    20.200308    20.089676    20.773366            0            0            0    8430.1985    2095.6577    223.81973    2882.6372   -782.60537   -310.93969   -1022.8324    20.200308    20.089676    20.773366           90           90           90 
  105000    271.04631   -159.01716    -124.9977   -159.01716            0    3245.7822    20.340824     20.05954    20.692457            0            0            0    8443.0929    1280.1782    6072.1226    2385.0456   -221.75186    366.27942   -1709.4501    20.340824     20.05954    20.692457           90           90           90 
  105500     269.3743   -158.76463   -124.95503   -158.76463            0     2309.544    20.341916    20.269485    20.529402            0            0            0    8464.6863    297.24425    4979.9079    1651.4797   -936.06143   -141.65089   -956.12789    20.341916    20.269485    20.529402           90           90           90 
  106000     252.1224   -157.82446   -126.18018   -157.82446            0    1255.2808    20.209263    20.445062    20.530477            0            0            0     8482.775    564.76966    3039.7181    161.35454   -1437.9364   -1015.1759    1661.9126    20.209263    20.445062    20.530477           90           90           90 
  106500     263.4717   -159.27853   -126.20978   -159.27853            0    960.34345     20.15049    20.306279    20.652127            0            0            0    8450.4676     1826.589   -214.61177    1269.0532   -218.99651   -244.58595    1689.2059     20.15049    20.306279    20.652127           90           90           90 
  107000    254.26838   -158.72822   -126.81459   -158.72822            0    2220.5947    20.200825     20.04727    20.692694            0            0            0    8379.9488    3436.7895    3326.8442   -101.84965    35.624323    1461.0703   -1926.7636    20.200825     20.04727    20.692694           90           90           90 
  107500    252.89395   -158.02401   -126.28289   -158.02401            0    194.30588    20.419425    20.077966    20.711613            0            0            0    8491.3579    1359.9275   -1552.0652    775.05535    765.02036   -1749.5898   -1896.9145    20.419425    20.077966    20.711613           90           90           90 
  108000    264.74609   -157.97097   -124.74226   -157.97097            0     1301.533     20.30649    20.282661    20.516948            0            0            0    8450.3081    1304.8008    827.42918     1772.369    497.50003    993.32614   -710.19284     20.30649    20.282661    20.516948           90           90           90 
  108500    260.61492   -157.62716   -124.91697   -157.62716            0    1094.2692     20.09332    20.450839    20.494947            0            0            0    8421.8908    4228.3602   -1592.0267    646.47414    1176.6648   -608.70929   -1759.2348     20.09332    20.450839    20.494947           90           90           90 
  109000    260.30235   -159.47028   -126.79932   -159.47028            0    -1000.986    20.173077     20.31015    20.666261            0            0            0     8467.344     3986.982   -7037.0565    47.116379   -346.19308    54.242344   -69.719993    20.173077     20.31015    20.666261           90           90           90 
  109500    262.97328   -158.90535   -125.89916   -158.90535            0   -971.94996    20.237761     19.99355    20.757117            0            0            0    8398.8423    -2989.739    1970.7511   -1896.8619   -586.79547   -802.98597   -1351.3919    20.237761     19.99355    20.757117           90           90           90 
  110000    252.36224   -158.47019    -126.7958   -158.47019            0    35.844917    20.251135     20.13377    20.871428            0            0            0    8509.9432    768.57876    1183.6009   -1844.6449    1151.7503   -54.944869    3103.0042    20.251135     20.13377    20.871428           90           90           90 
  110500    244.26863   -158.76854      -128.11   -158.76854            0       4069.2    20.080169    20.250528    20.622979            0            0            0    8386.0051    7100.4841   -552.92637    5660.0423    1132.1412   -1409.3197   -1649.5736    20.080169    20.250528    20.622979           90           90           90 
  111000    257.41153   -158.60857   -126.30043   -158.60857            0    2414.8347    20.174482    20.301254    20.424619            0            0            0    8365.2556    3736.3437   -728.07569    4236.2362    930.96847    2684.2037   -661.14806    20.174482    20.301254    20.424619           90           90           90 
  111500    257.38142   -158.51771   -126.21336   -158.51771            0   -419.12941    20.400483    20.233128    20.410071            0            0            0    8424.5751   -1336.1441    889.91101   -811.15517    2299.9539    574.71735   -3311.0531    20.400483    20.233128    20.410071           90           90           90 
  112000    255.98857   -158.51551   -126.38598   -158.51551            0    3666.3772    20.391662    20.096099    20.528242            0            0            0    8412.3268    2911.5842    2819.5541    5267.9931   -1135.1569   -1091.8618    185.71799    20.391662    20.096099    20.528242           90           90           90 
[...]
  373000    255.03101   -161.86687   -129.85752   -161.86687            0     2713.306    20.151582    20.120515    20.627817            0            0            0     8363.759   -1446.3231    6305.0431     3281.198       177.63    1603.7448    3320.4445    20.151582    20.120515    20.627817           90           90           90 
  373500    257.15298   -159.97669   -127.70101   -159.97669            0    3287.5378    20.227697    20.131065     20.50837            0            0            0    8351.1127    -997.8601     4106.322    6754.1514    200.99377    2126.7546   -88.780686    20.227697    20.131065     20.50837           90           90           90 
  374000    262.49578   -158.11802   -125.17176   -158.11802            0   -775.90244    20.318209    20.219924    20.502454            0            0            0    8423.0775   -1417.5058   -539.95367   -370.24783   -2086.9664    2361.5132   -627.96709    20.318209    20.219924    20.502454           90           90           90 
  374500    269.41136   -157.39174   -123.57749   -157.39174            0    4341.1882    20.329044    20.209425    20.557737            0            0            0    8445.9054    3555.9427    6204.4923    3263.1296     1076.427    1146.4708    380.52297    20.329044    20.209425    20.557737           90           90           90 
  375000    273.83111   -157.69049   -123.32151   -157.69049            0    693.81065     20.26169    20.300346    20.783922            0            0            0    8548.8283   -691.59105    646.63072    2126.3923   -894.37712   -1818.2804    2235.9837     20.26169    20.300346    20.783922           90           90           90 
  375500    266.01358   -159.49086   -126.10307   -159.49086            0    4943.1545    19.940064    20.170015    20.790229            0            0            0    8361.6511    5984.9904    6753.8826    2090.5904    1414.6518    2026.0355    804.33466    19.940064    20.170015    20.790229           90           90           90 
  376000    272.29008   -159.41296   -125.23739   -159.41296            0    2778.3729    20.067428    20.240382    20.802107            0            0            0    8449.2418    2826.6088    3758.5842    1749.9258   -293.47171   -78.065386    842.50031    20.067428    20.240382    20.802107           90           90           90 
  376500    271.18724   -158.19745   -124.16031   -158.19745            0     366.9259    20.431299    20.233917    20.616235            0            0            0    8522.8588     435.9099   -27.013232    691.88102    810.52607    1928.4655   -3127.3795    20.431299    20.233917    20.616235           90           90           90 
  377000    250.44936    -159.1415    -127.7072    -159.1415            0     992.1567    20.400601    20.202801    20.344706            0            0            0    8385.0558    185.18656    3225.8293   -434.54575   -680.99317    243.60019     1529.847    20.400601    20.202801    20.344706           90           90           90 
  377500    252.25105   -159.76339   -128.10295   -159.76339            0    2498.8598    20.291292    20.256943    20.354574            0            0            0    8366.5349    851.01275    1223.1926    5422.3742   -250.31441    18.111679    -1221.465    20.291292    20.256943    20.354574           90           90           90 
  378000    257.36066   -158.19699   -125.89524   -158.19699            0    4765.2036    20.218543    20.278646    20.667382            0            0            0    8473.7234    6659.9763    1656.9424     5978.692    2066.6531    1415.7172    601.11258    20.218543    20.278646    20.667382           90           90           90 
  378500    259.13233   -160.06936   -127.54525   -160.06936            0   -259.14671    20.156354    20.174867    20.912084            0            0            0    8503.9357   -176.43715    50.159989   -651.16296    41.216336   -1959.5243   -1715.1627    20.156354    20.174867    20.912084           90           90           90 
  379000    255.68302   -157.79754   -125.70635   -157.79754            0    666.69732    20.191988    20.048715    20.998194            0            0            0    8500.5608   -458.45824     4427.078   -1968.5278    -436.6085   -2208.3714    431.59423    20.191988    20.048715    20.998194           90           90           90 
  379500    248.98133   -158.03132   -126.78128   -158.03132            0     2431.442    20.200164    20.135155    20.781674            0            0            0    8452.6017   -802.27495    6577.3349    1519.2659    127.51777    946.69189   -869.65903    20.200164    20.135155    20.781674           90           90           90 
  380000    248.54231   -158.71536   -127.52041   -158.71536            0    691.71946    20.246467    20.363781    20.483515            0            0            0     8445.243   -1077.0918    709.31559    2442.9346   -838.69936   -1463.9593    1929.3427    20.246467    20.363781    20.483515           90           90           90 
  380500    257.52397   -160.45693   -128.13469   -160.45693            0    3114.7953    20.274873    20.375568     20.34993            0            0            0    8406.8014     3445.522    2417.3027    3481.5612    1254.9666    123.00437    668.75739    20.274873    20.375568     20.34993           90           90           90 
  381000    262.22289   -160.39252   -127.48051   -160.39252            0    1004.0909    20.332986    20.225899    20.467614            0            0            0    8417.3658   -574.34333    1698.3928    1888.2232    888.95181    806.29868   -443.33704    20.332986    20.225899    20.467614           90           90           90 
  381500     270.8425   -157.49919   -123.50531   -157.49919            0    87.445575    20.327624    20.059222    20.759422            0            0            0    8464.7855    3263.6742   -2357.2003   -644.13717   -1867.1066   -2427.6458   -1999.0766    20.327624    20.059222    20.759422           90           90           90 
  382000    258.42749    -157.8908   -125.45515    -157.8908            0   -510.25617    20.307362    20.102847    21.023179            0            0            0    8582.4142    436.99006   -361.84374   -1605.9148    565.33867    1215.5838    461.61942    20.307362    20.102847    21.023179           90           90           90 
  382500    268.19685   -157.28572    -123.6239   -157.28572            0    3074.3368    20.137548    20.095415    20.872678            0            0            0    8446.5961    3915.6959    4968.1097     339.2048    -634.2278    1642.2219    3550.3188    20.137548    20.095415    20.872678           90           90           90 
  383000    265.19084   -157.72435   -124.43982   -157.72435            0    2512.0522    20.147514    20.205529    20.626691            0            0            0    8396.9437   -1212.5016    3935.9974    4812.6607     1915.599    926.10234    -2010.848    20.147514    20.205529    20.626691           90           90           90 
  383500    267.35291   -156.54341   -122.98752   -156.54341            0    3278.2334    20.353558    20.378719    20.658209            0            0            0    8568.6002    3981.5252    3178.5761    2674.5988   -733.01276     1265.055    1253.2687    20.353558    20.378719    20.658209           90           90           90 
  384000    257.58758   -158.79379   -126.46356   -158.79379            0    713.12382    20.265351    20.240529     20.63001            0            0            0    8462.0465    3191.5839   -2593.8413    1541.6289   -828.25786   -1202.8682    2494.5082    20.265351    20.240529     20.63001           90           90           90 
  384500    259.63083   -159.35413   -126.76745   -159.35413            0    622.37558    20.118095    20.103989    20.696365            0            0            0     8370.727   -267.00977    1757.5501    376.58644   -1788.8931     81.02884   -852.69257    20.118095    20.103989    20.696365           90           90           90 
  385000    248.39916   -159.24524   -128.06827   -159.24524            0    908.96584    20.278818    20.139057    20.775344            0            0            0    8484.5729    526.92107    3613.3676   -1413.3911   -512.72314    1624.8355    300.56305    20.278818    20.139057    20.775344           90           90           90 
  385500    256.76858   -159.75958   -127.53214   -159.75958            0    52.393457    20.453595    20.148239    20.858533            0            0            0     8595.883    816.91018   -2633.1755    1973.4457   -218.66875    1071.0947   -339.85215    20.453595    20.148239    20.858533           90           90           90 
  386000     256.9286   -158.44498   -126.19746   -158.44498            0    676.74107    20.245986    19.973232    20.611483            0            0            0    8334.8258    1325.9013    226.37049    477.95141    7.0377962    592.24141    738.47044    20.245986    19.973232    20.611483           90           90           90 
  386500    265.03861   -158.39026   -125.12484   -158.39026            0    254.27775    20.182838    20.253166    20.616403            0            0            0     8427.292    1784.5228   -2627.5537    1605.8641    45.999907    2503.6887     2073.469    20.182838    20.253166    20.616403           90           90           90 
  387000    258.80264   -159.02522   -126.54248   -159.02522            0    1681.6825    20.176451    20.485655    20.643431            0            0            0    8532.5038    6112.1647   -1998.6137    931.49643    1221.0425    831.26758    1857.0912    20.176451    20.485655    20.643431           90           90           90 
  387500    251.18302   -157.01838   -125.49199   -157.01838            0    2743.4438    20.211535    20.275356    20.693148            0            0            0    8479.9711    1552.8982    4128.7412     2548.692    150.03476   -1802.3732   -3346.2926    20.211535    20.275356    20.693148           90           90           90 
  388000    257.05997   -160.67531    -128.4113   -160.67531            0      1455.31    20.273446    19.968363    20.729217            0            0            0    8391.7574   -1913.5271     4976.033    1303.4241   0.78944203   -38.012565     2239.394    20.273446    19.968363    20.729217           90           90           90 
  388500    247.48293   -159.99371   -128.93173   -159.99371            0    3174.5926    20.288644    19.982874     20.62083            0            0            0    8360.2083    2914.2398    5425.1159     1184.422   -349.22635     -2631.22   -468.53365    20.288644    19.982874     20.62083           90           90           90 
  389000    253.82194   -160.16661   -128.30901   -160.16661            0    519.07246    20.258191    20.406681    20.519988            0            0            0     8483.013   -508.33171   -2700.3544    4765.9035    448.72687   -1646.4449    1466.6416    20.258191    20.406681    20.519988           90           90           90 
  389500    251.17481   -159.36177   -127.83641   -159.36177            0    3191.2684    20.189756    20.441363    20.548266            0            0            0    8480.3957    4655.1788    786.57023    4132.0561    1897.2703   -2826.7609    2189.3458    20.189756    20.441363    20.548266           90           90           90 
  390000    252.70942     -160.533   -128.81503     -160.533            0    3627.1177    20.112588    20.099195    20.622605            0            0            0    8336.6226    2811.6164    4928.1392    3141.5974    424.49725    555.49388   -3693.7728    20.112588    20.099195    20.622605           90           90           90 
  390500     261.6944   -159.28516   -126.43947   -159.28516            0    3952.8456    20.209647     20.10983    20.757215            0            0            0    8435.9931    932.05437    7044.3177    3882.1646   -1089.0336   -397.19072    1618.6308    20.209647     20.10983    20.757215           90           90           90 
  391000    273.44195   -158.97709   -124.65695   -158.97709            0    2394.6742       20.314    20.214437    20.748457            0            0            0     8520.065    6545.3846   -665.12102    1303.7592   -688.74447   -559.21634    809.60127       20.314    20.214437    20.748457           90           90           90 
  391500    278.17746   -157.61825   -122.70376   -157.61825            0    2965.5748    20.219411    20.245765    20.601558            0            0            0    8433.4013    2374.5892    4473.2343     2048.901    533.73693    683.81762    216.60576    20.219411    20.245765    20.601558           90           90           90 
  392000    249.85782   -160.06982   -128.70977   -160.06982            0    1940.3769     20.21399    20.218505    20.513175            0            0            0    8383.6659    1334.0901    3534.3118    952.72889   -294.42295   -682.37051   -1882.3777     20.21399    20.218505    20.513175           90           90           90 
  392500     248.8154   -159.55855   -128.32934   -159.55855            0     113.1581    20.308927    20.170614    20.502672            0            0            0     8398.787    2226.1478   -2543.0478    656.37431   -1210.2646    447.54971   -1548.1369    20.308927    20.170614    20.502672           90           90           90 
  393000    260.01898   -158.23938   -125.60398   -158.23938            0    1395.2866    20.393013    20.161365    20.594882            0            0            0     8467.606    1921.7743    1821.5627    442.52277    325.66246    532.76192   -1111.5454    20.393013    20.161365    20.594882           90           90           90 
  393500    265.34022   -156.40984   -123.10657   -156.40984            0     1874.876    20.159538    20.124318    20.758525            0            0            0    8421.6702   -1201.8644    4153.1667    2673.3257   -210.91161   -518.63249   -3897.2045    20.159538    20.124318    20.758525           90           90           90 
  394000    265.00113   -159.77368   -126.51296   -159.77368            0    4583.7937     19.90393    20.277158    20.913308            0            0            0    8440.5094    3450.5732    9067.6884    1233.1196    130.98886    2246.7095    612.17391     19.90393    20.277158    20.913308           90           90           90 
  394500    255.06734   -159.64276   -127.62885   -159.64276            0    319.56536    20.104857    20.371877    20.833097            0            0            0    8532.6882    3404.6268    -1819.729   -626.20174    336.04656   -273.11946   -4433.3579    20.104857    20.371877    20.833097           90           90           90 
  395000    265.00752   -159.03889   -125.77737   -159.03889            0     2288.551    20.374542    20.188092    20.393583            0            0            0    8388.3524    969.78088    3991.7147    1904.1573    922.25024    382.75983    1699.2954    20.374542    20.188092    20.393583           90           90           90 
  395500    251.94757   -159.08262   -127.46028   -159.08262            0    1500.2112    20.460686      20.1523    20.337407            0            0            0     8385.721     758.9404     -381.319    4123.0122    1210.0514     1146.123    212.96931    20.460686      20.1523    20.337407           90           90           90 
  396000    255.95006   -159.74145   -127.61675   -159.74145            0    754.38491    20.314288     20.21726    20.585066            0            0            0    8454.2712    2384.1426    234.89367   -355.88156   -2500.3553   -1619.7036   -862.00695    20.314288     20.21726    20.585066           90           90           90 
  396500    258.11429   -161.08661   -128.69028   -161.08661            0    4832.6226    20.102626    20.204465     20.77094            0            0            0     8436.383    4960.3106     3530.357    6007.2002   -426.46319   -3656.7756    3157.7589    20.102626    20.204465     20.77094           90           90           90 
  397000    251.25651   -158.01488   -126.47927   -158.01488            0    2485.2279    20.135815    20.167729     20.76148            0            0            0    8431.1052    1759.5601    4353.2828    1342.8408    509.86919   -26.448377    408.75386    20.135815    20.167729     20.76148           90           90           90 
  397500    259.77065   -158.86777   -126.26354   -158.86777            0    1669.7342    20.264897    20.176258    20.694897            0            0            0    8461.5181    932.34876    1987.8628     2088.991   -486.37774   -1210.8844    103.27772    20.264897    20.176258    20.694897           90           90           90 
  398000     253.4398   -158.05725   -126.24761   -158.05725            0    3482.8285    20.212103     20.24631    20.577254            0            0            0    8420.6342     6376.027    1520.9956    2551.4631    548.67894    1492.9039   -29.647655    20.212103     20.24631    20.577254           90           90           90 
  398500    265.48047   -159.32405   -126.00317   -159.32405            0    22.131468     20.16053    20.292323    20.576072            0            0            0     8417.753    1890.0057   -255.18411   -1568.4272   -2039.5883    521.94153   -2088.4138     20.16053    20.292323    20.576072           90           90           90 
  399000    245.10035   -160.35559   -129.59265   -160.35559            0    2140.8341     20.22751      20.3043    20.644919            0            0            0    8478.9807    3849.9122    -1220.278    3792.8682    836.93087    1211.2812   -1037.3486     20.22751      20.3043    20.644919           90           90           90 
  399500    247.42216   -158.18162   -127.12727   -158.18162            0    5661.9709    20.230295    20.084383    20.641294            0            0            0    8386.8261    8129.5685    3614.8484    5241.4957   -1468.9449     130.5215    645.90783    20.230295    20.084383    20.641294           90           90           90 
  400000    244.99332   -159.05853   -128.30903   -159.05853            0    1385.1269    20.225395    20.095881    20.660214            0            0            0     8397.285   -1678.2434    2380.7058    3452.9183    1381.4805    1095.1426   -795.66107    20.225395    20.095881    20.660214           90           90           90 
Loop time of 2391.21 on 1 procs for 400000 steps with 972 atoms

Performance: 7.226 ns/day, 3.321 hours/ns, 167.279 timesteps/s
70.3% CPU use with 1 MPI tasks x 1 OpenMP threads

MPI task timing breakdown:
Section |  min time  |  avg time  |  max time  |%varavg| %total
---------------------------------------------------------------
Pair    | 2116.8     | 2116.8     | 2116.8     |   0.0 | 88.52
Bond    | 0.047954   | 0.047954   | 0.047954   |   0.0 |  0.00
Neigh   | 245.83     | 245.83     | 245.83     |   0.0 | 10.28
Comm    | 9.7283     | 9.7283     | 9.7283     |   0.0 |  0.41
Output  | 1.8811     | 1.8811     | 1.8811     |   0.0 |  0.08
Modify  | 15.514     | 15.514     | 15.514     |   0.0 |  0.65
Other   |            | 1.407      |            |       |  0.06

Nlocal:        972.000 ave         972 max         972 min
Histogram: 1 0 0 0 0 0 0 0 0 0
Nghost:        4567.00 ave        4567 max        4567 min
Histogram: 1 0 0 0 0 0 0 0 0 0
Neighs:         0.00000 ave           0 max           0 min
Histogram: 1 0 0 0 0 0 0 0 0 0
FullNghs:      242216.0 ave      242216 max      242216 min
Histogram: 1 0 0 0 0 0 0 0 0 0

Total # of neighbors = 242216
Ave neighs/atom = 249.19342
Ave special neighs/atom = 0.0000000
Neighbor list builds = 40000
Dangerous builds not checked

unfix		3
unfix		2

write_data	data.final.${pid}
write_data	data.final.0
System init for write_data ...

write_restart   restart.lmp.${pid}
write_restart   restart.lmp.0
System init for write_restart ...
Total wall time: 0:40:18
