LAMMPS data file via write_data, version 29 Sep 2021, timestep = 400000

864 atoms
2 atom types

0.17841078979921754 18.029162210201104 xlo xhi
0.1427411418335769 23.486435858165336 ylo yhi
0.08253924882069086 22.13065675117886 zlo zhi

Masses

1 1.008
2 15.999

Atoms # full

706 0 1 -1.1794 3.1756502750565945 1.9320698388254 3.169662465932849 0 0 0
708 0 2 0.5897 2.397726927248592 2.2008491405149435 2.6588473396758543 0 0 0
707 0 2 0.5897 2.926058996010256 1.967948464924764 4.159582354081054 0 0 0
1 0 1 -1.1794 0.8510688314908759 2.747136790680495 2.0495849170649523 0 0 0
188 0 2 0.5897 3.3038477529632875 0.23168294712893822 2.475284050873279 0 0 0
29 0 2 0.5897 4.449360251882217 2.915673128651358 2.76109909235031 0 0 0
20 0 2 0.5897 0.7914936247478169 3.0480996645404934 0.395784859169886 0 0 0
3 0 2 0.5897 0.6857611398090416 3.5181592271738893 2.5706370506137963 0 0 0
30 0 2 0.5897 4.990349388041341 4.3427440170190215 2.758033335277383 0 0 0
28 0 1 -1.1794 5.14840121538431 3.4383176969079337 2.4592291746874997 0 0 0
493 0 1 -1.1794 7.388887836294491 2.018099475373204 2.940994273698128 0 0 0
494 0 2 0.5897 6.590021716555108 2.5722669914585947 2.6504935802995853 0 0 0
495 0 2 0.5897 8.125325926897496 2.443542740842216 2.423477820942548 0 0 0
668 0 2 0.5897 4.9979830503551135 3.308343772128211 0.5892030162253654 0 0 0
748 0 1 -1.1794 9.680175095492611 3.1168728682214133 1.6144142848765346 0 0 0
749 0 2 0.5897 9.794383585389188 3.9935653852321185 1.8361305082495727 0 0 0
106 0 1 -1.1794 11.639739722413903 1.9723561309842037 3.1081579845690053 0 0 0
108 0 2 0.5897 10.854126245515985 2.344695344752192 2.518394142798625 0 0 0
750 0 2 0.5897 9.635034572471534 3.122899351700591 0.6587832440991179 0 0 0
107 0 2 0.5897 11.409968661210236 2.2338785692538883 4.00940468107213 0 0 0
215 0 2 0.5897 13.20781096230915 2.416197046570194 2.6528291858941184 0 0 0
2 0 2 0.5897 17.904124822495845 2.241513873724964 2.315956595541035 0 0 0
216 0 2 0.5897 14.085034732517132 3.590465154388877 2.305439304295887 0 0 0
214 0 1 -1.1794 14.024686269891728 2.6328867743527216 2.155879536443106 0 0 0
406 0 1 -1.1794 16.36027267060888 1.5843972028257876 2.7928510116837444 0 0 0
407 0 2 0.5897 16.433242815394244 0.6642147328305565 2.4184802836063626 0 0 0
408 0 2 0.5897 15.526938478540334 2.0304990857769267 2.6005948848984843 0 0 0
369 0 2 0.5897 14.016419811198672 2.6281199192991482 0.3981437398968259 0 0 0
123 0 2 0.5897 3.0868248610707303 8.411006800500266 2.8829570695581994 0 0 0
253 0 1 -1.1794 2.7154827280119904 6.852260519038506 2.157592248120489 0 0 0
254 0 2 0.5897 2.769302884558857 7.0781743116838305 1.2485929641763929 0 0 0
255 0 2 0.5897 1.9417422211858224 6.253861909227835 2.3089089382500387 0 0 0
138 0 2 0.5897 4.2023977422597705 6.396515920342035 2.732951188971625 0 0 0
595 0 1 -1.1794 0.6654968299955984 5.339724108675253 2.920666480300945 0 0 0
597 0 2 0.5897 0.6008124316679128 5.628648566025916 3.9071198657003072 0 0 0
121 0 1 -1.1794 3.2378908081012248 9.33608426594538 3.2691986331929317 0 0 0
122 0 2 0.5897 3.2598589159668148 9.309357524705149 4.2270768639371274 0 0 0
65 0 2 0.5897 8.014075507032251 8.910588379858767 2.3661067739897046 0 0 0
136 0 1 -1.1794 5.073273928057507 5.992527634655294 3.081938611528137 0 0 0
415 0 1 -1.1794 7.55417878176457 6.806481052813535 1.8714729997417816 0 0 0
416 0 2 0.5897 6.695126927507 6.558496882666398 2.2438998125026344 0 0 0
417 0 2 0.5897 8.158173730562968 6.281474748782622 2.436342254808065 0 0 0
162 0 2 0.5897 7.214855350636304 6.745792489456621 0.12784062293429704 0 0 0
137 0 2 0.5897 5.080522765729939 6.035652905522632 4.059824873347359 0 0 0
190 0 1 -1.1794 12.170007309678047 6.966041798829132 1.8980188565647205 0 0 0
191 0 2 0.5897 12.086045974589549 6.923928863596236 0.9596155276538305 0 0 0
192 0 2 0.5897 12.194410627277819 7.876690562545079 2.318064744840596 0 0 0
298 0 1 -1.1794 9.973658262597457 5.595698945069093 3.0217734274871395 0 0 0
299 0 2 0.5897 10.67352950396652 6.07423086685393 2.513131506522739 0 0 0
300 0 2 0.5897 10.131167556161785 5.934382011717255 3.911068524193015 0 0 0
110 0 2 0.5897 13.438472330708821 5.849360469249685 2.4230066700473505 0 0 0
596 0 2 0.5897 17.71667709115163 5.673979757450406 2.454116850413273 0 0 0
109 0 1 -1.1794 14.092334064448437 5.265133037569857 2.77236714561054 0 0 0
111 0 2 0.5897 14.94791492230383 5.624057401738096 2.482873004347551 0 0 0
838 0 1 -1.1794 16.417736230996333 6.510297636921777 1.7517167130147369 0 0 0
839 0 2 0.5897 16.520440804404053 7.430916364269396 2.0778839372574134 0 0 0
840 0 2 0.5897 16.339398196661477 6.5754221587821835 0.7768504685004588 0 0 0
842 0 2 0.5897 16.76532278558814 9.180082316549269 3.6144239833261977 0 0 0
841 0 1 -1.1794 16.902131813857032 8.98132911003608 2.647196915177051 0 0 0
843 0 2 0.5897 17.701786511790893 9.454724770698085 2.3554620437674574 0 0 0
731 0 2 0.5897 14.470136764197772 5.661452042124194 4.403479222949213 0 0 0
43 0 1 -1.1794 1.2519661356017506 10.535434832409146 1.9095034094966967 0 0 0
44 0 2 0.5897 2.019519102958961 10.180364366868089 2.3884821255916604 0 0 0
45 0 2 0.5897 1.0681075717050141 11.396887395524402 2.333368573499706 0 0 0
373 0 1 -1.1794 0.7986663326133306 13.06975695668091 3.089307199101361 0 0 0
374 0 2 0.5897 0.8946593313798537 13.271358430971016 4.040571513112813 0 0 0
173 0 2 0.5897 4.553379345963849 14.028458850448775 2.6495140873729914 0 0 0
396 0 2 0.5897 0.7860211807031422 10.617615806625817 0.3426087713324777 0 0 0
64 0 1 -1.1794 8.003773720092417 9.740279041381676 2.846936344741482 0 0 0
66 0 2 0.5897 7.904727276767857 9.550876896538744 3.8010555846848355 0 0 0
219 0 2 0.5897 4.848704194119173 10.448210527653961 2.879583846776163 0 0 0
174 0 2 0.5897 5.301926574790947 12.611887934696545 2.939796688629694 0 0 0
172 0 1 -1.1794 5.3614536711221845 13.5806878023212 2.992639656030067 0 0 0
217 0 1 -1.1794 5.547545868825374 10.975666807337372 2.509439396208136 0 0 0
218 0 2 0.5897 6.3974510497495976 10.590406406003892 2.671050154921528 0 0 0
363 0 2 0.5897 5.732596268761929 10.915692404056989 0.43770256910773914 0 0 0
773 0 2 0.5897 9.517737965288157 10.654904036113512 2.22895133092576 0 0 0
92 0 2 0.5897 12.177514160836514 9.592334853961047 4.031515986924203 0 0 0
91 0 1 -1.1794 12.38915603157863 9.510608352713628 3.0853144423216534 0 0 0
774 0 2 0.5897 9.99325657022106 11.019744114528777 0.8593364454486104 0 0 0
772 0 1 -1.1794 10.301387938172324 10.987464519786444 1.773196593778138 0 0 0
156 0 2 0.5897 10.230394002967902 12.651674974798224 2.308340073818219 0 0 0
93 0 2 0.5897 11.785068640454107 10.041767574213365 2.555958145249869 0 0 0
154 0 1 -1.1794 10.102236893175247 13.495080557750082 2.715762453633748 0 0 0
155 0 2 0.5897 10.859415185237998 14.018458091008192 2.3704177745560835 0 0 0
860 0 2 0.5897 13.891359930874483 10.243273338891127 2.810882417336115 0 0 0
55 0 1 -1.1794 14.072056989190505 13.477353223402321 3.166642636438609 0 0 0
57 0 2 0.5897 14.170215501180301 12.490503747909205 3.07469886787194 0 0 0
859 0 1 -1.1794 14.600146993547328 10.715572919733905 2.28327713546183 0 0 0
861 0 2 0.5897 15.332891430853326 10.086640962979212 2.3838710378622308 0 0 0
56 0 2 0.5897 14.146685208016342 13.66683537513366 4.104156391199437 0 0 0
152 0 2 0.5897 14.280811020639966 11.128552421372111 0.600028045985438 0 0 0
375 0 2 0.5897 17.918491079085427 13.61425488468831 2.853572810052016 0 0 0
557 0 2 0.5897 2.4754640774405856 14.2173909275463 2.3687721537169684 0 0 0
292 0 1 -1.1794 3.184802946237375 17.434576853815173 3.0017294899342537 0 0 0
293 0 2 0.5897 3.346231998790095 16.55098604247764 2.7288515752847444 0 0 0
556 0 1 -1.1794 3.1234045807969237 14.886737744249004 2.0141577156885564 0 0 0
558 0 2 0.5897 3.010415099327123 14.958451636581525 1.0729615723204433 0 0 0
344 0 2 0.5897 1.6291090510058617 18.101663728219854 2.4703965398575023 0 0 0
294 0 2 0.5897 3.150246663091407 17.448284869883707 3.999285591907048 0 0 0
345 0 2 0.5897 0.8301492671125734 18.422929183868874 1.239480543930393 0 0 0
343 0 1 -1.1794 0.7465902390450625 18.42406431246407 2.2123693724794773 0 0 0
227 0 2 0.5897 4.748476003714507 18.243682195897435 2.6047942793665246 0 0 0
479 0 2 0.5897 8.478295401958452 14.420486410369097 2.665085731381816 0 0 0
480 0 2 0.5897 6.863956507168572 14.22892339470253 2.7066700571974334 0 0 0
478 0 1 -1.1794 7.620645973783407 14.76224481737168 2.3798128726938725 0 0 0
448 0 1 -1.1794 7.641692762456744 17.18555364789944 3.45695916632406 0 0 0
449 0 2 0.5897 7.623321804782474 16.267916903124657 3.0629955998428917 0 0 0
450 0 2 0.5897 6.8239946730286105 17.594794043805216 3.0430175416603187 0 0 0
317 0 2 0.5897 7.752274565124212 15.194185751867698 0.24093648665633446 0 0 0
321 0 2 0.5897 9.066381396910852 18.04766059833758 2.8162727652467843 0 0 0
602 0 2 0.5897 5.275637019099675 18.738262646108275 0.5630689823064118 0 0 0
226 0 1 -1.1794 5.5788212346903086 18.729006059879943 2.4443578948603273 0 0 0
560 0 2 0.5897 13.00244050386497 14.535947406370965 2.3162421365022263 0 0 0
320 0 2 0.5897 10.518335120176042 18.184887373665198 2.4105767090737933 0 0 0
559 0 1 -1.1794 12.318318568750286 15.060871464041778 1.8711132539483284 0 0 0
561 0 2 0.5897 12.400823775194471 15.108068815018209 0.9475188012921508 0 0 0
832 0 1 -1.1794 12.07576302618537 17.546346302303817 2.9790576953896992 0 0 0
833 0 2 0.5897 12.724941580601142 18.19555104588666 2.5951483135473326 0 0 0
834 0 2 0.5897 12.285714953650817 16.67849139162928 2.5632529233373953 0 0 0
319 0 1 -1.1794 9.637377627705895 18.675507348007585 2.399973875610639 0 0 0
389 0 2 0.5897 9.59223196877964 18.788977443906752 0.7192594758224233 0 0 0
179 0 2 0.5897 15.589882468194942 14.210478703717058 2.525005731576417 0 0 0
178 0 1 -1.1794 16.34292497907306 14.83829764010851 2.320117682860569 0 0 0
180 0 2 0.5897 16.23292313872249 15.746319170867007 2.6341843792198016 0 0 0
745 0 1 -1.1794 16.287171709073192 17.487135823935432 2.9599228498274615 0 0 0
746 0 2 0.5897 17.04362929655015 17.93883932891474 2.4840906234308666 0 0 0
747 0 2 0.5897 15.481854026892393 17.98143549990553 2.816170376795716 0 0 0
614 0 2 0.5897 16.35283781672223 15.287053539842068 0.41464421175252536 0 0 0
187 0 1 -1.1794 3.060261895670073 22.661288229880114 2.1032115488600667 0 0 0
189 0 2 0.5897 2.8777018128876395 22.795562859463466 1.1558638991247905 0 0 0
694 0 1 -1.1794 0.9102527173270722 21.21675817845687 2.8069420159483673 0 0 0
695 0 2 0.5897 0.973158321923598 20.301763439933815 2.5487324585166884 0 0 0
696 0 2 0.5897 1.7500796595895056 21.690902875242692 2.6742353523120057 0 0 0
266 0 2 0.5897 4.580981463762855 21.499902009841193 2.782084328043704 0 0 0
413 0 2 0.5897 0.6979630025237308 21.190403011849796 4.441238584631263 0 0 0
819 0 2 0.5897 7.652673010881588 23.468717615545216 2.5872397300140495 0 -1 0
228 0 2 0.5897 5.426708884768933 19.616463099331476 2.85063347514955 0 0 0
265 0 1 -1.1794 5.2990739799314595 21.187645177978148 3.3313903381397805 0 0 0
267 0 2 0.5897 6.142943199987841 21.516484213861574 2.970160302285792 0 0 0
817 0 1 -1.1794 7.748174801875126 22.544825185354888 2.421626391140972 0 0 0
818 0 2 0.5897 8.587931212759178 22.22369922153721 2.8312975639770226 0 0 0
498 0 2 0.5897 7.451892752061434 22.413682132850674 0.6403892539317827 0 0 0
63 0 2 0.5897 11.895136268348425 23.4757579298668 2.6917731761207793 0 -1 0
61 0 1 -1.1794 11.986178522438484 22.581315196129772 2.342616257758601 0 0 0
397 0 1 -1.1794 9.928888194206566 21.25237736100658 3.4965228254844742 0 0 0
398 0 2 0.5897 9.78816401306132 20.36084025424335 3.0331346254969467 0 0 0
399 0 2 0.5897 10.75532545913261 21.61056404495133 3.1331759630808578 0 0 0
62 0 2 0.5897 12.892964800032162 22.23679353378759 2.5639653998261105 0 0 0
425 0 2 0.5897 11.90047100467092 22.326632383787206 0.2350798561809177 0 0 0
304 0 1 -1.1794 14.127009484278762 19.059307744902277 2.069127211886684 0 0 0
305 0 2 0.5897 14.173712770669253 19.039224935842938 1.0782261996250506 0 0 0
306 0 2 0.5897 14.278421146382543 19.987730882567035 2.3396890342246883 0 0 0
729 0 2 0.5897 17.381766543548963 21.893549392186515 2.2115015468948496 0 0 0
118 0 1 -1.1794 14.310544108964809 21.582622907466025 3.3966461712729927 0 0 0
120 0 2 0.5897 15.108679711696404 22.007135045358446 3.0483902516142227 0 0 0
727 0 1 -1.1794 16.661505042396982 22.474933651293526 1.8943326894864108 0 0 0
728 0 2 0.5897 16.68901696364565 22.510119905478177 0.9293967559865494 0 0 0
119 0 2 0.5897 14.420037260857724 21.465987560911564 4.381099716906587 0 0 0
487 0 1 -1.1794 2.920305980626105 2.175714754184092 5.882322307392408 0 0 0
488 0 2 0.5897 2.2132927811708814 2.809975856256319 5.78817746448917 0 0 0
489 0 2 0.5897 2.5780667305291867 1.297975369368196 6.145960235380704 0 0 0
784 0 1 -1.1794 0.4273866894580304 3.4106449612564855 6.723267715605434 0 0 0
785 0 2 0.5897 0.5136703811191268 3.4607548508774566 7.698915438765825 0 0 0
83 0 2 0.5897 4.5497246956354855 2.7277810622607954 6.272560095049631 0 0 0
846 0 2 0.5897 7.637328358549352 2.077298193481383 4.557390273228336 0 0 0
82 0 1 -1.1794 5.274893026739967 3.398310513778955 6.4413791307701365 0 0 0
84 0 2 0.5897 6.130758074263835 3.01641659289584 6.1967421864462695 0 0 0
275 0 2 0.5897 5.6322689799404 3.308364800240666 8.307364022910292 0 0 0
844 0 1 -1.1794 7.570466471849964 2.1802491166722917 5.59968881096021 0 0 0
845 0 2 0.5897 7.614157796529784 1.2885776334128285 5.876739037613097 0 0 0
419 0 2 0.5897 8.745162122595493 3.32875949734804 6.456541953656086 0 0 0
420 0 2 0.5897 9.302002327887655 4.722265094864437 6.481137228515956 0 0 0
418 0 1 -1.1794 9.398206271175905 3.898032228204048 6.86583573715061 0 0 0
802 0 1 -1.1794 11.680129079376888 2.8191260934786952 5.70725114803658 0 0 0
803 0 2 0.5897 11.165318437606748 3.5203513138928773 6.048854591173178 0 0 0
804 0 2 0.5897 12.632373459227145 2.974388714123382 5.8411134451946 0 0 0
177 0 2 0.5897 9.429937492168786 3.6655774978616886 8.682554154310122 0 0 0
171 0 2 0.5897 12.044906070101986 0.7868112753601221 6.132480258838728 0 0 0
786 0 2 0.5897 17.488703941629282 2.8940680793388056 6.534233225693072 0 0 0
660 0 2 0.5897 15.999117854754745 1.637704335896661 4.860089461573893 0 0 0
436 0 1 -1.1794 14.24698788687637 3.288950037138291 6.687659860215778 0 0 0
437 0 2 0.5897 14.214073507928859 3.3409153392980504 7.666882790543499 0 0 0
438 0 2 0.5897 15.002905841537764 2.682512556601688 6.485789112747304 0 0 0
658 0 1 -1.1794 16.077236509503237 1.6829045030847094 5.810193503683478 0 0 0
659 0 2 0.5897 16.320981460459606 0.7884090468343876 6.118828816128123 0 0 0
10 0 1 -1.1794 2.729388831281646 7.179603988139242 6.664989834907269 0 0 0
11 0 2 0.5897 1.921118676398258 6.686748364033565 6.358757806960868 0 0 0
12 0 2 0.5897 2.637486088337259 8.060967504380493 6.2819102144065715 0 0 0
181 0 1 -1.1794 0.25879472749105537 6.067248269488027 5.656668358386298 0 0 0
650 0 2 0.5897 3.056032451334208 7.322826074298952 8.3561703647129 0 0 0
687 0 2 0.5897 4.203593574124994 6.547137476790603 6.20897465429191 0 0 0
686 0 2 0.5897 5.024147492816235 5.268234236769962 6.11970196101838 0 0 0
685 0 1 -1.1794 5.062534105300703 6.2030578951500965 5.926596458815011 0 0 0
145 0 1 -1.1794 7.432788221792106 7.282567349967814 6.701708306760989 0 0 0
146 0 2 0.5897 6.553503547512835 6.850741693201151 6.516834676036186 0 0 0
147 0 2 0.5897 7.618207062575168 7.2881359884417884 7.663596768279895 0 0 0
714 0 2 0.5897 7.6995357939633 8.725786352335867 5.849407183245448 0 0 0
165 0 2 0.5897 8.979059398971696 6.687837520141367 6.04878362552379 0 0 0
163 0 1 -1.1794 9.802863167059819 6.300297113007249 5.736105809868395 0 0 0
164 0 2 0.5897 10.483583163507136 6.941798385177493 5.9423885144328725 0 0 0
230 0 2 0.5897 12.109242847323591 8.95325820874388 6.055572460570472 0 0 0
391 0 1 -1.1794 12.334516891563728 7.322044574145862 6.288354251407401 0 0 0
392 0 2 0.5897 12.133864697124052 7.101781487791004 7.212306411378265 0 0 0
393 0 2 0.5897 12.996313048665083 6.684581755279224 6.0490622377454395 0 0 0
183 0 2 0.5897 17.93749464815047 5.133633672250891 5.920797179278796 -1 0 0
732 0 2 0.5897 14.61989918775495 4.928591748643002 5.729527197960557 0 0 0
730 0 1 -1.1794 14.424459126833213 5.822215882251401 5.366210814683816 0 0 0
182 0 2 0.5897 17.260460871861838 6.586310640434871 5.810572398024598 0 0 0
525 0 2 0.5897 16.29153507453632 9.10208063858398 6.032943827309943 0 0 0
541 0 1 -1.1794 16.007232658219905 7.54473085822251 6.800334017111074 0 0 0
542 0 2 0.5897 15.334696690579504 6.972197532318865 6.415029026105513 0 0 0
543 0 2 0.5897 16.160319969742588 7.1879345990069705 7.719547485113146 0 0 0
793 0 1 -1.1794 3.0370866039994437 9.804094155659278 6.0195992774569165 0 0 0
794 0 2 0.5897 2.324650073444649 10.446136787002235 6.124465997338464 0 0 0
795 0 2 0.5897 3.8470445557190094 10.343817299870603 6.126531413675986 0 0 0
551 0 2 0.5897 0.6808108895805602 11.213708331712235 7.54820180618783 0 0 0
550 0 1 -1.1794 0.9095502601751467 11.413970207808939 6.597284638496857 0 0 0
552 0 2 0.5897 0.893840880850443 12.392240972549892 6.491687735320758 0 0 0
655 0 1 -1.1794 1.0600480297832025 13.909298014420186 5.660039015008005 0 0 0
712 0 1 -1.1794 7.7131823810619125 9.599439215702676 5.462250847113973 0 0 0
200 0 2 0.5897 5.477431833163254 13.903305955520914 4.777896214017114 0 0 0
713 0 2 0.5897 8.513518162883921 10.081984853864272 5.845715397942852 0 0 0
577 0 1 -1.1794 5.479163925155693 11.266379825609878 6.757275981424017 0 0 0
578 0 2 0.5897 6.232276783373214 10.873869453852196 6.315590292805643 0 0 0
579 0 2 0.5897 5.318091477703434 12.132296658949903 6.342930886933401 0 0 0
199 0 1 -1.1794 5.374596700633537 13.80273401825573 5.757816076104639 0 0 0
582 0 2 0.5897 5.499445256049519 10.983883398666627 8.39786018346063 0 0 0
229 0 1 -1.1794 12.131386027882156 9.871033044967426 5.719875509352014 0 0 0
806 0 2 0.5897 9.73519484863221 13.645211939058695 4.579765926049714 0 0 0
807 0 2 0.5897 9.584313325869742 12.690363719707483 5.836667773389299 0 0 0
805 0 1 -1.1794 9.563165208790844 13.61851621832834 5.5519310943728915 0 0 0
231 0 2 0.5897 12.91305367734656 10.345189027769173 6.126910627059434 0 0 0
739 0 1 -1.1794 9.830243382879445 11.080820700950621 6.759696018900969 0 0 0
740 0 2 0.5897 10.72310757538184 10.801141737342569 6.4758707099745285 0 0 0
741 0 2 0.5897 9.818586987804757 11.043789202666249 7.734117465634528 0 0 0
523 0 1 -1.1794 16.388017144891982 9.834036360382804 5.444803027823901 0 0 0
524 0 2 0.5897 17.21158844194673 10.269315324845309 5.791502796422281 0 0 0
634 0 1 -1.1794 14.340400400558702 11.421775816236547 6.410223750936649 0 0 0
635 0 2 0.5897 15.091973467756862 11.092304885280623 5.925822035462673 0 0 0
636 0 2 0.5897 14.237343986095489 12.36874881362314 6.178050753672497 0 0 0
724 0 1 -1.1794 13.97554433160343 13.903403428934125 5.798815829842727 0 0 0
857 0 2 0.5897 14.596969003778009 11.338435139351674 7.993948532378384 0 0 0
656 0 2 0.5897 1.8118729328623329 14.375220457960056 5.948121248532922 0 0 0
657 0 2 0.5897 0.28200814425403115 14.247776463140868 6.140669222522922 1 0 0
18 0 2 0.5897 4.077833799874158 14.514491350543434 6.301311067778304 0 0 0
17 0 2 0.5897 2.999796923793949 14.913176784348657 7.4988247877534775 0 0 0
16 0 1 -1.1794 3.297432125327479 15.091165252835001 6.571887715672226 0 0 0
238 0 1 -1.1794 3.222065552390425 17.694419423303493 5.807831492578199 0 0 0
239 0 2 0.5897 3.356353653021437 16.756978399360648 6.041871660409487 0 0 0
240 0 2 0.5897 4.076811058204681 18.102478210721294 6.04766803936369 0 0 0
341 0 2 0.5897 1.6239356960152498 18.46763453215658 6.557983316703491 0 0 0
201 0 2 0.5897 6.0140623278097625 14.42224339042303 6.200613306360493 0 0 0
308 0 2 0.5897 8.020337199457796 17.698304643426255 4.946196192089067 0 0 0
519 0 2 0.5897 8.319054065055782 14.66118510259913 6.128471232858204 0 0 0
517 0 1 -1.1794 7.593373066003605 15.217073273611105 6.412449081302844 0 0 0
378 0 2 0.5897 7.320460411650485 14.624231398588009 7.927830076093778 0 0 0
307 0 1 -1.1794 7.974006372280178 17.906920558273754 5.895751266654745 0 0 0
309 0 2 0.5897 8.860115566838976 18.221863882014418 6.167920765708797 0 0 0
518 0 2 0.5897 7.906048187954306 16.164448168748976 6.339732027669672 0 0 0
386 0 2 0.5897 6.4955389170981075 18.670668982299112 6.538015032144105 0 0 0
102 0 2 0.5897 5.2873545022932005 18.47380460365587 8.40104327727689 0 0 0
376 0 1 -1.1794 7.267204772592284 14.441492964165588 8.887950350700528 0 0 0
726 0 2 0.5897 13.182853197769136 14.3318726118027 6.277442213694071 0 0 0
642 0 2 0.5897 11.01053409442329 14.503951747605955 6.403976631166524 0 0 0
645 0 2 0.5897 12.316543920751117 17.50559055238152 4.873377363573146 0 0 0
641 0 2 0.5897 11.639870598336733 15.126713417433985 7.723532868160384 0 0 0
640 0 1 -1.1794 11.738037474950643 15.000688461142266 6.771525329931581 0 0 0
643 0 1 -1.1794 12.018237499517044 17.563462760898794 5.790642337034738 0 0 0
644 0 2 0.5897 11.814696976169131 16.674969004113777 6.089975511973701 0 0 0
303 0 2 0.5897 10.96364224054992 18.51985915983046 6.705317505910536 0 0 0
348 0 2 0.5897 13.339145544482216 18.5323974070469 6.494313754564828 0 0 0
734 0 2 0.5897 10.006136216823188 18.808588526012727 8.85731181501087 0 0 0
725 0 2 0.5897 14.774198382860813 14.441691455495427 6.010088428315727 0 0 0
564 0 2 0.5897 16.37615961512587 17.535800952753327 4.6665402989717455 0 0 0
563 0 2 0.5897 17.08934380587847 18.096623583079456 5.955564212256249 0 0 0
205 0 1 -1.1794 16.481335332139317 14.87448071555243 6.690528965591656 0 0 0
206 0 2 0.5897 16.459518850272737 15.776272324937098 6.382252550112058 0 0 0
207 0 2 0.5897 16.34717252571062 14.934760408615617 7.640547009357239 0 0 0
562 0 1 -1.1794 16.357157549436316 17.55956868793453 5.6584979494209 0 0 0
347 0 2 0.5897 14.89914022557867 18.47792315785661 6.428871754472415 0 0 0
340 0 1 -1.1794 0.8068427735573025 18.892755157573433 6.839626259567233 0 0 0
342 0 2 0.5897 0.9100486133843119 18.95424365127601 7.816103606372312 0 0 0
700 0 1 -1.1794 2.559651879134467 22.84560948778443 6.766146287282963 0 0 0
701 0 2 0.5897 2.496376094549565 22.534008840623216 7.660029044539163 0 0 0
702 0 2 0.5897 1.7685949521565283 22.435700413412945 6.3853523657695 0 0 0
412 0 1 -1.1794 0.7391475941356866 21.342972709287906 5.430901078238097 0 0 0
414 0 2 0.5897 0.7388055542389249 20.478776306350156 5.8657285158759 0 0 0
248 0 2 0.5897 4.290639712774601 22.27029756260427 6.37012292010631 0 0 0
249 0 2 0.5897 5.059764273487765 21.712152044084455 5.167226912278476 0 0 0
385 0 1 -1.1794 5.563706225300825 18.92928381456747 6.724528700734177 0 0 0
247 0 1 -1.1794 5.100520068576634 21.75080025345879 6.1190212488177 0 0 0
31 0 1 -1.1794 7.622677467487163 22.4674867945526 6.902256825966007 0 0 0
32 0 2 0.5897 8.353454199400545 21.860286947355902 6.742474419282256 0 0 0
33 0 2 0.5897 6.845176996396871 22.08450879419815 6.545108518421357 0 0 0
86 0 2 0.5897 7.412232972687602 22.656041965154913 8.599212845508594 0 0 0
387 0 2 0.5897 5.491908232369707 19.915793059690195 6.677906833126275 0 0 0
591 0 2 0.5897 10.031845199428286 21.31382751969378 5.1105902545944915 0 0 0
301 0 1 -1.1794 10.251556486235739 18.96836822093546 7.19438720868892 0 0 0
169 0 1 -1.1794 12.059145001184127 23.249530247487044 6.60488560743759 0 0 0
170 0 2 0.5897 12.878254613592285 22.806398546436363 6.284044934335135 0 0 0
302 0 2 0.5897 10.127730690949736 19.809418102235654 6.658864800055603 0 0 0
589 0 1 -1.1794 10.323890925459864 21.34251447986319 6.082414341147247 0 0 0
590 0 2 0.5897 10.854018092777242 22.14470594218419 6.251074762824483 0 0 0
330 0 2 0.5897 11.5361649091287 23.287416292059795 8.358031964582992 0 0 0
346 0 1 -1.1794 14.169265137767223 18.923862883118787 6.892135907354598 0 0 0
371 0 2 0.5897 14.445448548620686 18.833868168323256 8.800708718603468 0 0 0
532 0 1 -1.1794 14.42399979829081 21.54753901251972 6.017039231318865 0 0 0
534 0 2 0.5897 14.409501259928573 20.68852288975053 6.376946861810507 0 0 0
352 0 1 -1.1794 16.76426504315745 22.700232961525558 6.972716693518661 0 0 0
353 0 2 0.5897 17.508706242287197 22.171837019582306 6.649274601157027 0 0 0
354 0 2 0.5897 16.576101161185647 22.51934819038543 7.88238914007921 0 0 0
533 0 2 0.5897 15.2652895331249 21.97898772959389 6.339117486696635 0 0 0
34 0 1 -1.1794 0.6431922208475517 3.3793088408448058 9.487755816090633 0 0 0
35 0 2 0.5897 0.9240322040101216 4.269366247085248 9.696641165782017 0 0 0
36 0 2 0.5897 1.4845836254908198 2.916364254062286 9.598273002529917 0 0 0
167 0 2 0.5897 2.7926491548245345 1.8241934399978763 12.033855524244867 0 0 0
673 0 1 -1.1794 2.985290943829995 2.2208180020869737 10.247601953157986 0 0 0
674 0 2 0.5897 3.7464619527891925 2.6710242588865594 9.79334881536938 0 0 0
675 0 2 0.5897 3.134601650124116 1.3322577328131122 9.928123346000017 0 0 0
166 0 1 -1.1794 2.8555252176744372 1.899637440364099 13.013119382081712 0 0 0
168 0 2 0.5897 2.020216311524649 2.3574166833881667 13.192756281096692 0 0 0
274 0 1 -1.1794 5.491084206688716 3.336593878605942 9.28283199109407 0 0 0
276 0 2 0.5897 6.099657719120275 2.7073163849968567 9.643796243518171 0 0 0
355 0 1 -1.1794 7.242789243295895 1.7812745948884945 10.491916084206615 0 0 0
356 0 2 0.5897 7.174123830433264 0.8585829733291857 10.151689402695467 0 0 0
357 0 2 0.5897 7.21638224037935 1.7025519164021008 11.480144025985895 0 0 0
176 0 2 0.5897 8.722384517354078 2.93732180775094 9.819376852332114 0 0 0
175 0 1 -1.1794 9.515521874236951 3.382317692391775 9.602938391147548 0 0 0
514 0 1 -1.1794 11.954249721845725 1.8946469409442588 10.564674386554541 0 0 0
515 0 2 0.5897 11.769873797986602 1.7774760907012948 11.493325904900184 0 0 0
516 0 2 0.5897 11.337623951889721 2.5579665979908977 10.119790640152688 0 0 0
757 0 1 -1.1794 11.5425691216948 1.839563197080561 13.28467638259713 0 0 0
329 0 2 0.5897 11.549919164029776 0.43959622161575085 9.782717563280068 0 1 0
849 0 2 0.5897 13.590040168724183 2.4854826652769906 9.9915020023012 0 0 0
652 0 1 -1.1794 16.77067871501213 1.8213364148731108 10.578043907722957 0 0 0
653 0 2 0.5897 16.732320563418895 1.9166552397815992 11.56894878788973 0 0 0
654 0 2 0.5897 17.36233324897225 2.5145756394083603 10.213515686356725 0 0 0
847 0 1 -1.1794 14.369005305264402 2.9448823137921947 9.653146359653274 0 0 0
848 0 2 0.5897 15.148711227563885 2.5173608863495005 10.029362372574651 0 0 0
131 0 2 0.5897 16.68919347532146 0.1814109487064491 9.868576727100134 0 0 0
545 0 2 0.5897 14.368155540113868 4.765864282102522 10.064524318364603 0 0 0
649 0 1 -1.1794 3.282869269130759 7.216958794062776 9.313911615453122 0 0 0
112 0 1 -1.1794 1.1162863838162282 6.1074293597825955 10.271175060089424 0 0 0
113 0 2 0.5897 1.0755571111683297 6.10418190534922 11.19783275539749 0 0 0
114 0 2 0.5897 2.003304025769201 6.411191732283958 9.920637912770705 0 0 0
257 0 2 0.5897 3.2802345259812413 8.840883164981456 10.014878429845073 0 0 0
651 0 2 0.5897 4.1991979205832255 6.8828784137984185 9.388532097547984 0 0 0
364 0 1 -1.1794 0.771411886351143 5.487834334016828 13.127835599443548 0 0 0
366 0 2 0.5897 1.6011592171567117 5.922679465189263 13.28924628514737 0 0 0
678 0 2 0.5897 5.597193014670921 5.241051773479434 9.595653797573961 0 0 0
526 0 1 -1.1794 7.78410036291106 7.559566494102487 9.264617035835075 0 0 0
527 0 2 0.5897 7.84205185956004 8.486610888748038 9.47126850396014 0 0 0
676 0 1 -1.1794 5.50667244137277 6.124365145052874 9.975364805450667 0 0 0
677 0 2 0.5897 6.339444852049971 6.626241593647285 9.774794943129363 0 0 0
761 0 2 0.5897 5.339631696987775 5.961924605247116 11.788694366212779 0 0 0
528 0 2 0.5897 8.49132652406637 7.154906935457945 9.818750473190423 0 0 0
760 0 1 -1.1794 5.269158111457732 6.065723847037839 12.781555281874803 0 0 0
475 0 1 -1.1794 7.700535134877461 9.4748884716762 12.909392305723951 0 0 0
762 0 2 0.5897 5.306501357680569 5.1962006535832685 13.150112905483224 0 0 0
705 0 2 0.5897 9.634081724594227 5.05258064858135 10.193292709359394 0 0 0
704 0 2 0.5897 9.84098938536135 6.035530533092844 11.4792935388395 0 0 0
703 0 1 -1.1794 9.655136911531182 5.999812022490699 10.534543691873735 0 0 0
313 0 1 -1.1794 12.141448516600537 7.068183594722254 9.295650623660224 0 0 0
314 0 2 0.5897 11.360006408473073 6.6465311008604875 9.73167454645766 0 0 0
315 0 2 0.5897 12.934434797631702 6.6692487256162405 9.613589536045748 0 0 0
444 0 2 0.5897 12.304739222621707 8.808327450441041 9.611784625211127 0 0 0
850 0 1 -1.1794 10.084414912619744 5.886547586470129 13.29812980534842 0 0 0
815 0 2 0.5897 13.437202595518182 6.265288887523312 13.18900479982989 0 0 0
529 0 1 -1.1794 11.982726229924857 9.428187659330888 12.657422772399732 0 0 0
816 0 2 0.5897 14.203928923309853 5.697123651820312 11.94235461117299 0 0 0
622 0 1 -1.1794 16.569890823982647 6.980103371738892 9.405314731960768 0 0 0
544 0 1 -1.1794 14.241767066090977 5.695131347906657 10.313029392299198 0 0 0
546 0 2 0.5897 15.048216813066361 6.139402591541578 10.145456535313253 0 0 0
623 0 2 0.5897 17.508890989489046 6.695202492799067 9.556036952317358 0 0 0
624 0 2 0.5897 16.46288307516027 7.849916147011582 9.766801726505609 0 0 0
814 0 1 -1.1794 14.11158010720288 5.635099244648387 12.92694525070392 0 0 0
193 0 1 -1.1794 16.782647614069376 9.300573501032696 12.992981981984657 0 0 0
194 0 2 0.5897 16.619726158855357 8.373433008652865 13.164058470395398 0 0 0
195 0 2 0.5897 16.7297294668346 9.373958698921385 11.985159127384874 0 0 0
256 0 1 -1.1794 3.152701690049334 9.79478870513576 10.10325228672498 0 0 0
797 0 2 0.5897 2.892740738852363 10.037910339541606 11.845744955512089 0 0 0
258 0 2 0.5897 4.02750433134427 10.232266658665731 9.888401474835922 0 0 0
13 0 1 -1.1794 0.8091532714236124 10.671787108201654 9.348597291906211 0 0 0
15 0 2 0.5897 1.7462650923523373 10.507731666493441 9.585836168350344 0 0 0
14 0 2 0.5897 0.5207204405646196 11.492691475566934 9.704867552360565 0 0 0
766 0 1 -1.1794 0.41804650892917605 13.331935985254068 10.128487551434642 0 0 0
767 0 2 0.5897 0.512013989390511 13.223731564103321 11.153876727163613 0 0 0
796 0 1 -1.1794 2.9331150724758213 9.821007014702095 12.81440008434193 0 0 0