LAMMPS (29 Sep 2021 - Update 2)
  using 1 OpenMP thread(s) per MPI task
plugin load libdeepmd_lmp.so
Loading plugin: deepmd pair style v2.0 by Han Wang
Loading plugin: compute deeptensor/atom v2.0 by Han Wang
Loading plugin: fix dplr v2.0 by Han Wang
echo both

include		in.partitions
variable        pid world 0
include		in.temp
variable        temperature equal 240
variable        tempDamp equal 0.100
include		in.pressure
variable        pressure equal 1973.846
variable        pressureDamp equal 1.0 # This is 1 ps
include		in.seed
variable        seed world 745823

units           metal
atom_style	full
include		in.box
read_data       water.data
Reading data file ...
  orthogonal box = (0.0000000 0.0000000 0.0000000) to (18.207573 23.629177 22.213196)
  1 by 1 by 1 MPI processor grid
  reading atoms ...
  864 atoms
  reading velocities ...
  864 velocities
Finding 1-2 1-3 1-4 neighbors ...
  special bond factors lj:    0        0        0       
  special bond factors coul:  0        0        0       
     0 = max # of 1-2 neighbors
     0 = max # of 1-3 neighbors
     0 = max # of 1-4 neighbors
     1 = max # of special neighbors
  special bonds CPU = 0.000 seconds
  read_data CPU = 0.063 seconds
include 	in.setup
variable	out_freq equal 500
variable	out_freq2 equal 500

timestep        0.0005

neigh_modify    delay 7 every 1

include         in.deepmd
# This is deepMD model

# create groups ###
#group ox type 2
#group hy type 1

mass 2 15.999
mass 1 1.008

pair_style      deepmd ../graph.pb
pair_coeff      * *

bond_style      none
angle_style     none
dihedral_style  none
improper_style  none
neigh_modify exclude none


neighbor        2.0 bin
neigh_modify    every 10 delay 0 check no

thermo          ${out_freq}
thermo          500
thermo_style 	custom step temp pe etotal epair emol press lx ly lz xy xz yz vol pxx pyy pzz pxy pxz pyz cella cellb cellc cellalpha cellbeta cellgamma


restart 	${out_freq} restart.lmp.${pid} restart2.lmp.${pid}
restart 	500 restart.lmp.${pid} restart2.lmp.${pid}
restart 	500 restart.lmp.0 restart2.lmp.${pid}
restart 	500 restart.lmp.0 restart2.lmp.0


include         in.dump
dump            myDump all atom ${out_freq2} dump.water.${pid}
dump            myDump all atom 500 dump.water.${pid}
dump            myDump all atom 500 dump.water.0
dump            myDump2 all dcd ${out_freq2} dump.dcd
dump            myDump2 all dcd 500 dump.dcd
dump_modify     myDump append yes
dump_modify     myDump2 append yes


timer           timeout 23:50:00 every 1000
New timer settings: style=normal  mode=nosync  timeout=23:50:00

fix             2 all nph aniso ${pressure} ${pressure} ${pressureDamp}
fix             2 all nph aniso 1973.846 ${pressure} ${pressureDamp}
fix             2 all nph aniso 1973.846 1973.846 ${pressureDamp}
fix             2 all nph aniso 1973.846 1973.846 1
fix             3 all temp/csvr ${temperature} ${temperature} ${tempDamp} ${seed}
fix             3 all temp/csvr 240 ${temperature} ${tempDamp} ${seed}
fix             3 all temp/csvr 240 240 ${tempDamp} ${seed}
fix             3 all temp/csvr 240 240 0.1 ${seed}
fix             3 all temp/csvr 240 240 0.1 745823
velocity 	all create ${temperature} ${seed} dist gaussian
velocity 	all create 240 ${seed} dist gaussian
velocity 	all create 240 745823 dist gaussian

run             400000

CITE-CITE-CITE-CITE-CITE-CITE-CITE-CITE-CITE-CITE-CITE-CITE-CITE

Your simulation uses code contributions which should be cited:

- USER-DEEPMD package:

@article{Wang_ComputPhysCommun_2018_v228_p178,
  author = {Wang, Han and Zhang, Linfeng and Han, Jiequn and E, Weinan},
  doi = {10.1016/j.cpc.2018.03.016},
  url = {https://doi.org/10.1016/j.cpc.2018.03.016},
  year = 2018,
  month = {jul},
  publisher = {Elsevier {BV}},
  volume = 228,
  journal = {Comput. Phys. Commun.},
  title = {{DeePMD-kit: A deep learning package for many-body potential energy representation and molecular dynamics}},
  pages = {178--184}
}

CITE-CITE-CITE-CITE-CITE-CITE-CITE-CITE-CITE-CITE-CITE-CITE-CITE

Neighbor list info ...
  update every 10 steps, delay 0 steps, check no
  max neighbors/atom: 2000, page size: 100000
  master list distance cutoff = 8
  ghost atom cutoff = 8
  binsize = 4, bins = 5 6 6
  1 neighbor lists, perpetual/occasional/extra = 1 0 0
  (1) pair deepmd, perpetual
      attributes: full, newton on
      pair build: full/bin
      stencil: full/bin/3d
      bin: standard
Per MPI rank memory allocation (min/avg/max) = 7.189 | 7.189 | 7.189 Mbytes
Step Temp PotEng TotEng E_pair E_mol Press Lx Ly Lz Xy Xz Yz Volume Pxx Pyy Pzz Pxy Pxz Pyz Cella Cellb Cellc CellAlpha CellBeta CellGamma 
       0          240   -169.12462   -142.35226   -169.12462            0   -24624.224    18.207573    23.629177    22.213196            0            0            0    9556.7825   -24961.359   -24105.809   -24805.503    4.6969597    309.27918    -218.2824    18.207573    23.629177    22.213196           90           90           90 
     500    226.34185    -151.6498   -126.40103    -151.6498            0    4989.2343    17.807018    23.067227    21.697445            0            0            0     8912.411    2044.3564    6352.7627    6570.5838   -1344.0943    -99.61948   -217.83289    17.807018    23.067227    21.697445           90           90           90 
    1000    230.60322   -147.61225   -121.88811   -147.61225            0   -147.44895     17.70427    22.968868    21.735776            0            0            0    8838.7889   -18.702361   -2775.1309    2351.4864    1585.5495    1425.8632   -430.24303     17.70427    22.968868    21.735776           90           90           90 
    1500    240.52007   -150.34538   -123.51501   -150.34538            0    3147.9455    17.888787    23.222263    22.072567            0            0            0    9169.3447    4705.4389    2367.3071    2371.0903    162.23481    217.39575   -677.93565    17.888787    23.222263    22.072567           90           90           90 
    2000    249.98805   -148.74001   -120.85347   -148.74001            0   -351.26615    17.927672    23.196761    21.965913            0            0            0    9134.8307    1874.8614   -60.088234   -2868.5717   -2192.9666    391.56552    878.46376    17.927672    23.196761    21.965913           90           90           90 
    2500    247.52956   -148.30816   -120.69586   -148.30816            0    2699.4073    17.964045    23.236107    21.821823            0            0            0    9108.7444     677.2703    3485.0869    3935.8646     1422.295   -647.02523    184.01797    17.964045    23.236107    21.821823           90           90           90 
    3000    242.35326   -146.61929   -119.58442   -146.61929            0    4166.3928     17.74466    23.135866    21.842703            0            0            0    8967.2616    3981.8058    2416.2822    6101.0903    1089.4175    2239.7137    660.83854     17.74466    23.135866    21.842703           90           90           90 
    3500    235.61098   -147.84457   -121.56181   -147.84457            0    3168.4654    17.814695    23.265273    22.116411            0            0            0    9166.4503    6520.7981    4896.2224   -1911.6242    123.73498   -723.74985    154.01222    17.814695    23.265273    22.116411           90           90           90 
    4000     239.7774   -149.33236   -122.58483   -149.33236            0   -1419.4844    18.001002    23.317552    22.132139            0            0            0    9289.7283    918.00072   -1901.0749    -3275.379   -3666.6694   -1960.8116   -265.86374    18.001002    23.317552    22.132139           90           90           90 
    4500    235.41348   -148.03953    -121.7788   -148.03953            0    5844.9598    17.862502     23.03517    21.727446            0            0            0    8940.1004    6287.8903     6388.877    4858.1121    1503.7463   -262.39927   -1210.3565    17.862502     23.03517    21.727446           90           90           90 
    5000    239.05402   -147.79835   -121.13152   -147.79835            0    2112.0872    17.935729    23.148619    21.926909            0            0            0    9103.7758    2499.1166    3907.1252   -69.980113   -651.61032    -137.8016    117.04267    17.935729    23.148619    21.926909           90           90           90 
    5500    236.85061   -149.02566   -122.60462   -149.02566            0   -538.46922    17.944859    23.188621    22.105951            0            0            0    9198.6518    580.07127   -1781.6178   -413.86112    1802.6754    349.82018    1065.2482    17.944859    23.188621    22.105951           90           90           90 
    6000    239.48263   -148.46196   -121.74731   -148.46196            0    6134.7167     17.94834    23.186034     21.91611            0            0            0     9120.407    6479.6747    3797.5238    8126.9518    1152.6212    910.74914   -1173.5334     17.94834    23.186034     21.91611           90           90           90 
    6500    230.35356   -148.01202   -122.31573   -148.01202            0    1456.7518    17.878336    23.214178    21.854569            0            0            0    9070.3209    381.05695    403.81079    3585.3876    4513.0986    1415.1201   -184.21576    17.878336    23.214178    21.854569           90           90           90 
    7000    240.90389   -147.14358   -120.27039   -147.14358            0    3554.8025    17.786142    23.269693    21.986251            0            0            0    9099.6272     5179.575    3805.4986    1679.3337    1450.1548   -447.95287   -107.29512    17.786142    23.269693    21.986251           90           90           90 
    7500    244.34506   -148.05844   -120.80138   -148.05844            0    1170.6679    17.936304    23.427158    22.121011            0            0            0    9295.1745    3828.3597    1366.3379    -1682.694   -666.75777   -1472.3813    1499.2078    17.936304    23.427158    22.121011           90           90           90 
    8000    239.64482   -148.18067   -121.44793   -148.18067            0    4080.9086    17.910066    23.153769    21.848833            0            0            0    9060.3948    5271.9901    4110.9125     2859.823    2245.5636   -616.15287   -1631.9339    17.910066    23.153769    21.848833           90           90           90 
    8500    237.68586   -148.15202   -121.63781   -148.15202            0    2451.1688    17.926787    23.088151    21.922192            0            0            0    9073.5151    817.29002    3075.5796    3460.6368    -1548.678   -910.21381    553.47434    17.926787    23.088151    21.922192           90           90           90 
    9000    253.45661   -148.25631   -119.98285   -148.25631            0    4353.7972     17.97558    23.152738    22.097846            0            0            0    9196.7678    3498.2254     7858.261    1704.9052    2076.7332   -827.18214   -700.93227     17.97558    23.152738    22.097846           90           90           90 
    9500    247.77133   -147.87273   -120.23347   -147.87273            0    900.39714    17.935171     23.13278    21.939448            0            0            0    9102.4656   -473.07861    1864.4469    1309.8232     -486.466   -3635.8254   -303.57298    17.935171     23.13278    21.939448           90           90           90 
   10000    247.05899   -147.53222   -119.97242   -147.53222            0    2771.3174    17.967285     23.33678    21.867377            0            0            0    9168.9603    3404.5995    5582.6663   -673.31372   -788.73919   -2161.4083   -222.67578    17.967285     23.33678    21.867377           90           90           90 
   10500    260.66624   -147.09165   -118.01394   -147.09165            0    3930.0181    17.776124    23.420912    21.960773            0            0            0    9142.9955    5796.9114    3356.1383    2637.0046    3314.4584   -369.60701   -414.87299    17.776124    23.420912    21.960773           90           90           90 
   11000    238.49098   -146.60195   -119.99793   -146.60195            0    2043.6245    17.755441    23.378089    22.172147            0            0            0    9203.3985    4485.8408    1400.0964    244.93622    755.71048    166.33802    2431.0233    17.755441    23.378089    22.172147           90           90           90 
   11500    251.39249   -149.32216   -121.27895   -149.32216            0    1740.2575    17.957224    23.130289    22.053099            0            0            0    9159.8821    2502.9418    3692.6104   -974.77962    511.26639   -656.25506   -646.45893    17.957224    23.130289    22.053099           90           90           90 
   12000    250.36999   -148.08094   -120.15179   -148.08094            0    2469.0658    18.101615     22.96915    21.789339            0            0            0    9059.5427   -1134.7092    2735.6691    5806.2376   -1821.3531   -1069.5657    1462.5622    18.101615     22.96915    21.789339           90           90           90 
   12500    254.64207   -148.01495   -119.60924   -148.01495            0   -2671.7649    18.125861    23.247831     21.96189            0            0            0    9254.4541   -887.47124   -1130.7907   -5997.0329   -970.86944    510.27189     -378.524    18.125861    23.247831     21.96189           90           90           90 
   13000    254.39448    -147.4023   -119.02422    -147.4023            0    2745.6488    17.777067    23.257121    22.009859            0            0            0    9099.8308    4353.3654    302.86617    3580.7149    570.88773   -566.02922    349.38195    17.777067    23.257121    22.009859           90           90           90 
   13500    235.96909   -148.22335   -121.90065   -148.22335            0    3321.8081    17.775989    23.367404    22.074793            0            0            0    9169.3994    2777.0201    6238.9943    949.40978   -2191.3903    1485.7358   -386.55479    17.775989    23.367404    22.074793           90           90           90 
   14000    238.47825    -148.3449   -121.74229    -148.3449            0   -1504.9669    17.891829     23.32972    21.974289            0            0            0    9172.3183   -1735.1747   -1780.7715   -998.95451   -428.58631   -626.82943   -528.76455    17.891829     23.32972    21.974289           90           90           90 
   14500    237.42238   -148.86769   -122.38287   -148.86769            0    6262.8767    18.008429    23.184038    21.865148            0            0            0    9128.8765    7220.1838     1896.446    9672.0004   -1905.3582    1230.7231   -1056.8313    18.008429    23.184038    21.865148           90           90           90 
   15000    243.17478   -148.06818   -120.94167   -148.06818            0    1821.9851    18.076594    23.145939    22.072699            0            0            0    9235.2115     4594.056    3236.2355   -2364.3361    838.65659   -442.92848    1129.2362    18.076594    23.145939    22.072699           90           90           90 
   15500    245.05805   -148.17647   -120.83987   -148.17647            0    1405.9171    17.843955    23.106491    22.013839            0            0            0    9076.5521    1618.2807    3380.6927   -781.22195   -1113.1145    2421.3729   -694.21195    17.843955    23.106491    22.013839           90           90           90 
   16000    239.75996   -147.95474   -121.20916   -147.95474            0    2008.2815    17.840932    23.446103    22.042197            0            0            0     9220.258    4350.6756    2695.8295   -1021.6606   -1719.8809    155.35685    240.69068    17.840932    23.446103    22.042197           90           90           90 
   16500    246.71368   -147.98139   -120.46011   -147.98139            0    3590.0911    17.805495      23.4588    21.804274            0            0            0    9107.5481    6294.9196   -464.67284    4940.0265    176.45785    40.369109   -486.41625    17.805495      23.4588    21.804274           90           90           90 
   17000    245.77865   -148.53481   -121.11783   -148.53481            0    1812.6064    17.954573    23.200323    21.875468            0            0            0    9112.2674    3502.8179    2405.3698   -470.36845    83.731467    833.81032    707.47344    17.954573    23.200323    21.875468           90           90           90 
   17500    238.73715   -147.46498   -120.83349   -147.46498            0    144.60401    18.149833    23.058552    22.201276            0            0            0    9291.4308   -3271.6982    5571.3408   -1865.8306    2078.2108    2374.4542     923.7409    18.149833    23.058552    22.201276           90           90           90 
   18000    229.83257   -147.99165   -122.35348   -147.99165            0    3354.6889    17.933088    23.010281    21.970445            0            0            0    9066.0028    4045.5328    5686.1102    332.42356    -1984.491   -852.78148   -922.16904    17.933088    23.010281    21.970445           90           90           90 
   18500    238.59196    -147.8541   -121.23881    -147.8541            0    1997.5506    17.900768    23.400833    21.918967            0            0            0    9181.6993   -860.25952    3567.5578    3285.3535   -2195.8878    -2534.009   -29.910534    17.900768    23.400833    21.918967           90           90           90 
   19000    250.46609   -149.88607    -121.9462   -149.88607            0    3812.4877    17.867384    23.428146    21.921864            0            0            0    9176.4852     6479.772    3063.7015    1893.9896    1152.7443   -689.22847   -1228.8483    17.867384    23.428146    21.921864           90           90           90 
   19500    241.51781   -148.04136   -121.09968   -148.04136            0    2419.9505     17.97298    23.253861     22.06551            0            0            0    9222.0854    1921.7812    5160.7257    177.34457    -1336.394   -2008.0471   -606.71726     17.97298    23.253861     22.06551           90           90           90 
   20000     229.2728   -147.76289   -122.18717   -147.76289            0    3559.8331    17.972349    23.022174    21.989179            0            0            0    9098.2985    1242.4999    4936.4715    4500.5279    -1529.426    1118.0388    391.38155    17.972349    23.022174    21.989179           90           90           90 
   20500    227.28445   -147.54557   -122.19164   -147.54557            0    2134.2469    18.024207    23.145569     21.93638            0            0            0    9151.4307    958.85683    5814.7748   -370.89108     333.8478   -1082.1813    885.02735    18.024207    23.145569     21.93638           90           90           90 
   21000    225.34938   -147.73571   -122.59765   -147.73571            0    2044.3568    18.026289    23.392505    21.943105            0            0            0    9252.9698    2407.4806    2948.7863    776.80357   -1560.2905   -496.41735    1187.1852    18.026289    23.392505    21.943105           90           90           90 
   21500    230.23433   -149.27967   -123.59669   -149.27967            0    5625.6057    17.798818    23.299662    21.882336            0            0            0    9074.7457    2262.3832     5371.706    9242.7279   -218.34507    63.229176    2080.6751    17.798818    23.299662    21.882336           90           90           90 
   22000    237.60322   -148.43204   -121.92705   -148.43204            0   -379.90811    17.879683     23.32412    22.144655            0            0            0    9234.9378    2235.8285   -1506.3848    -1869.168    1515.4652   -831.86963     1048.332    17.879683     23.32412    22.144655           90           90           90 
   22500    239.78269    -148.4549   -121.70678    -148.4549            0    1848.3146    17.942981     23.17832    22.049017            0            0            0    9169.9254    2342.8904    3231.9232   -29.869938   -379.29577    308.78327    763.58123    17.942981     23.17832    22.049017           90           90           90 
   23000    229.58365   -148.29785   -122.68745   -148.29785            0    3184.7735    17.999188    23.176813    21.894422            0            0            0    9133.5606    4094.8981    3981.0925    1478.3298    1212.1926   -1475.1312    652.18057    17.999188    23.176813    21.894422           90           90           90 
   23500    240.94966   -148.19662   -121.31832   -148.19662            0   -314.76053      18.0333     23.30081    21.955523            0            0            0    9225.5025    1027.4317   -3672.3929    1700.6796    603.09195     320.8805     -861.597      18.0333     23.30081    21.955523           90           90           90 
   24000    250.58561   -147.15684   -119.20364   -147.15684            0    5170.4916    17.834806    23.162521    21.936864            0            0            0    9062.0977    6125.6736    6434.1575    2951.6437    2176.3268    -333.4781    88.471956    17.834806    23.162521    21.936864           90           90           90 
   24500    244.11536   -148.46828   -121.23684   -148.46828            0    1754.4179    17.946789    23.317037    22.108988            0            0            0    9251.8589    2664.2024    1421.0275    1178.0239   -1340.6333   -788.89392     915.2462    17.946789    23.317037    22.108988           90           90           90 
   25000    250.37759   -147.94921   -120.01921   -147.94921            0    3947.6483    17.939236    23.249194    21.960695            0            0            0    9159.2085    5036.0476    3125.1962     3681.701   -2611.3745    1335.7293    816.19528    17.939236    23.249194    21.960695           90           90           90 
   25500    251.85862   -147.38555   -119.29034   -147.38555            0    2396.4964    17.937236    23.229688     21.89562            0            0            0    9123.3879    2751.7251    3250.4932    1187.2709    49.190639    -1039.964    1503.2483    17.937236    23.229688     21.89562           90           90           90 
   26000    248.89899    -147.3196   -119.55454    -147.3196            0    2258.1293    17.946652    23.301956    22.031387            0            0            0    9213.3516    4065.4282    792.55218    1916.4077    1405.4233     1463.668   -622.67033    17.946652    23.301956    22.031387           90           90           90 
   26500     244.0226   -148.77221   -121.55112   -148.77221            0    1921.2981    17.950893    23.225377    22.030347            0            0            0    9184.8094    567.46407    4421.5952    774.83504    386.02133   -521.56653    747.64032    17.950893    23.225377    22.030347           90           90           90 
   27000    245.13168   -147.42296   -120.07815   -147.42296            0    3522.6466    17.953017    23.270792    22.016139            0            0            0    9197.9231    6559.8272    4080.7485   -72.635917   -310.36689    1193.1135    731.50429    17.953017    23.270792    22.016139           90           90           90 
   27500     237.4364   -146.94421   -120.45782   -146.94421            0    4953.3098    17.891304    23.201408    21.883807            0            0            0    9084.0438    5268.8402    5467.4731    4123.6162   -911.03399   -218.13932   -2226.5519    17.891304    23.201408    21.883807           90           90           90 
   28000    233.17791   -147.66044    -121.6491   -147.66044            0     1477.959    17.998318    23.283331    21.993568            0            0            0     9216.642    2177.5287   -1298.9034    3555.2516    -3796.059   -2169.3973    40.302916    17.998318    23.283331    21.993568           90           90           90 
   28500    239.33419   -147.50561   -120.80752   -147.50561            0    1470.1499    18.042469    23.273415    22.077289            0            0            0    9270.4718     2381.442    2168.1499   -139.14225   -1379.5424   -462.60832    973.12015    18.042469    23.273415    22.077289           90           90           90 
   29000    236.38287   -147.78939   -121.42052   -147.78939            0    646.73274    17.897042    23.188587     21.95561            0            0            0    9111.7341   -468.52477    1929.4022    479.32084   -634.37374     2182.565     1635.431    17.897042    23.188587     21.95561           90           90           90 
   29500    243.50755   -146.45516   -119.29152   -146.45516            0    842.75794    17.885672    23.440221    22.051008            0            0            0     9244.755    3415.6169   -990.97351    103.63045   -42.951331    739.31875   -871.96434    17.885672    23.440221    22.051008           90           90           90 
   30000    254.23415   -146.12993   -117.76973   -146.12993            0    2870.2218    17.843798    23.462112    21.927236            0            0            0    9179.9072    3215.3223    1020.6441    4374.6992   -1139.2754   -700.64215    1959.6051    17.843798    23.462112    21.927236           90           90           90 
   30500    233.80601   -146.02136   -119.93995   -146.02136            0    724.09882    18.046768    23.327999    21.990224            0            0            0    9257.7742    1733.7464    2018.8967   -1580.3467   -1204.6012    1263.2967    73.099524    18.046768    23.327999    21.990224           90           90           90 
   31000    245.24533   -147.10769    -119.7502   -147.10769            0    3175.4762    18.005136    23.028326    21.987401            0            0            0     9116.595    2888.2302    2813.2631    3824.9352    256.22169   -375.24655    668.15317    18.005136    23.028326    21.987401           90           90           90 
   31500    244.14136   -147.60494    -120.3706   -147.60494            0    2564.5002    17.983554    23.085969    22.045661            0            0            0    9152.6478    3143.3751    5042.1143   -491.98879   -310.19521    1923.4757    1230.2916    17.983554    23.085969    22.045661           90           90           90 
   32000    242.31199   -147.85392   -120.82365   -147.85392            0   -394.58288    17.939303    23.404572    21.994296            0            0            0    9234.5628   -1798.5725    -2056.696    2671.5198   -448.76406   -1524.4484    1305.5276    17.939303    23.404572    21.994296           90           90           90 
   32500    238.25972   -147.95639   -121.37816   -147.95639            0    3258.9373    17.823111    23.516018    21.910232            0            0            0    9183.2046    5453.3788    2986.3789    1337.0543    1123.8087   -809.96838      698.881    17.823111    23.516018    21.910232           90           90           90 
   33000    237.16614   -147.18883   -120.73259   -147.18883            0    1350.5658    17.862502    23.400077     21.96922            0            0            0    9182.7808    1688.5554    2410.4065   -47.264397    687.64664    473.11852   -376.77109    17.862502    23.400077     21.96922           90           90           90 
   33500    244.44162   -147.81175   -120.54392   -147.81175            0    451.52923    17.988316    23.010087     22.02639            0            0            0    9117.0025    347.31362    2124.0057   -1116.7317    416.22673   -1087.9462   -2718.5239    17.988316    23.010087     22.02639           90           90           90 
   34000    232.62321    -149.0564   -123.10694    -149.0564            0    1667.7798    18.162115    23.029724    22.134532            0            0            0    9258.1773     2298.087    307.00425    2398.2482   -440.54869   -360.07516    2004.0376    18.162115    23.029724    22.134532           90           90           90 
   34500    226.93949   -148.81845   -123.50301   -148.81845            0    3018.0659    18.004666    23.203303    21.885074            0            0            0    9142.8777    2968.2853    4722.8769    1363.0357   -156.09128    434.77701    426.65303    18.004666    23.203303    21.885074           90           90           90 
   35000    231.45096   -149.35464   -123.53593   -149.35464            0    2247.5029    17.817964    23.572273    21.893998            0            0            0    9195.6964    1944.4772     1346.105    3451.9263    1262.2207     1429.309   -520.72705    17.817964    23.572273    21.893998           90           90           90 
   35500    235.74252   -148.54522   -122.24779   -148.54522            0    2637.8571    17.700277    23.403456    22.010802            0            0            0    9117.9227    1925.0673    3872.6435    2115.8604     418.2811    921.82149   -1189.5863    17.700277    23.403456    22.010802           90           90           90 
   36000    243.53795   -149.38646   -122.21943   -149.38646            0    1959.3512    17.912233    23.185401    22.119214            0            0            0    9186.1603    165.14542    2693.3563     3019.552    363.11165    1995.6929    1400.9658    17.912233    23.185401    22.119214           90           90           90 
   36500    236.77219   -147.86527   -121.45298   -147.86527            0     2483.587    18.158437    23.160534    21.969332            0            0            0    9239.4024    1846.8394    1687.3815    3916.5399   -904.99074   -236.83026    1344.0308    18.158437    23.160534    21.969332           90           90           90 
   37000    240.90894   -147.93529   -121.06153   -147.93529            0     507.6026    18.078058    23.149539    21.787153            0            0            0    9117.8951   -1076.8411    1564.0729     1035.576    3148.1096     2519.326     487.6703    18.078058    23.149539    21.787153           90           90           90 
   37500    242.86825   -148.72707   -121.63475   -148.72707            0    1095.8606    17.945735    23.274786    22.021125            0            0            0    9197.8528   -1108.3872    1630.2438    2765.7252    973.49762      1373.83   -1038.9223    17.945735    23.274786    22.021125           90           90           90 
   38000    237.96183    -147.3712    -120.8262    -147.3712            0    295.15427     17.86646    23.377098    22.093774            0            0            0    9227.8178    969.47208    2919.5223   -3003.5316    1171.4809    1243.8263    2447.1461     17.86646    23.377098    22.093774           90           90           90 
   38500    237.03116   -147.25046   -120.80928   -147.25046            0    3774.5734     17.80482    23.332704    21.893198            0            0            0    9095.1919     2957.084    2969.9242    5396.7119   -163.48649    1550.5562   -333.54008     17.80482    23.332704    21.893198           90           90           90 
   39000    244.31561   -148.70822   -121.45445   -148.70822            0    2180.6183    17.939083    23.314181     21.95754            0            0            0     9183.412    3783.0975    776.26417    1982.4931    494.07459    -652.6867    -416.5033    17.939083    23.314181     21.95754           90           90           90 
   39500    242.14271   -147.97751   -120.96613   -147.97751            0    1583.1978    18.037071    23.177488    22.048634            0            0            0    9217.5198    2551.5779    5093.9616   -2895.9462   -1973.8432    431.69875   -413.20811    18.037071    23.177488    22.048634           90           90           90 
   40000    237.29247   -148.34932   -121.87899   -148.34932            0    3474.9702    17.944859    23.115514    21.973045            0            0            0    9114.5209    3260.1608    3289.5562    3875.1935    196.28588   -1254.1595    -1223.758    17.944859    23.115514    21.973045           90           90           90 
   40500    230.72136   -147.93255   -122.19524   -147.93255            0   -760.15167    17.938679    23.407092     22.03634            0            0            0    9252.8899    -1472.752    923.83599    -1731.539    539.73255   -1213.3917    341.60698    17.938679    23.407092     22.03634           90           90           90 
   41000    244.31666   -148.17946   -120.92557   -148.17946            0    4615.7971    17.763989    23.319259    21.849295            0            0            0    9050.9189    8099.5051    945.84659    4802.0395    751.63776   -2093.3861     1275.044    17.763989    23.319259    21.849295           90           90           90 
   41500    239.91496   -147.80427   -121.04139   -147.80427            0     2090.665    17.952635     23.39058    22.053636            0            0            0    9260.8189    899.26397     1296.827    4075.9039   -925.65885    45.798195   -446.36254    17.952635     23.39058    22.053636           90           90           90 
   42000    238.31057   -147.84263   -121.25872   -147.84263            0    2604.5904    17.976779    23.170574    21.992676            0            0            0    9160.6595    6332.8952    -830.2508    2311.1269    1576.5512   -675.37412    1590.5288    17.976779    23.170574    21.992676           90           90           90 
   42500    255.18125   -149.17457   -120.70871   -149.17457            0    4450.1247    17.982116    23.067753     21.95773            0            0            0    9108.2202    953.14361    7035.4444     5361.786    26.288253    866.47612   -1906.7153    17.982116    23.067753     21.95773           90           90           90 
   43000    246.24421    -147.7747   -120.30579    -147.7747            0    218.81448     18.03535    23.223722    22.000137            0            0            0    9214.7124   -2615.9731    3248.9638    23.452711    2044.5705   -1086.5295    1234.7918     18.03535    23.223722    22.000137           90           90           90 
   43500     240.6511   -148.18951   -121.34452   -148.18951            0    1168.2182    17.864857    23.295816     21.89103            0            0            0    9110.5306    79.870186    3865.9954   -441.21111   -1668.5425    40.519375    -1758.022    17.864857    23.295816     21.89103           90           90           90 
   44000    237.83411   -148.12575     -121.595   -148.12575            0    1115.8771    17.843976    23.595403    22.028451            0            0            0    9274.7665    3015.7143    -1555.653    1887.5701   -1062.5962   -751.24603    2221.9622    17.843976    23.595403    22.028451           90           90           90 
   44500    242.60676   -148.05535    -120.9922   -148.05535            0    2367.0752    17.697262    23.304833    21.972453            0            0            0    9062.1373    1911.0251    3067.0787    2123.1216    642.75581   -391.37471   -661.82848    17.697262    23.304833    21.972453           90           90           90 
   45000    226.63928    -148.0097   -122.72774    -148.0097            0   -542.59942    18.042306    23.020598    22.069333            0            0            0    9166.3801   -2565.1956   -1331.1031    2268.5005   -956.16837   -68.445504    -753.9972    18.042306    23.020598    22.069333           90           90           90 
   45500    235.41914   -149.04643   -122.78507   -149.04643            0    2233.1079    18.298525    23.010428    21.860341            0            0            0    9204.4473     2898.246    2112.2081    1688.8695   -346.13201    1609.6669     1330.006    18.298525    23.010428    21.860341           90           90           90 
   46000    235.09445   -147.93187   -121.70673   -147.93187            0    1138.2377    18.050354    23.244708     21.77861            0            0            0    9137.7647    2218.4843    1367.1643   -170.93538    801.37512   -1215.4723    509.72049    18.050354    23.244708     21.77861           90           90           90 
   46500    249.28632   -149.24932   -121.44105   -149.24932            0    3506.1368    17.762352    23.453651    21.983337            0            0            0    9158.0825    5947.7904    2502.6482    2067.9719    -151.5718   -65.975464     580.0234    17.762352    23.453651    21.983337           90           90           90 
   47000    242.10501   -148.03405   -121.02687   -148.03405            0    1535.2398    17.762366    23.384379    22.071839            0            0            0    9167.8009    1849.7827    1556.9422    1198.9945    402.92855   -847.84369    527.59755    17.762366    23.384379    22.071839           90           90           90 
   47500    242.86281   -147.83814   -120.74642   -147.83814            0    3538.2258    17.984854    23.234769    22.020302            0            0            0    9201.7105     5947.818     1890.697    2776.1623    356.06748   -497.85798   -764.33755    17.984854    23.234769    22.020302           90           90           90 
   48000    248.89974   -148.19906   -120.43392   -148.19906            0      2894.51    18.131595    23.193794     21.93892            0            0            0    9226.2037    4019.4762    4172.7566    491.29711   -689.83501    317.52848    1905.8217    18.131595    23.193794     21.93892           90           90           90 
   48500     234.1542   -146.84988   -120.72962   -146.84988            0    2204.9804     18.02169    23.098189    21.857767            0            0            0    9098.6975    4341.9191    2239.9255     33.09672    563.99593   -1273.5546   -939.42465     18.02169    23.098189    21.857767           90           90           90 
   49000    243.66388   -146.66768   -119.48661   -146.66768            0     1498.553    17.892572    23.342956    22.111386            0            0            0     9235.163     2328.219    1288.8277    878.61218   -1594.8817   -1179.1977    3884.3267    17.892572    23.342956    22.111386           90           90           90 
   49500     255.7949   -145.27399   -116.73968   -145.27399            0    1471.3589    17.775869    23.421711    22.099639            0            0            0    9200.9917    94.675039    803.41208    3515.9897   -1407.7134   -643.01853    -86.89507    17.775869    23.421711    22.099639           90           90           90 
   50000     250.8233   -147.35641   -119.37669   -147.35641            0    1713.6778    17.859401    23.403981    21.866761            0            0            0    9139.8922    4969.8662    2328.9517   -2157.7846   -545.52859    71.013455    2351.9906    17.859401    23.403981    21.866761           90           90           90 
   50500    245.20349   -148.47899   -121.12617   -148.47899            0    4379.7247    18.093885     23.25492    21.893972            0            0            0    9212.3668    664.18897    5866.5221    6608.4629    1495.9514   -175.27154    1192.6181    18.093885     23.25492    21.893972           90           90           90 
   51000    240.91265   -146.80736   -119.93319   -146.80736            0    3632.3978    18.039856    22.996655    21.975438            0            0            0    9116.6497    153.51787    1829.8505    8913.8251   -869.95177   -1207.0907    1645.3834    18.039856    22.996655    21.975438           90           90           90 
   51500    233.84592   -147.43858   -121.35271   -147.43858            0    752.18148     17.98151    23.182986    22.114438            0            0            0    9218.7374    2014.6167   -1196.4308    1438.3585   -1870.0177   -548.36694   -10.786281     17.98151    23.182986    22.114438           90           90           90 
   52000    234.33103   -149.24365   -123.10367   -149.24365            0    1647.1386    17.883612      23.3894     21.94316            0            0            0    9178.5376     -452.187    2885.3418    2508.2609     715.7869    238.57104   -541.48546    17.883612      23.3894     21.94316           90           90           90 
   52500    247.50433   -147.70127   -120.09178   -147.70127            0    1247.9207    17.859425    23.433135    21.889617            0            0            0    9160.8556    133.65734    1128.2794    2481.8255   -989.68699     1161.107   -1090.8727    17.859425    23.433135    21.889617           90           90           90 
   53000    238.96402   -148.18218   -121.52538   -148.18218            0    2839.5805    17.893647    23.317682    22.028458            0            0            0    9191.1177    3966.1499    1997.8659    2554.7257     150.9979    -375.1934   -6.6618961    17.893647    23.317682    22.028458           90           90           90 
   53500    240.07284   -148.18029    -121.3998   -148.18029            0    1346.5157    17.934064    23.124308    22.048001            0            0            0    9143.5886   -1107.5041    6030.9282   -883.87711   -416.57057   -1563.5395    821.38454    17.934064    23.124308    22.048001           90           90           90 
   54000    235.50853    -146.6582   -120.38687    -146.6582            0    829.85439      18.0164    23.144572    22.030909            0            0            0    9186.4899    165.46142    1326.7168    997.38495    658.18793   -934.62215    559.32709      18.0164    23.144572    22.030909           90           90           90 
   54500    233.28507   -149.16393   -123.14063   -149.16393            0    3969.6312    17.976814     23.24689    21.871472            0            0            0    9140.1977    2746.5587    2889.0043    6273.3306    652.59307   -1378.9853    1014.7289    17.976814     23.24689    21.871472           90           90           90 
   55000    241.30201   -148.59783   -121.68022   -148.59783            0    1839.6674    17.860396    23.430646    21.927037            0            0            0    9176.0401    4006.1373    21.231101    1491.6337   -32.384873    346.36984   -589.20473    17.860396    23.430646    21.927037           90           90           90 
   55500    235.02395   -148.69662   -122.47935   -148.69662            0    2354.3692    17.655004    23.382617    22.121358            0            0            0     9132.143    4503.5261   -606.16994    3165.7515     874.0058   -183.47802    386.16165    17.655004    23.382617    22.121358           90           90           90 
   56000    248.17142   -148.04006   -120.35616   -148.04006            0   -345.31533    17.878373    23.261864    22.228394            0            0            0    9244.4395    1386.9583   -178.68174   -2244.2226    -411.3888    731.60574   -736.67115    17.878373    23.261864    22.228394           90           90           90 
   56500    246.51884   -147.18422   -119.68467   -147.18422            0    1874.4106     18.11433    22.934347    21.833813            0            0            0    9070.6465    1646.7146     2628.072    1348.4452   -2384.4206    -301.6519    381.16951     18.11433    22.934347    21.833813           90           90           90 
   57000    246.51814    -148.2738   -120.77433    -148.2738            0    3584.1704    18.203699    23.101459    21.772756            0            0            0    9156.1408    4373.8283     2036.765    4341.9179   -2045.8781    22.258435    1291.4294    18.203699    23.101459    21.772756           90           90           90 
   57500    238.26226   -147.50147   -120.92295   -147.50147            0    1906.9029    17.956816    23.380077     21.98835            0            0            0    9231.4069    200.32027    1830.3188    3690.0695    2418.0938   -1138.0309    1595.9829    17.956816    23.380077     21.98835           90           90           90 
   58000    243.23169   -147.84151   -120.70865   -147.84151            0    982.44792    17.719355    23.325783    22.028016            0            0            0    9104.5719    1246.5947    213.03841    1487.7106   -982.85337    498.76615   -879.58577    17.719355    23.325783    22.028016           90           90           90 
   58500    237.70384   -147.92999   -121.41377   -147.92999            0     4300.285    17.869268    23.328819    22.025738            0            0            0    9181.8454     3739.681    3231.8323    5929.3417    81.079419   -220.64993   -226.80953    17.869268    23.328819    22.025738           90           90           90 
   59000    241.03909   -147.18167    -120.2934   -147.18167            0    1697.0106    17.980248    23.238841     21.92539            0            0            0    9161.3076    115.31827    2527.3188    2448.3947    3876.7723    1493.3384    166.07541    17.980248    23.238841     21.92539           90           90           90 
   59500    239.18996   -147.27532   -120.59332   -147.27532            0    624.66014    18.048805    23.220993    21.953171            0            0            0    9200.8192    57.993564    -303.1152    2119.1021   -601.59895    -735.4885    461.87115    18.048805    23.220993    21.953171           90           90           90 
   60000    236.10473   -147.78326   -121.44542   -147.78326            0    2986.9951    17.945449     23.20205    21.978439            0            0            0    9151.1891    458.81322    4365.1903    4136.9818    2024.1542   -1263.8669    1208.6028    17.945449     23.20205    21.978439           90           90           90 
   60500    229.27417   -147.48536   -121.90948   -147.48536            0    1506.1016    17.857036    23.263611    22.049281            0            0            0    9159.6933    -435.4267    2142.9429    2810.7885    1122.8801   -703.38722   -2446.5662    17.857036    23.263611    22.049281           90           90           90 
   61000    232.55031   -147.12857   -121.18723   -147.12857            0    430.19799    17.843216    23.422008     22.05488            0            0            0    9217.2624   -3229.8181    3562.5704     957.8417    1381.7015    44.083481    1866.2511    17.843216    23.422008     22.05488           90           90           90 
   61500    244.91836   -148.18222   -120.86121   -148.18222            0    4054.4232    17.860648    23.342545    21.878745            0            0            0    9121.5332    2325.7479    3280.7922    6556.7294    527.70291   -101.41091   -141.69487    17.860648    23.342545    21.878745           90           90           90 
   62000    244.67759   -147.84055    -120.5464   -147.84055            0    1037.5259    18.117636    23.238475    22.028482            0            0            0    9274.5691   -51.775099    980.19221    2184.1605   -1028.9179   -1657.0948   -291.36227    18.117636    23.238475    22.028482           90           90           90 
   62500    239.89307   -147.31566   -120.55523   -147.31566            0     1561.851    18.020305    22.980263    21.960095            0            0            0    9093.9244    793.14057   -117.09405    4009.5065   -1664.0753    1160.8253    971.95355    18.020305    22.980263    21.960095           90           90           90 
   63000    253.59261   -147.25749   -118.96885   -147.25749            0    480.51966    17.981641    23.224142    22.077828            0            0            0    9219.8814    912.88501   -1332.7188    1861.3928    588.67899    1078.0925    958.83317    17.981641    23.224142    22.077828           90           90           90 
   63500    232.50451   -147.45284   -121.51661   -147.45284            0    3124.2478    17.862527    23.401834    22.045916            0            0            0     9215.543    4076.0047    3856.8847    1439.8541    1564.8933    648.49071   -1003.6655    17.862527    23.401834    22.045916           90           90           90 
   64000    238.80495   -146.87606   -120.23701   -146.87606            0    1450.9287    17.761732    23.432711    21.991212            0            0            0    9152.8642    1074.5002    3576.6742   -298.38836    47.342681    425.72062   -1167.3474    17.761732    23.432711    21.991212           90           90           90 
   64500    241.31715   -147.36333   -120.44404   -147.36333            0    1047.7542    17.936482    23.419277    22.070479            0            0            0    9270.9131    3670.7987   -354.85353   -172.68244    1528.3419    537.00934    496.02859    17.936482    23.419277    22.070479           90           90           90 
   65000    234.48547   -148.98655   -122.82935   -148.98655            0    3465.2581    18.020951    23.085064    21.932957            0            0            0    9124.4352    6257.7023    4508.2634   -370.19123    531.25281   -407.95107   -897.95191    18.020951    23.085064    21.932957           90           90           90 
   65500    235.57727   -147.81447   -121.53547   -147.81447            0     461.0349    18.127111    23.049035    22.029265            0            0            0    9204.1006     -1138.87    1965.3578    556.61692    -2659.437   -1118.2775    157.61418    18.127111    23.049035    22.029265           90           90           90 
   66000    242.62397   -146.88029   -119.81522   -146.88029            0    1127.2816    17.955728    23.175066     22.00507            0            0            0     9156.864    2474.8743   -1400.3004    2307.2708   -1141.1965    493.67969    451.34621    17.955728    23.175066     22.00507           90           90           90 
   66500    246.69681    -147.4221    -119.9027    -147.4221            0    4725.8584    17.836155     23.53483    22.003584            0            0            0    9236.4639    4985.0124     4414.608    4777.9547    340.56978    1227.0573    1633.1396    17.836155     23.53483    22.003584           90           90           90 
   67000    236.34515   -147.74332   -121.37866   -147.74332            0   -172.43534    17.748389    23.539656    21.985141            0            0            0    9185.1938    1120.9975   -3038.7925     1400.489   -976.07538   -145.36454   -2145.6856    17.748389    23.539656    21.985141           90           90           90 
   67500    247.26025   -149.32457   -121.74232   -149.32457            0    4162.7989    17.819006    23.167069    22.079298            0            0            0    9114.6469    2110.1265    4676.1377    5702.1325     677.6642   -149.04944    915.53362    17.819006    23.167069    22.079298           90           90           90 
   68000    240.84008    -148.4725   -121.60643    -148.4725            0    142.27642    18.168885    23.031017    22.209967            0            0            0    9293.7141    630.21865    1228.5494   -1431.9388    393.44048   -1170.5151    111.24915    18.168885    23.031017    22.209967           90           90           90 
   68500    243.77654   -148.06922   -120.87558   -148.06922            0    1390.4126    18.123409    23.014057    21.852555            0            0            0    9114.5514    2244.4792    2154.5726   -227.81413    1456.6445   -767.05579     680.3907    18.123409    23.014057    21.852555           90           90           90 
   69000    240.47684   -149.31305   -122.48749   -149.31305            0     1727.173    18.031309    23.321707    21.899759            0            0            0    9209.3061    1632.1812    3117.4141    431.92362    1486.5165    584.27544    499.62605    18.031309    23.321707    21.899759           90           90           90 
   69500    237.22677   -148.99055   -122.52754   -148.99055            0    2384.5855    17.806997    23.319767    22.009606            0            0            0    9139.5993    5449.4628    283.89181     1420.402    782.62439    771.19196   -1120.3361    17.806997    23.319767    22.009606           90           90           90 
   70000    238.14838   -148.27108   -121.70527   -148.27108            0    1440.0118    17.845778    23.306096    22.137505            0            0            0    9207.3297    785.02792    4629.4194   -1094.4119    1318.9513    466.01401    385.28752    17.845778    23.306096    22.137505           90           90           90 
   70500    232.79446   -147.57912   -121.61054   -147.57912            0    4170.2996    17.948858    23.309171     21.97918            0            0            0    9195.4952    5778.0405    4100.8318    2632.0266    942.46183   -104.98272    1127.9221    17.948858    23.309171     21.97918           90           90           90 
   71000    242.13552   -148.67632   -121.66574   -148.67632            0    3297.7292    17.989655     23.20163    21.884645            0            0            0    9134.4173    3102.8391    3794.5468    2995.8016   -963.15993    622.41893    -8.726789    17.989655     23.20163    21.884645           90           90           90 
   71500    231.45023   -147.43499   -121.61637   -147.43499            0    556.99394    17.993194     23.18398    22.031313            0            0            0    9190.4471    464.29596    191.98108    1014.7048   -1170.3786    364.24374   -978.40774    17.993194     23.18398    22.031313           90           90           90 
   72000     255.4359   -146.86214   -118.36789   -146.86214            0    5762.1515    17.953905    23.333557     22.16155            0            0            0    9284.1037    4793.1749    5801.2255    6692.0541   -1678.6281   -646.10187   -291.28923    17.953905    23.333557     22.16155           90           90           90 
   72500    244.09899   -147.23542   -120.00581   -147.23542            0    3811.6562    17.809097    23.369358    21.956167            0            0            0    9137.8748     3063.566    2301.9283    6069.4742   -83.377425    1171.3434    2005.4161    17.809097    23.369358    21.956167           90           90           90 
   73000      238.182   -148.22614   -121.65658   -148.22614            0     3227.729    17.887797    23.305329    21.899851            0            0            0    9129.6317    2681.8782    4487.5701    2513.7386    1308.7331    1074.7426   -750.32521    17.887797    23.305329    21.899851           90           90           90 
   73500    248.13837   -148.74202   -121.06181   -148.74202            0    3767.8909     18.13959     23.22511    22.079719            0            0            0    9302.0523    1460.5327    3644.1975    6198.9423    557.62831    1168.8059   -1442.5197     18.13959     23.22511    22.079719           90           90           90 
   74000    237.48376    -148.0446   -121.55293    -148.0446            0    957.61053    18.011506    22.983576     21.98641            0            0            0    9101.6884   -890.58509    2556.0771    1207.3396   -45.142492    690.08418    1357.9131    18.011506    22.983576     21.98641           90           90           90 
   74500    245.59596   -148.45716   -121.06057   -148.45716            0    573.43819     17.95993    23.286805    22.036544            0            0            0    9216.3299    -1428.728    1077.6264    2071.4163    28.842002    370.54378    57.236513     17.95993    23.286805    22.036544           90           90           90 
   75000    241.45322   -147.74581   -120.81134   -147.74581            0    2426.4266    17.817197    23.544838    22.029787            0            0            0    9241.5622    2909.9157    2712.7744    1656.5896    -140.2477   -269.79046   -1075.0502    17.817197    23.544838    22.029787           90           90           90 
   75500    229.31712   -147.26638   -121.68571   -147.26638            0    3661.0316    17.729025    23.384842     21.94586            0            0            0    9098.5439    5454.3988    2651.9245    2876.7715   -878.50617   -2026.2736   -307.43434    17.729025    23.384842     21.94586           90           90           90 
   76000    238.56243   -147.87232   -121.26032   -147.87232            0    105.27404    17.996605    23.370459    22.132498            0            0            0    9308.6831   -1030.2011    1971.2861   -625.26287   -2455.6852   -553.72618     920.5902    17.996605    23.370459    22.132498           90           90           90 
   76500    222.28881   -149.09542   -124.29877   -149.09542            0    2875.9038    18.002072    23.068744    21.954776            0            0            0    9117.4936    6587.5641    1584.1552     455.9921    152.08554    575.37376   -1592.9037    18.002072    23.068744    21.954776           90           90           90 
   77000     225.2386   -148.99584   -123.87013   -148.99584            0    2968.4366    18.065368    23.171096    21.990047            0            0            0    9204.9097    2389.0498    3124.2266    3392.0333    129.55566    674.36987   -723.85998    18.065368    23.171096    21.990047           90           90           90 
   77500    231.89832   -147.37644   -121.50784   -147.37644            0   -2159.0917    18.007701    23.308824    22.021209            0            0            0    9243.1455    355.77123   -2256.0232   -4577.0231   -186.61358    571.35496    150.63238    18.007701    23.308824    22.021209           90           90           90 
   78000     250.4155   -147.11109   -119.17686   -147.11109            0    1308.8804    17.852996    23.285106    21.964001            0            0            0    9130.6308    2287.1066    1756.6071   -117.07239   -1270.3916    1005.6069    1649.7569    17.852996    23.285106    21.964001           90           90           90 
   78500    231.69239   -148.76854    -122.9229   -148.76854            0   -358.48885     17.91141    23.367922    22.108245            0            0            0    9253.4598   -169.94499   -1059.0048    153.48322    1923.3923    539.15266   -148.56897     17.91141    23.367922    22.108245           90           90           90 
   79000    233.52397   -148.38485    -122.3349   -148.38485            0    3326.2301    17.985489    23.226038    21.999109            0            0            0    9189.7243    3280.8803    3705.1554    2992.6546   -1297.5191   -83.256373   -606.99707    17.985489    23.226038    21.999109           90           90           90 
   79500    254.88976   -148.34144    -119.9081   -148.34144            0    2474.6614    18.066367    23.289194    22.007547            0            0            0    9259.6999    4845.1695    1164.2368    1414.5781   -2733.7968   -199.90008   -1871.6865    18.066367    23.289194    22.007547           90           90           90 
   80000    242.96862   -147.26413   -120.16062   -147.26413            0    3928.9828    17.899362    23.218478    21.936064            0            0            0    9116.5393    2237.4345    1167.3872    8382.1266    196.88935   -2124.3929    1560.3407    17.899362    23.218478    21.936064           90           90           90 
   80500    244.17927   -148.12677    -120.8882   -148.12677            0    11.869118    17.919907    23.279009    22.221625            0            0            0    9269.9211    2240.3222   -1078.5169   -1126.1979    -119.8008   -689.70896   -436.64469    17.919907    23.279009    22.221625           90           90           90 
   81000    245.56941   -149.07782   -121.68418   -149.07782            0    1293.8664    17.898491    23.234649    22.116469            0            0            0    9197.4687    2446.1138    1156.1439    279.34146    1278.6231    1092.6263    912.93755    17.898491    23.234649    22.116469           90           90           90 
   81500    233.40238   -147.74659    -121.7102   -147.74659            0    4023.1328    18.020813    23.374749    21.787003            0            0            0    9177.3823    3113.5115    2978.0981    5977.7888    1374.1541   -625.53769   -658.42667    18.020813    23.374749    21.787003           90           90           90 
   82000    240.80352   -149.26487   -122.40287   -149.26487            0   -288.08988    18.093473    23.505784    21.912341            0            0            0    9319.3461   -844.94566    1440.0038   -1459.3277    396.56939    109.79258   -532.69396    18.093473    23.505784    21.912341           90           90           90 
   82500    239.43184   -146.01192   -119.30294   -146.01192            0    5458.7149     17.84233    23.102352    22.123659            0            0            0    9119.3678    4934.9775     7104.756    4336.4111    1332.1609    1107.9365    23.876264     17.84233    23.102352    22.123659           90           90           90 
   83000    238.49693   -146.57497   -119.97028   -146.57497            0     1571.064    17.897582    23.100198    22.346791            0            0            0    9239.0052     3793.469     2757.536    -1837.813   -1023.1422     1034.525    436.14487    17.897582    23.100198    22.346791           90           90           90 
   83500    246.71819   -148.26152   -120.73974   -148.26152            0    1161.9134    17.986802    23.323724    21.997288            0            0            0    9228.2845   -1227.0393    1614.3958    3098.3837   -252.13417    1515.2382   -276.96825    17.986802    23.323724    21.997288           90           90           90 
   84000    251.00027   -147.19009   -119.19063   -147.19009            0    2406.1261    17.994527    23.378275    21.801388            0            0            0    9171.4297   -391.30504    3619.0251    3990.6584    59.771623   -629.55562   -151.32683    17.994527    23.378275    21.801388           90           90           90 
   84500    234.65559   -146.06735   -119.89117   -146.06735            0    670.37421    18.019647    23.279866    21.979367            0            0            0    9220.2338     602.0835    372.62915      1036.41   -943.12705    80.583185    1604.7246    18.019647    23.279866    21.979367           90           90           90 
   85000    240.00498   -148.52148   -121.74857   -148.52148            0    1753.6249    17.948327    23.195725    22.108902            0            0            0    9204.4767    640.43857    4220.9165    399.51973    1755.4178    136.05783    785.91671    17.948327    23.195725    22.108902           90           90           90 
   85500    251.84566   -147.66234   -119.56858   -147.66234            0    2850.6052    17.897731    23.175799    22.046254            0            0            0    9144.6584     2062.464    2399.8742    4089.4774    1827.9531    144.80673    939.10519    17.897731    23.175799    22.046254           90           90           90 
   86000    232.68761   -146.98831   -121.03166   -146.98831            0    1004.8677    18.015456    23.338454    22.070297            0            0            0    9279.5204    1171.4916     353.5171    1489.5945    1334.0021   -234.25232    120.94387    18.015456    23.338454    22.070297           90           90           90 
   86500    229.59482   -147.67529   -122.06364   -147.67529            0    1942.8797    17.969666    23.296647    21.949351            0            0            0    9188.7215    2518.6857    2753.9233    556.03013   -710.02098    1975.7142   -529.70242    17.969666    23.296647    21.949351           90           90           90 
   87000    236.36502   -148.80879   -122.44192   -148.80879            0     1716.458    17.943314    23.298391    21.967292            0            0            0    9183.4344    3094.9416    1673.8053     380.6272    1053.4594    468.76466     464.4286    17.943314    23.298391    21.967292           90           90           90 
   87500    235.08855   -148.07862   -121.85414   -148.07862            0    1847.0995    17.927213    23.359382    22.181109            0            0            0    9288.7525    5303.7728   -991.42563    1228.9514    1269.5098    406.78138       1119.5    17.927213    23.359382    22.181109           90           90           90 
   88000     249.5409   -148.74246    -120.9058   -148.74246            0    2135.8437    17.828994    23.086169    22.042575            0            0            0    9072.7936    1079.6935    411.00377    4916.8339    1572.7376    427.36372    1208.6998    17.828994    23.086169    22.042575           90           90           90 
   88500    234.54685   -147.93197   -121.76792   -147.93197            0    814.15935    18.053926    23.135684    21.971672            0            0            0    9177.3462   -1934.8575    1933.6867    2443.6489    462.72233   -648.52952   -1565.9387    18.053926    23.135684    21.971672           90           90           90 
   89000    228.66559    -149.2675   -123.75951    -149.2675            0    960.62344    18.191624    23.333143    21.936756            0            0            0    9311.4458   -1323.3177    4196.0312    9.1569002   -1314.2467    567.41564   -588.68335    18.191624    23.333143    21.936756           90           90           90 
   89500    230.96024   -149.38895   -123.62499   -149.38895            0    3171.3616    17.866019    23.250644    21.828924            0            0            0     9067.658    3964.5752    515.10184    5034.4077   -2062.6795    571.40496     909.0514    17.866019    23.250644    21.828924           90           90           90 
   90000    232.36772   -149.41704   -123.49607   -149.41704            0   -642.93747    17.851032    23.445997    22.175594            0            0            0    9281.2677   -2398.6939    2006.0345    -1536.153   -1416.0316   -1161.2747     874.4241    17.851032    23.445997    22.175594           90           90           90 
   90500    239.55799   -148.11563   -121.39258   -148.11563            0    3561.6829    17.764553    23.202354    22.017387            0            0            0    9075.1145    3294.8301    3572.6298    3817.5888   -630.77085   -1643.1274   -700.58449    17.764553    23.202354    22.017387           90           90           90 
   91000    237.40648   -147.88929   -121.40624   -147.88929            0   -86.066228     18.05323    23.318103     22.04211            0            0            0    9279.0023    352.72503   -1740.3786    1129.4549    430.55753    639.77031    628.83714     18.05323    23.318103     22.04211           90           90           90 
   91500     230.6891   -149.62471     -123.891   -149.62471            0    1523.2709    18.108631    23.214394    21.901146            0            0            0    9206.8235   -747.36201    2342.1838     2974.991    250.86301    1956.4765   -1044.6057    18.108631    23.214394    21.901146           90           90           90 
   92000    234.07767     -148.294   -122.18228     -148.294            0    4080.7966    17.991307    23.182744    21.894255            0            0            0    9131.8279    2994.3244    5320.9091    3927.1562   -620.83752    291.88695    2191.9938    17.991307    23.182744    21.894255           90           90           90 
   92500    234.20787   -147.79608   -121.66984   -147.79608            0     803.7389     17.90449    23.301988    22.127698            0            0            0    9231.9018   -144.08842      1472.92    1082.3851    697.29849   -155.89661    -709.2415     17.90449    23.301988    22.127698           90           90           90 
   93000    234.57082   -147.75858   -121.59185   -147.75858            0    3119.6522    17.842801    23.288492    22.047933            0            0            0    9161.6197    3345.3376    3573.5988    2440.0202    22.368227   -746.11256    271.94932    17.842801    23.288492    22.047933           90           90           90 
   93500    230.34885    -147.6758   -121.98004    -147.6758            0     888.1561     18.01352    23.352447    21.962584            0            0            0    9238.7759    143.82464    2440.2971    80.346537    468.05686   -628.74122   -915.29459     18.01352    23.352447    21.962584           90           90           90 
   94000    237.50136   -148.54654    -122.0529   -148.54654            0    3146.6405    17.973338    23.251257    21.869131            0            0            0    9139.1692    6290.3192    5003.6314   -1854.0291   -1855.3318    449.72973    78.267432    17.973338    23.251257    21.869131           90           90           90 
   94500    237.30707   -148.70164   -122.22968   -148.70164            0    1415.9296    17.957254    23.227027    22.130895            0            0            0    9230.6552     1601.708    1998.0467    648.03401    1353.0044    1858.7664    224.79157    17.957254    23.227027    22.130895           90           90           90 
   95000     215.9402   -147.77279   -123.68433   -147.77279            0    480.03401    17.971759      23.2229    22.199265            0            0            0    9265.0048    2555.9451    258.52406   -1374.3672   -201.60874   -1737.7448   -2554.5341    17.971759      23.2229    22.199265           90           90           90 
   95500    231.28065   -147.32409   -121.52439   -147.32409            0    5391.4592    17.917096    23.100165    21.819559            0            0            0    9030.8507    5537.6493    4366.7407    6269.9876   -1644.2678   -380.42077    1416.4528    17.917096    23.100165    21.819559           90           90           90 
   96000    247.71169   -147.85443   -120.22182   -147.85443            0    882.36058    18.067852    23.378438    21.972132            0            0            0    9280.9882   -229.27087    977.80392    1898.5487    181.73675    1514.3653   -820.83631    18.067852    23.378438    21.972132           90           90           90 
   96500    233.18716   -146.64436   -120.63198   -146.64436            0    2412.7645    17.899904    23.334738    22.045144            0            0            0    9208.0265    5325.4641    3625.7195   -1712.8902   -1945.8202    211.04613    1302.3397    17.899904    23.334738    22.045144           90           90           90 
   97000    246.05313   -148.64146   -121.19386   -148.64146            0    1303.1074    17.866565    23.342361    22.074384            0            0            0    9206.0734    42.895041    2083.9137    1782.5135   -1301.3111    782.17689    281.82684    17.866565    23.342361    22.074384           90           90           90 
   97500    241.65103   -148.11079   -121.15425   -148.11079            0    3299.2449    17.941449    23.251419    21.971389            0            0            0    9165.6753    1812.4299    1598.0813    6487.2235    1571.5875   -1929.2368   -1310.0185    17.941449    23.251419    21.971389           90           90           90 
   98000    234.05498    -148.4169   -122.30771    -148.4169            0    1573.2824    18.081479    23.096421    22.013912            0            0            0    9193.3942   -970.08059     1950.373    3739.5548   -3341.6265    -959.1212    1726.2678    18.081479    23.096421    22.013912           90           90           90 
   98500    240.94138   -148.11279   -121.23542   -148.11279            0    2121.4954    18.152123    23.077854    22.047598            0            0            0    9236.0043    48.564366     5644.994     670.9277   -1218.0701   -317.66033   -885.88566    18.152123    23.077854    22.047598           90           90           90 
   99000    235.83676   -147.82143   -121.51348   -147.82143            0    2643.2181     17.93385    23.277457    22.060225            0            0            0    9209.1388    3253.4719    2611.7816    2064.4008    -793.1138    354.92846    -20.41674     17.93385    23.277457    22.060225           90           90           90 
   99500    246.77699   -147.17957   -119.65122   -147.17957            0    3280.8682     17.63894    23.420079    21.996571            0            0            0    9086.9015     4449.283    3567.8951    1825.4265   -2004.7415    -162.4938   -2312.6318     17.63894    23.420079    21.996571           90           90           90 
  100000    229.90717    -145.9242   -120.27771    -145.9242            0   -1073.6044    17.821702    23.602027    22.120846            0            0            0    9304.6538   -1826.5513   -1515.0911    120.82907   -3078.0685    2057.3095    1686.9302    17.821702    23.602027    22.120846           90           90           90 
  100500    246.11832   -148.15686   -120.70199   -148.15686            0    4068.0975    17.984913     23.19262    21.903766            0            0            0    9136.4391    6053.5036     2877.091     3273.698    1497.8236    718.61914   -754.96972    17.984913     23.19262    21.903766           90           90           90 
  101000    241.58045   -148.70285   -121.75418   -148.70285            0   -772.75727    18.186027    23.090968    22.007621            0            0            0    9241.7257   -1177.0393    383.48179   -1524.7143     616.7235   -369.52011   -467.07248    18.186027    23.090968    22.007621           90           90           90 
  101500    231.32438   -147.31719   -121.51261   -147.31719            0    2596.5315    17.974753    23.090199    22.044637            0            0            0    9149.4198    3945.1402    2614.5292    1229.9253   -964.50527   -496.46466   -282.78482    17.974753    23.090199    22.044637           90           90           90 
  102000    235.58871    -147.9519   -121.67163    -147.9519            0    3357.1654    17.897446    23.320664     22.07722            0            0            0    9214.5976    1162.6589    5397.2341     3511.603    8.4057097    60.647105   -111.16602    17.897446    23.320664     22.07722           90           90           90 
  102500    232.63238   -147.99214   -122.04165   -147.99214            0    2310.0914    17.899195    23.495635    21.951904            0            0            0    9231.9381    3904.5833    1089.9606    1935.7303   -2324.0508   -765.48291   -114.14106    17.899195    23.495635    21.951904           90           90           90 
  103000    235.97883   -147.13847   -120.81468   -147.13847            0    2366.9295    17.911032    23.318074    21.919994            0            0            0    9154.9026   -2442.7281    1442.0147    8101.5018    892.04766    388.26733    513.01602    17.911032    23.318074    21.919994           90           90           90 
  103500    235.10323   -148.76959   -122.54347   -148.76959            0    1387.0165    18.031182    23.091841    22.169916            0            0            0    9230.9585    593.55908    1440.2795    2127.2109    2892.8618    664.62316    391.43158    18.031182    23.091841    22.169916           90           90           90 
  104000    239.78396   -147.18536    -120.4371   -147.18536            0    4896.8139    17.989232    23.004539    22.086759            0            0            0    9140.2513    2875.7023    8612.7238    3202.0157   -630.60007   -441.12506    392.21439    17.989232    23.004539    22.086759           90           90           90 
  104500     234.2157   -148.34191   -122.21479   -148.34191            0    885.79343    17.997995    23.379184    21.963617            0            0            0    9241.8162     2607.084     -1895.38    1945.6763   -678.75176    419.54245    417.33426    17.997995    23.379184    21.963617           90           90           90 
  105000     243.8461   -147.77948   -120.57808   -147.77948            0    537.46388    17.874864    23.522878    21.868901            0            0            0    9195.1784    251.09245    750.70285    610.59633   -6.9665956    171.09915    -225.4305    17.874864    23.522878    21.868901           90           90           90 
  105500    246.57822   -147.65509   -120.14892   -147.65509            0    3762.1367    17.825473    23.394143    22.052105            0            0            0    9195.9849     2342.661    5787.2569    3156.4923    1001.8782    55.960822    2016.5323    17.825473    23.394143    22.052105           90           90           90 
  106000     237.8954   -147.59648   -121.05889   -147.59648            0    2055.7507    17.908375     23.13347    22.202674            0            0            0    9198.1872    3429.7336    3744.3511   -1006.8326    402.18424    573.83777   -127.34107    17.908375     23.13347    22.202674           90           90           90 
  106500    240.71824    -148.5244   -121.67192    -148.5244            0     1407.095    18.095024    23.013271    21.976555            0            0            0    9151.6026   -735.13759    4700.4679    255.95466   -63.093668    462.93034   -929.89171    18.095024    23.013271    21.976555           90           90           90 
  107000    241.25879   -148.53758   -121.62479   -148.53758            0   -1031.8921    18.190391     23.30557     21.93566            0            0            0    9299.3472   -2203.1527   -2482.6323    1590.1086    1303.0216    1365.6037    858.32351    18.190391     23.30557     21.93566           90           90           90 
  107500    242.31737    -148.3347   -121.30383    -148.3347            0    6770.1525    17.885182    23.327939    21.908181            0            0            0    9140.6283    9525.5021    5858.0398    4926.9155    234.47666   -1232.8166   -34.952946    17.885182    23.327939    21.908181           90           90           90 
  108000    242.46556   -147.22011   -120.17271   -147.22011            0    1800.3846    17.780531    23.434281    22.079902            0            0            0    9200.1202    2711.7342    1117.2716     1572.148     320.4827   -1029.0447    116.35351    17.780531    23.434281    22.079902           90           90           90 
  108500     248.1643   -147.83836   -120.15526   -147.83836            0    2186.3586       17.877     23.36337     22.11511            0            0            0    9236.7512    3862.6112    1268.9256    1427.5389   -1522.6613   -1626.0085   -591.47855       17.877     23.36337     22.11511           90           90           90 
  109000    236.86937   -147.72745   -121.30432   -147.72745            0    4845.2479    18.028046    23.124045    21.969104            0            0            0    9158.5103    3520.9662     6636.557    4378.2206   -1130.0551    1021.7672    -1913.083    18.028046    23.124045    21.969104           90           90           90 
  109500    247.66155   -148.17699   -120.54997   -148.17699            0    1879.9874    18.242031    23.124723    21.990487            0            0            0    9276.5086   -145.57128    3481.4642    2304.0693    -341.0501   -1482.0965    642.16016    18.242031    23.124723    21.990487           90           90           90 
  110000    232.92487   -146.89737   -120.91425   -146.89737            0    1725.4457    17.968122    23.136288    21.881177            0            0            0    9096.3476    2499.5973    1333.1298      1343.61    301.39613    603.96949   -272.93718    17.968122    23.136288    21.881177           90           90           90 
  110500    229.71279   -148.21987   -122.59506   -148.21987            0    2202.8975    17.804598    23.440784    22.103002            0            0            0    9224.7706    1749.7008    2458.0813    2400.9103   -1507.6444    1150.3614    130.55947    17.804598    23.440784    22.103002           90           90           90 
  111000    244.46532   -148.44072   -121.17025   -148.44072            0    702.28781    17.743414    23.429467    22.101245            0            0            0    9187.9015    2129.8845   -906.62195     883.6009    2315.4459   -17.515138    928.67144    17.743414    23.429467    22.101245           90           90           90 
  111500    237.41502   -147.62598   -121.14198   -147.62598            0    1092.6663    17.993811    23.328844    21.932333            0            0            0    9206.6406   -1278.1624    1816.5567    2739.6046   -1885.8601   -769.28662    933.37762    17.993811    23.328844    21.932333           90           90           90 
[...]
  373500    230.85479   -148.31103   -122.55883   -148.31103            0    644.44189     17.88608    23.307842    22.097265            0            0            0    9212.0388    403.22088    2260.2128   -730.10805   -516.57096   -1009.5949    298.93235     17.88608    23.307842    22.097265           90           90           90 
  374000    239.13146   -147.04877    -120.3733   -147.04877            0    1877.6043    17.872364    23.398362    21.992299            0            0            0    9196.8288    4060.4011    2432.9625   -860.55084    1003.4124    415.61231    235.47155    17.872364    23.398362    21.992299           90           90           90 
  374500    251.76252   -147.27687   -119.19238   -147.27687            0    2612.2159     17.92681    23.389064    21.955219            0            0            0    9205.6327    3713.5875    2411.8274    1711.2327    243.71298     -79.7371    62.396368     17.92681    23.389064    21.955219           90           90           90 
  375000    243.28638   -146.20947    -119.0705   -146.20947            0    3762.5182    18.017805    23.188288    21.999204            0            0            0    9191.3123    3603.7876    5461.5154    2222.2517   -170.24048   -635.81986     1948.287    18.017805    23.188288    21.999204           90           90           90 
  375500    245.09026   -148.28281   -120.94262   -148.28281            0     595.1224    18.086178    22.912175    21.974351            0            0            0    9106.0323    970.20847    930.63527   -115.47655    724.24968   -772.73632   -441.21763    18.086178    22.912175    21.974351           90           90           90 
  376000    240.94045   -147.25243   -120.37516   -147.25243            0    173.86074    18.186898    23.137377    22.088015            0            0            0    9294.5729   -2623.3698   -1354.0103    4498.9624    1402.0335   -614.00753    61.638311    18.186898    23.137377    22.088015           90           90           90 
  376500    254.27348   -147.50172   -119.13713   -147.50172            0    4917.3333     17.87664    23.317268    21.894559            0            0            0    9126.4055    4206.7565     7393.238    3152.0055   -780.97769    724.44206   -1052.4694     17.87664    23.317268    21.894559           90           90           90 
  377000    231.40627   -147.99571   -122.18199   -147.99571            0   -313.63039    17.789678    23.585756    22.050327            0            0            0     9251.942   -1829.7267  -0.32717042    889.16268   -575.46594     354.2161    174.31092    17.789678    23.585756    22.050327           90           90           90 
  377500    237.29172   -148.12192   -121.65167   -148.12192            0    2621.8276    17.763168    23.406126    21.956825            0            0            0    9128.9222    4583.1502    768.52275    2513.8099    935.34566   -236.33185     233.8727    17.763168    23.406126    21.956825           90           90           90 
  378000    239.98294    -147.6271   -120.85665    -147.6271            0    1380.5498    18.039927    23.156942    21.974951            0            0            0    9180.0258   -450.06607    2815.4459    1776.2696   -680.57872    143.82972    -956.9011    18.039927    23.156942    21.974951           90           90           90 
  378500     235.0285   -148.50436   -122.28658   -148.50436            0    242.11175    18.199287    22.988926    22.057452            0            0            0    9228.4423   -2231.2279    1811.6993    1145.8639     1405.386    207.04502    771.09569    18.199287    22.988926    22.057452           90           90           90 
  379000    230.42142   -146.38789   -120.68404   -146.38789            0    3055.2916     18.05574    23.044947    22.068726            0            0            0     9182.655    1582.4553    4584.8923    2998.5271    -2785.275   -949.35906    212.55121     18.05574    23.044947    22.068726           90           90           90 
  379500    233.30898   -148.17918   -122.15322   -148.17918            0    1725.9309     17.84648    23.368503    21.997516            0            0            0    9173.9657    4598.6037   -179.20452    758.39345    1416.7138    556.64106   -343.27791     17.84648    23.368503    21.997516           90           90           90 
  380000    235.37702   -148.00312   -121.74646   -148.00312            0    3908.0199    17.774979     23.47884    22.011333            0            0            0    9186.1188    4071.6649    2620.1525    5032.2422   -52.445507   -1728.2475    972.01836    17.774979     23.47884    22.011333           90           90           90 
  380500    234.23241   -148.78912   -122.66015   -148.78912            0   -144.19011    17.911248    23.309049    22.016412            0            0            0    9191.7235    379.33276   -2475.1766    1663.2735    397.27024    458.13636   -236.06383    17.911248    23.309049    22.016412           90           90           90 
  381000    246.50803    -149.0403   -121.54196    -149.0403            0     2054.791    18.126589    23.145695    22.039533            0            0            0    9246.7409    1806.5004    1812.0298    2545.8429   -860.55015   -450.41275    1112.9584    18.126589    23.145695    22.039533           90           90           90 
  381500    262.39886   -147.93824   -118.66725   -147.93824            0    1468.7022    18.025323    23.087194    22.007278            0            0            0    9158.4196    -2103.973    4655.7144    1854.3654   -1554.9017   -1284.3309   -961.93623    18.025323    23.087194    22.007278           90           90           90 
  382000    238.18978   -146.85189   -120.28146   -146.85189            0     326.2859    17.910701    23.353109    22.100331            0            0            0    9243.9172    2213.8922   -629.86974   -605.16477     1049.582   -1704.6031     572.6806    17.910701    23.353109    22.100331           90           90           90 
  382500    241.40535   -146.13736   -119.20823   -146.13736            0    4213.2816    17.825486    23.497706    22.015583            0            0            0    9221.4034    3881.3167    4830.9913    3927.5369   -1511.5277    1153.7102    1307.6037    17.825486    23.497706    22.015583           90           90           90 
  383000    237.23762   -146.01655   -119.55234   -146.01655            0    1961.2519    17.878625    23.356524     21.83641            0            0            0    9118.5035    2173.6543    1188.8092     2521.292   -1612.9882   -1439.5055    31.659545    17.878625    23.356524     21.83641           90           90           90 
  383500    245.31662   -146.10104   -118.73561   -146.10104            0    3142.7118    18.076567     23.17278    21.985375            0            0            0    9209.3285    4857.8547    4009.4817     560.7991   -1788.7896   -375.00594    1401.0641    18.076567     23.17278    21.985375           90           90           90 
  384000    236.03794   -147.64737   -121.31698   -147.64737            0    3399.3962    18.183375    23.023408    22.209286            0            0            0    9297.7676    1324.1614    6666.6205    2207.4069   -1996.7831   -455.00113    1243.0097    18.183375    23.023408    22.209286           90           90           90 
  384500    237.25879   -148.02442   -121.55784   -148.02442            0    1324.2324    17.940661    23.009837    22.046717            0            0            0    9101.1424   -2455.0442    4092.1537    2335.5876   -694.95832     361.0483    1191.9136    17.940661    23.009837    22.046717           90           90           90 
  385000    241.51198    -149.5064   -122.56538    -149.5064            0     972.9053    17.833957    23.507084    21.957115            0            0            0    9204.9569    1073.1251   -1879.5813    3725.1721   -926.72426   -1213.2248   -1160.9492    17.833957    23.507084    21.957115           90           90           90 
  385500     230.6453   -148.65174   -122.92291   -148.65174            0    4914.8951    17.774868     23.57574    21.884317            0            0            0    9170.7469    4352.3686    2610.9521    7781.3645   -1683.1544    428.98154    1305.9752    17.774868     23.57574    21.884317           90           90           90 
  386000    239.70284   -147.91274   -121.17352   -147.91274            0   -1140.3009    17.919953     23.31089    21.991886            0            0            0    9186.6718    -1717.289    -123.2152   -1580.3984   -1968.4038   -1427.8466   -2416.1571    17.919953     23.31089    21.991886           90           90           90 
  386500    241.81192   -147.21887   -120.24439   -147.21887            0    2142.4849    18.097059    23.083654    22.136321            0            0            0    9247.3648    5444.0712    1843.3007   -859.91722    595.60421     612.1785    912.49005    18.097059    23.083654    22.136321           90           90           90 
  387000    233.17573    -146.8414    -120.8303    -146.8414            0    4411.4006    18.019698    22.987543    21.968105            0            0            0    9099.8168     4882.731    5500.3538    2851.1171    580.39027    383.87074   -97.864866    18.019698    22.987543    21.968105           90           90           90 
  387500    237.91094   -147.68899   -121.14967   -147.68899            0    1337.4212    17.971928    23.303054     22.00765            0            0            0    9216.8219    589.54828     400.2979    3022.4173   -1227.2337   -114.26286    1736.0595    17.971928    23.303054     22.00765           90           90           90 
  388000    236.43087   -149.26779   -122.89357   -149.26779            0    2313.7618    17.865965    23.374344    21.994435            0            0            0    9184.9909    2818.1327    2397.2372    1725.9156    -762.2012   -597.77492    933.20334    17.865965    23.374344    21.994435           90           90           90 
  388500    233.28523   -149.21138   -123.18806   -149.21138            0    1301.8685    17.866934    23.329899    22.017527            0            0            0    9177.6487    467.58711    2088.9486    1349.0699    -2004.232    112.40601   -1696.6216    17.866934    23.329899    22.017527           90           90           90 
  389000     232.3708   -148.34269   -122.42138   -148.34269            0    1815.4674    17.910912    23.246277    22.045871            0            0            0    9179.0633    1390.4492    3472.2551    583.69793    807.64988   -2188.3541    -1161.051    17.910912    23.246277    22.045871           90           90           90 
  389500    241.32238   -149.72149   -122.80161   -149.72149            0    663.43668    18.001001    23.238324    22.031165            0            0            0    9215.9246   -1203.6825    370.74543    2823.2471   -1646.0395    256.61852   -2093.6465    18.001001    23.238324    22.031165           90           90           90 
  390000    230.36223   -149.03475   -123.33749   -149.03475            0    1580.9854    18.008153    23.248062    22.008485            0            0            0    9213.9547    3854.4422    932.74425   -44.230277    623.06682   -372.56135    858.28572    18.008153    23.248062    22.008485           90           90           90 
  390500     243.1052   -148.53442   -121.41567   -148.53442            0    3643.4282    17.873151    23.178026     21.97953            0            0            0     9105.336    2059.2069    3764.5309    5106.5469   -995.30115    215.88423    860.46348    17.873151    23.178026     21.97953           90           90           90 
  391000     244.9404   -147.25232   -119.92885   -147.25232            0   -1096.3378      17.8935    23.326482    22.086756            0            0            0    9218.8441    216.49299   -2384.8066   -1120.6997    36.774117   -974.59342   -864.22931      17.8935    23.326482    22.086756           90           90           90 
  391500      249.424   -146.61913   -118.79551   -146.61913            0    2764.5751    17.978171    23.410297    21.897334            0            0            0    9216.0253    617.99863    4139.5054    3536.2213   -38.578909    617.62906    443.19106    17.978171    23.410297    21.897334           90           90           90 
  392000    231.54563   -149.43927      -123.61   -149.43927            0    1921.8113    18.066649    23.406646    21.968139            0            0            0    9289.8792    819.35887    837.06979    4109.0054    654.19281    1258.2058    1586.6055    18.066649    23.406646    21.968139           90           90           90 
  392500    235.55164   -149.36029   -123.08415   -149.36029            0    5317.8285    17.846162    22.932991    22.066117            0            0            0    9030.9086    4565.0479    9538.4343    1850.0033    1386.2425   -2227.2017    328.35152    17.846162    22.932991    22.066117           90           90           90 
  393000     235.4321   -146.66101    -120.3982   -146.66101            0   -362.24763    18.017397    23.171258    22.240164            0            0            0    9284.9514   -2304.9898     174.1306    1044.1163    830.15022    220.77195    820.74248    18.017397    23.171258    22.240164           90           90           90 
  393500    251.72965   -146.69704   -118.61622   -146.69704            0    2360.3302    18.020687    23.377068    21.910206            0            0            0    9230.1306    1373.0299    3320.0072    2387.9534    -564.1252   -178.43224    -136.0753    18.020687    23.377068    21.910206           90           90           90 
  394000    243.73639   -148.75333   -121.56417   -148.75333            0   -1254.3378    17.904964    23.428041    21.862568            0            0            0    9170.8713   -1890.5696   -3977.9509    2105.5073    933.71142   -1170.5752   -56.364861    17.904964    23.428041    21.862568           90           90           90 
  394500    232.08341   -147.82889   -121.93963   -147.82889            0   -90.407721    17.943346    23.299134     22.07131            0            0            0    9227.2289    -1412.651    918.11859    223.30929   -1790.8687    287.29707   -1117.1982    17.943346    23.299134     22.07131           90           90           90 
  395000    243.16501   -147.20454   -120.07912   -147.20454            0    3732.8095    17.951535    23.117244    22.025078            0            0            0    9140.1873    3958.9365    2601.1826    4638.3093    612.16461   -184.19425   -1025.0619    17.951535    23.117244    22.025078           90           90           90 
  395500    239.85785   -148.82843   -122.07193   -148.82843            0    417.81623     18.08664    23.355835    22.026877            0            0            0    9304.7825    791.74037    1027.5096   -565.80129   -424.90196   -1468.4503   -177.13778     18.08664    23.355835    22.026877           90           90           90 
  396000    224.90559   -147.74953   -122.66097   -147.74953            0     411.0426    17.951685    23.291267    21.889728            0            0            0    9152.4779   -1576.1217    990.13235    1819.1171   -514.73528    121.50355    559.83295    17.951685    23.291267    21.889728           90           90           90 
  396500    230.36704   -148.66623   -122.96844   -148.66623            0      963.244    17.925413    23.383283    22.075215            0            0            0    9252.9372    3864.6937    -2206.839    1231.8772   -885.02268   -63.982298   -982.73572    17.925413    23.383283    22.075215           90           90           90 
  397000     249.2317   -149.49512   -121.69294   -149.49512            0    819.41845    17.876637    23.256548    22.051165            0            0            0    9167.7466    3753.4803    639.74084   -1934.9658    602.39757    -1415.101    509.05997    17.876637    23.256548    22.051165           90           90           90 
  397500    250.10192     -149.303   -121.40376     -149.303            0    1684.1754    17.995509    23.251678    22.005647            0            0            0    9207.7299    1977.5639     2153.209    921.75343    873.83298    5.6430852   -1209.2721    17.995509    23.251678    22.005647           90           90           90 
  398000    226.49626   -146.97808   -121.71209   -146.97808            0    2117.1455    18.122657    23.257184    21.931003            0            0            0    9243.5221   -1188.6878    3225.4858    4314.6386   -1458.0434    122.22321    624.99406    18.122657    23.257184    21.931003           90           90           90 
  398500    241.12425   -147.05537    -120.1576   -147.05537            0    3776.1426    18.022662     23.15584     21.84016            0            0            0    9114.5516    6014.9484    4012.4023    1301.0771    -1133.456   -403.70576    1457.6454    18.022662     23.15584     21.84016           90           90           90 
  399000    228.64905   -149.65989   -124.15374   -149.65989            0    369.67358    17.977946    23.397357    22.144264            0            0            0    9314.6839   -1396.3308    147.24085    2358.1107    781.41949   -820.47011   -1658.4505    17.977946    23.397357    22.144264           90           90           90 
  399500    234.35113   -147.99825   -121.85603   -147.99825            0    6265.6182    17.705477    23.300511    22.138671            0            0            0    9133.2346    7164.0326    4692.1118    6940.7103     -640.132    1836.1503   -144.77389    17.705477    23.300511    22.138671           90           90           90 
  400000    230.36412   -148.81169   -123.11423   -148.81169            0     1342.979    17.850751    23.343695    22.048118            0            0            0    9187.5055    1.6601659     4640.011   -612.73416   -1046.3622   -726.17149   -1188.0152    17.850751    23.343695    22.048118           90           90           90 
Loop time of 2129.83 on 1 procs for 400000 steps with 864 atoms

Performance: 8.113 ns/day, 2.958 hours/ns, 187.809 timesteps/s
74.7% CPU use with 1 MPI tasks x 1 OpenMP threads

MPI task timing breakdown:
Section |  min time  |  avg time  |  max time  |%varavg| %total
---------------------------------------------------------------
Pair    | 1845.4     | 1845.4     | 1845.4     |   0.0 | 86.65
Bond    | 0.065572   | 0.065572   | 0.065572   |   0.0 |  0.00
Neigh   | 256.68     | 256.68     | 256.68     |   0.0 | 12.05
Comm    | 8.2343     | 8.2343     | 8.2343     |   0.0 |  0.39
Output  | 3.1453     | 3.1453     | 3.1453     |   0.0 |  0.15
Modify  | 14.598     | 14.598     | 14.598     |   0.0 |  0.69
Other   |            | 1.666      |            |       |  0.08

Nlocal:        864.000 ave         864 max         864 min
Histogram: 1 0 0 0 0 0 0 0 0 0
Nghost:        3779.00 ave        3779 max        3779 min
Histogram: 1 0 0 0 0 0 0 0 0 0
Neighs:         0.00000 ave           0 max           0 min
Histogram: 1 0 0 0 0 0 0 0 0 0
FullNghs:      171516.0 ave      171516 max      171516 min
Histogram: 1 0 0 0 0 0 0 0 0 0

Total # of neighbors = 171516
Ave neighs/atom = 198.51389
Ave special neighs/atom = 0.0000000
Neighbor list builds = 40000
Dangerous builds not checked

unfix		3
unfix		2

write_data	data.final.${pid}
write_data	data.final.0
System init for write_data ...

write_restart   restart.lmp.${pid}
write_restart   restart.lmp.0
System init for write_restart ...
Unloading pair style deepmd
Unloading compute style deepmd
Unloading fix style deepmd
Total wall time: 0:35:40
