LAMMPS data file via write_data, version 29 Sep 2021, timestep = 2000000

864 atoms
2 atom types

0.1559876767657613 18.051585323233056 xlo xhi
0.18373287063252697 21.262382129365463 ylo yhi
0.1903045967531405 22.022891403242166 zlo zhi

Masses

1 1.008
2 15.999

Atoms # full

539 0 2 0.5897 2.426656508959029 2.6169239717803086 2.1728825210796607 1 0 0
538 0 1 -1.1794 1.8942488523454835 1.9386393059820943 2.6151461640850906 1 0 0
19 0 1 -1.1794 4.17471355982776 3.3831054092830493 1.7052471305328643 0 1 0
540 0 2 0.5897 2.2140211797645213 1.0893824884929602 2.246477962626963 1 0 0
707 0 2 0.5897 4.1081617923068166 1.6095974094136494 3.2880532325688048 0 1 1
20 0 2 0.5897 4.51178554726336 4.226946480019427 1.8724187970481452 0 1 0
357 0 2 0.5897 0.806936557911425 4.247476120132491 1.5824668000223452 1 0 0
26 0 2 0.5897 1.8006366913700314 2.341441419275327 4.282151522156847 1 1 0
21 0 2 0.5897 4.358797135612987 3.11741470405495 0.7723523289151014 0 1 0
706 0 1 -1.1794 4.99417470324536 1.3379639061005921 3.5113247448259233 0 1 1
479 0 2 0.5897 6.281995179722565 0.443763935102048 2.5640149479747274 0 0 0
708 0 2 0.5897 5.072870875100232 1.263941397086873 4.475813957181147 0 1 1
335 0 2 0.5897 8.902554429476098 1.3033561407512353 4.332845336211224 0 1 0
235 0 1 -1.1794 6.97993970684743 2.995792052185939 2.324481356449203 0 1 1
236 0 2 0.5897 6.040668385753982 2.814653929409515 2.592388801233572 0 1 1
237 0 2 0.5897 7.062047606464053 3.968929877710275 2.3964732793835672 0 1 1
585 0 2 0.5897 7.477706659499119 3.082183621880559 0.5814592999805803 0 1 1
683 0 2 0.5897 10.35755340094638 3.0300240054560352 3.0614002776710763 1 0 1
682 0 1 -1.1794 10.359348866768377 2.323496675520468 3.75311067221853 1 0 1
684 0 2 0.5897 11.229544659323327 1.8913772978441468 3.6417297909936672 1 0 1
152 0 2 0.5897 13.368668284970619 2.880620823891542 3.2528197334543036 0 0 0
151 0 1 -1.1794 13.28892952105603 1.9563697618149245 3.6238297232950454 0 0 0
745 0 1 -1.1794 10.358664501613676 4.14275705791214 1.7751680513869916 0 1 0
575 0 2 0.5897 13.433601686310787 1.929327204215145 0.3322449568417943 0 2 1
576 0 2 0.5897 13.776462404252438 1.2988534142739396 1.7639094641964896 0 2 0
330 0 2 0.5897 17.457262383814115 3.49555374519512 3.365488353726458 -1 0 0
328 0 1 -1.1794 17.746987260212954 4.3504345106928755 3.080881844662145 -1 0 0
338 0 2 0.5897 17.38339975741903 1.4218738273036011 2.617418926964237 0 0 1
337 0 1 -1.1794 17.105678024088796 1.5917172291550117 3.524395908895543 0 0 1
52 0 1 -1.1794 16.772667279523013 1.061015251809412 0.5890728497605769 0 0 0
574 0 1 -1.1794 13.905923187023868 1.2398747496170366 0.8184827219165428 0 2 0
53 0 2 0.5897 15.79339936462115 1.3342162684230283 0.6580007619067331 0 0 0
339 0 2 0.5897 17.67293075161423 0.9961661667145975 4.057505741190791 0 0 1
355 0 1 -1.1794 1.0062325049499266 4.767749771735575 0.7726805467543678 1 0 0
698 0 2 0.5897 0.6180050458898916 8.041092329515942 3.4508560608348215 0 0 0
737 0 2 0.5897 2.302540475336036 6.139439211332562 1.8658529403601964 0 1 1
736 0 1 -1.1794 2.6492297364304904 6.997349037074149 1.5902144833807847 0 1 1
738 0 2 0.5897 3.566047819728315 6.662990775938212 1.3663942716028006 0 1 1
191 0 2 0.5897 3.5465281878855945 6.139811264243425 4.029295779764946 1 1 1
557 0 2 0.5897 1.1949240886622678 5.791273107207873 3.867453160914854 0 1 0
556 0 1 -1.1794 1.6040662582865226 6.413357469565515 4.483611090925479 0 1 0
190 0 1 -1.1794 4.404781409878601 5.647729118154958 3.918030701107375 1 0 1
356 0 2 0.5897 0.19989405106052605 5.347022424546992 0.7298033213389727 1 0 0
416 0 2 0.5897 3.1896737634717445 8.590883699469078 2.4237098684356804 0 0 0
192 0 2 0.5897 4.391629524482834 4.893976613461644 4.544490253650413 1 1 1
425 0 2 0.5897 5.001020447458056 8.439641171184437 3.635874200447965 0 0 1
426 0 2 0.5897 5.322565911645745 6.992178155906328 4.204273589112002 0 0 1
860 0 2 0.5897 8.021734320578528 6.321518332223347 2.8838924062703257 0 0 1
861 0 2 0.5897 8.37051218691323 6.216113466092422 1.3167990710915163 0 0 1
859 0 1 -1.1794 8.213323627557186 5.702296780761206 2.1370730938550677 0 0 1
358 0 1 -1.1794 5.1737776393106225 5.959952017042379 0.9092997712225214 0 0 1
360 0 2 0.5897 6.064969944000043 6.124918396741199 1.2282487092389236 0 0 1
795 0 2 0.5897 8.783193000373013 8.064241220040326 3.9353015154565165 0 0 1
794 0 2 0.5897 7.3470958458097675 7.822412670150564 4.4460990814693115 0 0 1
424 0 1 -1.1794 5.631450869181736 7.957686245342105 4.219845805223297 0 0 1
8 0 2 0.5897 8.818015837770764 8.284355182686259 1.2930773284975878 1 0 1
7 0 1 -1.1794 8.001497202392352 7.9663359379080925 0.8910734026578242 1 0 1
325 0 1 -1.1794 13.343922254106436 4.437064450008834 2.44675011317922 0 1 0
746 0 2 0.5897 11.124906448054382 4.697330811628414 1.89764235943917 0 1 0
747 0 2 0.5897 9.629230363669745 4.783337482932601 1.7140927101020067 0 1 0
327 0 2 0.5897 13.542437784824028 5.097961434139036 3.1372265654008915 0 1 0
171 0 2 0.5897 12.88828246987303 7.419357294546698 1.4744295602593696 0 0 0
170 0 2 0.5897 12.841782872361147 7.602416786795895 3.02597064941919 0 0 0
169 0 1 -1.1794 12.515287210089294 7.977295887479593 2.1563247719275864 0 0 0
286 0 1 -1.1794 13.236999854883447 6.51418886934895 4.465005978953981 0 0 0
329 0 2 0.5897 17.012647918893936 4.958796756221764 3.3472819585099103 -1 0 0
326 0 2 0.5897 13.761768457142976 4.876361793076197 1.6881503178827617 0 1 0
677 0 2 0.5897 16.34906691037296 7.119045631283961 0.7997264214405828 0 0 1
676 0 1 -1.1794 16.637141482427293 6.388700487788922 0.21665210557306097 0 0 1
651 0 2 0.5897 15.375423755991417 8.38164786178497 2.835824514029349 -1 0 0
649 0 1 -1.1794 15.802988209913671 8.506128451247164 1.9841545466260995 -1 0 0
697 0 1 -1.1794 0.7550858820559759 8.879923927944404 3.0702359774711567 0 0 0
699 0 2 0.5897 0.6472645737301725 9.45620563038472 3.8058427786998075 0 0 0
415 0 1 -1.1794 3.942101161069984 9.212915872814651 2.6248965244037805 0 0 0
417 0 2 0.5897 3.4052750528202993 10.003915409216823 2.870614212085539 0 0 0
749 0 2 0.5897 1.2401492752552636 11.884555358366718 2.54685596137705 0 0 1
727 0 1 -1.1794 2.838831657877259 11.563384902447925 3.35431280625691 0 0 0
748 0 1 -1.1794 0.40075661304696 12.06368004062981 2.0928648295455528 0 0 1
750 0 2 0.5897 0.33754277258615994 11.487999507973683 1.3258390238398767 0 0 0
728 0 2 0.5897 2.7315478827712565 12.002026866015031 4.1621394919314785 0 0 0
729 0 2 0.5897 3.3343029275079346 12.069195131296224 2.7245649576821767 0 0 0
443 0 2 0.5897 5.336314734213015 9.800406913958536 1.4688540775039594 0 0 2
442 0 1 -1.1794 6.209546170243814 9.891714752254746 1.0585208626308695 0 0 2
444 0 2 0.5897 6.764780265125844 9.081246548357981 1.112082509239561 0 0 2
266 0 2 0.5897 6.919555721672772 10.47820773025925 3.1870921453118513 0 -1 0
267 0 2 0.5897 7.717961131652139 11.488942796552621 4.067113076024922 0 -1 0
265 0 1 -1.1794 6.949623673824092 10.916704895102038 4.054504555445536 0 -1 0
486 0 2 0.5897 5.983813283614614 12.676682557232201 4.190793465912956 0 0 0
743 0 2 0.5897 10.654615816632198 8.661668272225961 2.52001806944213 -1 1 0
742 0 1 -1.1794 9.766515797207239 8.97350256236954 2.705036869334718 -1 1 0
188 0 2 0.5897 9.602792046405202 12.276976771806325 2.5638060863918173 0 -1 0
189 0 2 0.5897 11.06397753116597 11.595004716640078 2.634769583076778 0 0 0
187 0 1 -1.1794 10.187637941600183 11.58887546926026 2.2043507536196785 0 0 0
673 0 1 -1.1794 12.953811248358479 10.920527419300218 2.6512820104137798 -1 -1 1
675 0 2 0.5897 13.128660859093491 9.981285451947521 2.5644916953557675 -1 -1 1
744 0 2 0.5897 9.798245087910221 9.91612087338815 2.6103497820754322 -1 1 0
488 0 2 0.5897 10.214198599952105 11.826360778897206 0.2781581087693031 0 1 1
650 0 2 0.5897 16.761441897694144 8.631332911360369 2.1559552667728967 -1 0 0
674 0 2 0.5897 13.842776783098914 11.32935538177332 2.465064225299428 -1 -1 1
11 0 2 0.5897 15.60791737874582 11.029969082547025 4.005246010019147 -1 0 1
10 0 1 -1.1794 15.866248463111265 11.837185110910623 3.559721382436815 -1 0 1
12 0 2 0.5897 16.658877260027122 11.704628185463473 3.0019187458381533 -1 0 1
197 0 2 0.5897 15.2979883504573 9.570758834088496 0.5954456589174641 0 0 0
511 0 1 -1.1794 3.9895861464254065 13.500756508103596 1.8620212699568317 1 0 1
512 0 2 0.5897 4.118449570388807 13.505245104973277 0.8463118879355598 1 0 1
32 0 2 0.5897 2.9910723121921206 14.892604154678597 2.437504850282649 0 0 1
31 0 1 -1.1794 2.322983021744688 15.554300910390007 2.696626044890101 0 0 1
33 0 2 0.5897 1.525060824286351 15.350580155949423 2.191368705649911 0 0 0
802 0 1 -1.1794 0.35825096870486617 14.70291885261825 1.1661444827904233 0 0 1
731 0 2 0.5897 2.8331168206546615 16.455246785969074 0.9744923290877815 0 0 1
804 0 2 0.5897 0.3564197018778263 13.824597708485758 1.5886271780523147 0 0 1
847 0 1 -1.1794 8.612191953358016 13.264741869297838 3.5062526271758916 0 0 0
513 0 2 0.5897 4.9137762299907966 13.737301493640611 2.085723248637814 1 0 1
546 0 2 0.5897 7.073005950146011 14.82979317502261 1.3756712068570391 0 0 0
544 0 1 -1.1794 6.859953085545422 13.966007143960551 1.6825169270294322 0 0 0
545 0 2 0.5897 7.061831220088268 13.302358260324095 0.9521273231734964 0 0 1
848 0 2 0.5897 7.992658743192582 13.80240927523582 2.967023599805425 0 -1 0
532 0 1 -1.1794 7.344147928077005 16.559839686968168 0.6951692440090534 0 0 1
485 0 2 0.5897 5.865348372708424 14.255804793932656 4.333163584243772 0 0 0
849 0 2 0.5897 9.065023160370782 13.847282008239322 4.167058745618899 0 0 0
269 0 2 0.5897 5.742511743459656 16.785164203185573 4.084867785826909 0 -1 1
281 0 2 0.5897 12.779660948312568 14.881662827851011 0.7404769073368564 1 -1 1
220 0 1 -1.1794 10.044134025027414 16.967054284906588 3.63185641020424 -1 0 1
204 0 2 0.5897 10.361160940437777 16.030465548785703 1.765618494521678 0 0 1
203 0 2 0.5897 11.23146152380702 16.29738222386417 0.5031834431481077 0 0 1
282 0 2 0.5897 13.04986923819908 15.739517799950303 1.9722832643585264 1 -1 0
222 0 2 0.5897 10.176437873307894 16.252087265765113 4.258653105095778 -1 0 1
202 0 1 -1.1794 10.65513348212469 15.642120640336493 0.8888788592428492 0 0 1
280 0 1 -1.1794 13.328324967849666 14.903432175346756 1.5484855637395796 1 -1 0
644 0 2 0.5897 13.52937693582075 16.241305428867776 4.2380385971500845 0 0 0
669 0 2 0.5897 14.288825281140886 13.268546604916093 1.0098966748014222 -1 0 0
667 0 1 -1.1794 14.963116276253626 13.157214505061994 0.29037645386687433 -1 0 0
803 0 2 0.5897 17.500311208681737 15.130097082094059 1.5280878971263783 -1 0 1
769 0 1 -1.1794 15.932968730277944 15.89662408783221 1.5978906059750544 0 0 0
771 0 2 0.5897 15.22192404125224 15.256640393385329 1.3469549833903574 0 0 0
770 0 2 0.5897 15.846174866550436 16.629716380053118 0.941406526820584 0 0 0
509 0 2 0.5897 15.910000943972026 16.711931355072913 3.3512743194655146 -1 0 1
207 0 2 0.5897 3.082296371015866 17.41370149127693 2.8840883395322976 0 -1 0
586 0 1 -1.1794 2.0347570285398326 20.44517106370541 2.097914308611858 0 -1 0
206 0 2 0.5897 2.9383498084667714 18.976703058138213 2.7302742997843192 0 -1 0
205 0 1 -1.1794 3.365434515031831 18.280183739436715 3.197561912909977 0 -1 0
587 0 2 0.5897 1.1176936313989563 20.131550870556367 2.2411774261298563 0 -1 0
588 0 2 0.5897 2.1674291035206994 20.54817337238812 1.1078705135301208 0 -1 0
730 0 1 -1.1794 2.824926992704656 17.08694514718634 0.23465738815129358 0 0 1
306 0 2 0.5897 5.071012266788713 18.101605946413343 2.775209021924174 0 -1 0
480 0 2 0.5897 7.677689131291803 21.136795172785803 2.1534728610127174 0 -1 0
533 0 2 0.5897 6.819860535133315 17.158417456587216 1.3057738123297142 0 0 1
478 0 1 -1.1794 6.7255507104597045 20.854264611080715 2.0380624540090158 0 -1 0
305 0 2 0.5897 6.254411939464938 19.063170471423298 2.401685859837452 0 -1 0
304 0 1 -1.1794 6.0521984154766635 18.123153443540147 2.6982980164106243 0 -1 0
441 0 2 0.5897 7.871182695019517 18.685036442054447 4.117136856477907 0 0 1
135 0 2 0.5897 9.014536042290468 17.625184987029336 0.4413325051233553 0 0 0
830 0 2 0.5897 6.236327298460623 20.617195328968627 0.3730061639468087 0 0 1
221 0 2 0.5897 9.605313162066583 17.62499908904274 4.098564182971585 -1 0 1
214 0 1 -1.1794 12.67618081888081 17.546820765285794 2.995742599748059 0 0 0
215 0 2 0.5897 11.697479654283667 17.3834277243824 3.1579643561065494 0 0 0
216 0 2 0.5897 12.740018262733935 18.544606767024256 2.9210453293932472 0 0 0
456 0 2 0.5897 9.709448729717575 21.261198668312733 1.3277651568152244 0 0 0
506 0 2 0.5897 10.927340296213169 20.428986732028932 3.040965230374553 0 0 0
454 0 1 -1.1794 9.613228352176487 20.64249445796954 2.056584533028711 0 -1 0
455 0 2 0.5897 9.531739799117954 19.774160376715017 1.6410090877144035 0 -1 0
505 0 1 -1.1794 11.729307291478813 20.042474408202963 3.4362433643847097 0 0 0
507 0 2 0.5897 12.421934281189156 20.681452535246407 3.3032798012439533 0 0 0
508 0 1 -1.1794 15.71550416465353 17.426236068143552 3.9412529400029714 -1 0 1
663 0 2 0.5897 15.34482015775506 20.494205230744754 3.152568799331194 0 -1 0
661 0 1 -1.1794 14.57830440692892 19.935200726939954 3.403304891702997 0 -1 0
662 0 2 0.5897 14.995196204513777 19.09545226427366 3.250587883570261 0 -1 0
54 0 2 0.5897 16.753807865425358 21.222536627204583 0.3089454861087677 0 -1 0
470 0 2 0.5897 17.262397603313133 18.80065281865678 3.205734466332796 1 -1 0
469 0 1 -1.1794 17.410863630905446 19.507011507132816 2.5645883412679877 1 -1 0
471 0 2 0.5897 16.9742546315866 19.13227165281465 1.790075173811467 1 -1 0
158 0 2 0.5897 3.3014110180861262 3.272242898726313 5.736803559472116 1 1 0
801 0 2 0.5897 0.9768621856490532 3.9176931800821153 5.877967722925211 1 0 0
157 0 1 -1.1794 4.058748272424809 3.7339921925981687 6.1063396700352115 1 1 0
25 0 1 -1.1794 1.813023998532295 2.422246798226649 5.260864131826555 1 1 0
27 0 2 0.5897 1.7502606951771629 1.4736197584681172 5.583152063322672 1 1 0
178 0 1 -1.1794 2.3209536424526265 3.866378319467315 8.23922969620881 0 1 1
179 0 2 0.5897 3.1791698450616623 3.9551156782015897 7.755854491901204 0 1 1
597 0 2 0.5897 1.4342712238481616 2.5053314998154845 8.700717436423279 0 1 0
159 0 2 0.5897 4.754000318576575 3.043173316528314 6.152921873648155 1 0 0
372 0 2 0.5897 7.461341640592658 2.7675336634642123 7.058242028035533 0 0 0
408 0 2 0.5897 5.8359713575379 1.0463906330748869 6.823905681216422 0 1 -1
370 0 1 -1.1794 8.239095810788367 3.2787644425664633 7.31887201013051 0 0 0
406 0 1 -1.1794 6.089763555968521 1.6200545141688933 6.131041974546664 0 1 -1
407 0 2 0.5897 6.83907215046315 1.2477564092895561 5.637304815455788 0 1 -1
371 0 2 0.5897 8.561549547818307 2.868185675451063 8.114191104414726 0 0 0
55 0 1 -1.1794 5.497091454147754 0.6807537447267096 8.471781215222016 0 1 0
334 0 1 -1.1794 8.34245571339632 0.7222354314294227 4.876847310310418 0 1 0
57 0 2 0.5897 6.396454226031042 0.4868210909580328 8.759408864756608 0 1 0
153 0 2 0.5897 13.416350096982836 2.0389171919470197 4.58478557132419 0 1 0
374 0 2 0.5897 10.400706502672893 3.44241686439208 5.318084062934579 0 1 0
375 0 2 0.5897 10.012083460997328 3.649249254301546 6.758700939905545 0 1 0
472 0 1 -1.1794 12.876016285476052 2.1621631206562633 6.463591021092117 0 1 0
473 0 2 0.5897 11.94613914418957 2.44652019598548 6.440053730039897 0 1 0
474 0 2 0.5897 12.836971354796574 1.2365967137223928 6.809647310296633 0 1 0
524 0 2 0.5897 9.671813016957179 0.7347925845987533 6.3204974079207155 0 1 1
373 0 1 -1.1794 10.741320536566604 3.812170243369549 6.1290299013097025 0 1 0
605 0 2 0.5897 13.189949738925135 3.890654718447779 7.526003863003701 0 0 1
604 0 1 -1.1794 13.534399231533813 4.253842785599843 8.312673306778052 0 0 1
672 0 2 0.5897 14.659106925420724 2.467360524218617 6.144544495951953 -1 1 0
671 0 2 0.5897 15.707057296402084 2.529013844281017 5.041406087479693 -1 1 0
670 0 1 -1.1794 15.513008424799018 2.8767012922269397 5.938212089266847 -1 1 0
660 0 2 0.5897 16.087686392713586 1.7581536926972212 7.559365366019618 -1 1 0
658 0 1 -1.1794 16.188580918327368 1.4419161192895347 8.492674184254867 -1 1 0
50 0 2 0.5897 15.706625064141146 4.335564198482088 7.969204456832369 0 0 1
596 0 2 0.5897 18.01880841025972 1.6326961160397928 8.747949694240033 -1 1 0
799 0 1 -1.1794 0.7234005454025991 4.696387787668224 6.467191777732112 1 0 0
800 0 2 0.5897 1.207633845129202 4.429728651784044 7.25534858019963 1 0 0
558 0 2 0.5897 1.4540178043620016 5.994444157051306 5.326507611385826 0 1 0
307 0 1 -1.1794 1.5700958148014024 7.85518808759715 7.538386166126138 0 0 0
308 0 2 0.5897 2.4587790392497975 7.771415135703641 7.05959662450067 0 0 0
835 0 1 -1.1794 3.9660812109190724 8.348121461338048 6.517093904867078 0 0 1
836 0 2 0.5897 4.412075602671859 8.361934560092509 5.651243637547905 0 0 1
309 0 2 0.5897 1.3748472341483036 6.995455851141571 7.798577954981581 0 0 0
793 0 1 -1.1794 8.248524260927907 7.571163596056276 4.567900235805139 0 0 1
141 0 2 0.5897 4.811780273591066 7.071002067380846 8.056379642228809 0 0 0
551 0 2 0.5897 7.4855188089192675 5.227724508839317 6.866948295970005 -1 1 0
550 0 1 -1.1794 7.581382270297106 6.152085264551676 6.795336761950814 -1 1 0
552 0 2 0.5897 7.887747097149333 6.409842191781035 5.898687726570709 -1 1 0
140 0 2 0.5897 6.136767879746513 6.3564406614409865 7.855508202183416 0 0 0
402 0 2 0.5897 8.874769144689926 6.685855459549542 8.210626629509775 0 0 0
139 0 1 -1.1794 5.51732743464054 6.637265818403411 8.554241291461016 0 0 0
5 0 2 0.5897 9.919290153746243 7.001164494468434 5.542144328248792 0 1 0
606 0 2 0.5897 12.770627607175795 4.644762530496867 8.800848680490224 0 0 1
287 0 2 0.5897 12.431901844217883 6.673872614599347 5.011273930488112 0 0 0
6 0 2 0.5897 10.684927155522395 5.624108985666025 5.610913996017874 0 1 0
4 0 1 -1.1794 10.779939693619813 6.587627413231363 5.678919604789229 0 1 0
432 0 2 0.5897 11.411080103520591 7.418004250148793 7.099158799369799 0 0 0
430 0 1 -1.1794 11.961234148105996 7.885262417530631 7.7621227146526 -1 0 0
431 0 2 0.5897 11.385501784258611 8.258534011005771 8.428935786266466 0 0 0
288 0 2 0.5897 14.099425168377467 6.575467459899536 4.937577965270417 0 0 0
657 0 2 0.5897 13.681970714228662 7.2843306584189635 7.891773793141291 -1 0 0
522 0 2 0.5897 15.918175957895226 4.680729797097302 5.392726690703546 0 0 1
51 0 2 0.5897 17.09015754980297 4.781391750458197 7.444929306958861 0 0 1
520 0 1 -1.1794 15.901801438749642 5.461080851697261 4.845462303318956 0 0 1
17 0 2 0.5897 17.559752312511012 8.012523973048033 6.110255592341043 0 0 0
521 0 2 0.5897 16.41340132393012 6.112509532454457 5.340035144385617 0 0 1
655 0 1 -1.1794 14.583642288535179 7.2967790758361835 8.237866745150859 -1 0 0
656 0 2 0.5897 14.84351254245166 6.412514660640835 8.394714688423498 -1 0 0
16 0 1 -1.1794 16.638633202478946 7.72065860937286 5.972153402501181 0 0 0
18 0 2 0.5897 16.323247874697703 7.582389850589165 6.892094274947419 0 0 0
49 0 1 -1.1794 16.426640464349646 4.922441253078182 8.191834352953284 0 0 1
837 0 2 0.5897 3.9327049438648336 9.28776460237033 6.785570831611517 0 0 1
625 0 1 -1.1794 1.5034617164961994 10.727325413058313 7.683250958677213 0 0 0
626 0 2 0.5897 1.5190681900336256 9.784999224359607 7.936058999726016 0 0 0
807 0 2 0.5897 1.17360903703878 10.715102373663619 6.044802440128215 0 0 0
627 0 2 0.5897 2.1693839239256607 11.028382020107365 8.304619921740898 0 0 0
365 0 2 0.5897 3.8992960487790342 11.861347203324097 6.475428410846604 0 0 0
805 0 1 -1.1794 0.6967489123393797 10.592139193281561 5.262695968573155 0 0 0
364 0 1 -1.1794 4.591675399551322 11.173451998254496 6.5187032328535 0 0 0
38 0 2 0.5897 5.746896095039918 10.957255355019313 7.952757874331274 0 0 0
39 0 2 0.5897 6.918744334921177 9.91831935411554 8.063141888342603 0 0 0
366 0 2 0.5897 5.064840944566921 11.164207117672072 5.710363097308178 0 0 0
102 0 2 0.5897 7.776675638219178 9.60563854083832 5.986838057422093 0 0 0
100 0 1 -1.1794 8.235949710305448 9.625114807413272 6.822618768976356 0 0 0
101 0 2 0.5897 8.88080130485694 10.329836487860717 6.672894158633165 0 0 0
37 0 1 -1.1794 6.143435193559543 10.295636851119887 8.569992046103788 0 0 0
846 0 2 0.5897 11.46661318329755 11.155833090965608 6.473211132450896 -1 0 0
720 0 2 0.5897 12.738131470665303 9.55487352358397 7.152838682624417 -1 0 0
718 0 1 -1.1794 13.164078146892773 10.306932967459955 6.663700188014234 -1 0 0
844 0 1 -1.1794 10.785148934794975 11.761586523143832 6.847351793665428 -1 0 0
798 0 2 0.5897 10.827552159503561 11.833509202969001 8.853102774582904 -1 0 0
719 0 2 0.5897 13.34942987972149 10.958094318010348 7.27736412534939 -1 0 0
845 0 2 0.5897 10.93959424563433 12.583859219301418 6.398464425349964 -1 0 0
529 0 1 -1.1794 14.930757314559692 9.394221328484521 4.600504204753011 -1 0 0
530 0 2 0.5897 15.552893516955448 8.917291444241949 5.237016814515786 -1 0 0
806 0 2 0.5897 17.996865045022034 11.310354783806408 5.221413017836019 -1 0 0
531 0 2 0.5897 14.25482431920074 9.751886543316388 5.267467576025963 -1 0 0
250 0 1 -1.1794 14.468293822878675 12.66035410200295 7.8204543232194546 0 0 0
252 0 2 0.5897 15.310099558376626 12.316029499501031 8.16937417944117 0 0 0
612 0 2 0.5897 17.72596873338239 11.416320009422074 8.189531723019563 0 1 0
610 0 1 -1.1794 16.859142382569217 11.508002290670744 8.571592532951898 0 1 0
611 0 2 0.5897 16.62486135368205 10.596871303000226 8.849391119404508 0 1 0
277 0 1 -1.1794 2.653273756789035 12.982681336815356 6.1440694679259344 0 0 0
279 0 2 0.5897 1.6624710395395985 13.17743754210945 6.125698916098602 0 0 0
278 0 2 0.5897 3.0673314353371213 13.779000425179252 5.955297941604911 0 0 0
87 0 2 0.5897 0.38020481240927917 14.861804559785268 6.275945865629089 0 0 0
687 0 2 0.5897 7.346295734982759 13.078210199032089 8.497893539098916 -1 0 0
270 0 2 0.5897 5.553154118665799 16.381037064967323 5.526246606512385 1 -1 1
268 0 1 -1.1794 5.619315111081282 15.987345237124053 4.642212629980466 1 -1 1
484 0 1 -1.1794 5.53493575272671 13.417610619338156 4.6470417588311275 0 0 0
107 0 2 0.5897 6.1398031478255355 13.486136459299654 6.504976645928365 0 0 -1
106 0 1 -1.1794 6.313293982893861 13.93771530070681 7.377323705931415 0 0 -1
108 0 2 0.5897 6.720498957172152 14.848929506392016 7.165361757434622 0 0 0
382 0 1 -1.1794 7.7074100924407 16.390854925968917 8.119120017107594 0 0 0
503 0 2 0.5897 4.644445439810585 16.918094601436145 7.79897601089188 1 0 0
789 0 2 0.5897 9.433610458913803 16.356651530119294 7.389833302911458 0 0 0
232 0 1 -1.1794 10.81807114352545 14.456431461950444 5.023198307920227 0 -1 1
233 0 2 0.5897 11.693011488712962 14.834911837523823 4.873648221520676 0 -1 1
234 0 2 0.5897 10.580515102643728 14.98568454946655 5.8716869504903375 0 -1 1
787 0 1 -1.1794 10.296705120115774 16.391267211505024 6.9013756892261915 0 0 0
643 0 1 -1.1794 13.340435517014628 15.554370987548088 4.9337433291722474 0 0 0
464 0 2 0.5897 15.41746778709877 13.284670800421543 4.637130144401568 0 0 1
251 0 2 0.5897 14.0123223279942 13.002957529636294 8.555452119523467 0 0 0
85 0 1 -1.1794 17.998533716649103 13.936822612945125 6.040947829174131 -1 0 0
333 0 2 0.5897 17.79384723207904 13.744846457488148 8.56730166064401 0 -1 0
465 0 2 0.5897 15.057820033146644 13.426422014510754 6.1548703105641565 0 0 1
645 0 2 0.5897 14.070242859010504 14.950912583020646 4.97346445934136 0 0 0
86 0 2 0.5897 17.063222553047694 13.966202719920153 5.751206782065579 -1 0 0
463 0 1 -1.1794 15.488972132623509 13.85409452852033 5.380579925623224 0 0 1
561 0 2 0.5897 14.071787848046762 16.620838588888496 6.455376171149368 0 0 0
560 0 2 0.5897 14.974782005969105 16.378288818535218 7.637653623283422 0 0 0
379 0 1 -1.1794 18.012020670910605 16.649291098397427 6.426505554502145 0 -1 0
381 0 2 0.5897 17.795382560998753 17.039406899270517 7.259813290518783 0 -1 0
624 0 2 0.5897 1.4550161027147819 20.886923464536054 8.64088257287519 0 0 0
348 0 2 0.5897 2.698534730470311 18.256235269995543 5.051052049848943 0 0 0
504 0 2 0.5897 3.9318867350454108 17.906748166818403 6.897409182125589 1 0 0
346 0 1 -1.1794 2.3668526458028167 18.237915960686436 5.950056880091553 0 0 0
347 0 2 0.5897 2.0076203705785676 19.078962076441222 6.2447599833305185 0 0 0
380 0 2 0.5897 0.9247885641668862 17.151194274117053 6.293394413239752 1 -1 0
623 0 2 0.5897 1.200592191773325 19.394467903732497 8.639553177675234 0 0 0
622 0 1 -1.1794 1.389830037370933 20.121992989088625 8.013827158597161 0 0 0
311 0 2 0.5897 0.5663481076451158 20.784856704542726 6.615329999676222 0 -1 0
310 0 1 -1.1794 0.2679549516251749 20.984012101280065 5.70476388121486 0 -1 0
69 0 2 0.5897 3.7227203194921907 19.04184116039132 8.820035700862965 1 0 0
439 0 1 -1.1794 8.387432615067254 18.906233415673533 4.887297825112523 0 0 1
336 0 2 0.5897 8.360658336190767 20.8398372280804 4.625026448172988 0 0 0
502 0 1 -1.1794 4.810609559147713 17.585180581830386 7.109569617188131 1 0 0
383 0 2 0.5897 7.472537865532347 17.26593279754441 7.719376304627584 0 0 0
440 0 2 0.5897 7.760244340837722 18.987391712173554 5.617791768170405 0 0 1
577 0 1 -1.1794 7.112700354956087 18.899406311151942 7.19083866244669 0 -1 1
579 0 2 0.5897 6.217398299083133 18.73786566766926 7.408193919938632 0 -1 1
578 0 2 0.5897 7.535708799440214 19.538747902621495 7.801593382262269 0 -1 1
42 0 2 0.5897 8.759392440193647 21.090718915925272 8.379090533031066 0 0 0
40 0 1 -1.1794 8.00163819311377 20.68450351223276 8.869965125344326 1 0 0
523 0 1 -1.1794 10.06273996601187 21.26014242672018 7.076118375457033 0 0 1
123 0 2 0.5897 13.191955484797619 20.367475260276755 8.341640070565333 0 -1 0
121 0 1 -1.1794 13.157918705244297 20.49538969640942 7.377864923719307 0 -1 0
525 0 2 0.5897 10.569690437066463 20.52555412948778 6.752557950849398 0 0 1
788 0 2 0.5897 10.480441172864513 17.293777015276824 6.6106688663282185 0 0 0
93 0 2 0.5897 12.09183321380652 19.33066511456969 6.560244361246661 -1 0 0
91 0 1 -1.1794 11.337943294069039 18.884347403711423 6.166892574339553 -1 0 0
92 0 2 0.5897 11.383172266032325 19.260941555345347 5.265713489080446 -1 0 0
458 0 2 0.5897 10.847617612266069 17.655720551370358 8.835133506296993 0 0 0
122 0 2 0.5897 14.094622252038365 20.52773129622637 7.1214438280825165 0 -1 0
312 0 2 0.5897 17.20542205112077 20.789419776806398 5.809168451096936 -1 -1 0
510 0 2 0.5897 15.873770928246673 17.139651708591167 4.826492139135225 -1 -1 1
559 0 1 -1.1794 14.736685073485173 17.063200007597572 7.04256285196261 0 0 0
792 0 2 0.5897 15.157135075831045 19.90978633549618 5.35633944531821 1 0 0
790 0 1 -1.1794 15.49465595423421 20.1907742958304 6.208523766610631 1 0 0
791 0 2 0.5897 15.877030996109168 19.33430325304358 6.5285126731456495 1 0 0
756 0 2 0.5897 14.02437303034489 18.090791993437776 8.547202589045181 0 0 0
595 0 1 -1.1794 1.0191123395710404 1.7143240557295056 9.057653447564986 0 1 0
640 0 1 -1.1794 2.094198025926377 1.5619499228894413 11.44954196824022 0 1 0
641 0 2 0.5897 1.4886596156580147 1.6279754129304318 10.655802836124488 0 1 0
642 0 2 0.5897 1.9614230234163728 0.6318309559959083 11.776470549885968 0 1 0
741 0 2 0.5897 3.751629011449587 1.98673131189137 10.96562093342292 1 1 0
80 0 2 0.5897 1.9719472611867552 3.2189338933414007 12.787907501026288 0 0 0
79 0 1 -1.1794 2.1235013625956096 4.193223212245588 12.885749360612756 0 0 0
739 0 1 -1.1794 4.616013402359655 2.2601526569532595 10.600624100134775 1 1 0
180 0 2 0.5897 2.4372178272847407 4.291664639928796 9.134675636631547 0 1 1
56 0 2 0.5897 5.213477328789404 1.3486542054252002 9.11579255837326 0 1 0
740 0 2 0.5897 5.297617660498782 1.9326659011283436 11.231434166531654 1 1 0
90 0 2 0.5897 7.405084783360165 1.6514995078745873 11.697720423009386 1 0 0
88 0 1 -1.1794 6.626953139633946 1.3057227994873486 12.12548220211446 1 0 0
35 0 2 0.5897 8.841733844790067 4.322875894958792 12.217777393679414 0 0 0
494 0 2 0.5897 5.8670501899274194 3.8380759189995595 10.013011816345475 -1 1 1
89 0 2 0.5897 6.641747670813312 1.6696159604334488 13.033376688041425 1 0 0
256 0 1 -1.1794 8.96716407464096 2.221584100799842 11.555545363555874 0 1 1
290 0 2 0.5897 11.078011294669885 1.7254678583115732 9.430475761006509 0 0 0
289 0 1 -1.1794 10.312522351597492 2.3273715192013045 9.387768395977814 0 0 0
291 0 2 0.5897 10.670204397420404 3.1862972258738935 9.496189854823111 0 1 0
257 0 2 0.5897 9.536229032388523 2.080564021886273 10.78476700613432 0 1 1
258 0 2 0.5897 9.28067681902731 1.5391344392154929 12.099313933518609 0 1 1
340 0 1 -1.1794 12.889348266395881 0.43985981722856377 9.811809462222401 0 0 0
342 0 2 0.5897 13.693989832851873 0.9120570863742576 10.06054010504202 0 0 0
659 0 2 0.5897 15.753509119478235 2.1123182515375056 9.08082903666211 -1 1 0
43 0 1 -1.1794 14.618343150158486 2.744992988447485 10.396993097476548 -1 1 0
45 0 2 0.5897 14.756052963389974 2.8864051685478294 11.32083836001384 0 1 0
44 0 2 0.5897 14.103136662919427 3.470810160947462 10.03995142780202 -1 1 0
293 0 2 0.5897 16.539173822489126 4.089756266459271 13.211407499965297 -1 0 0
74 0 2 0.5897 2.711222839234033 5.118273963386653 11.506675887338453 1 1 0
73 0 1 -1.1794 2.670127083868837 5.492017510364925 10.570986847526987 1 1 0
75 0 2 0.5897 3.2898977125906397 6.263259453303602 10.68831829705127 1 1 0
468 0 2 0.5897 0.9604246326271217 6.107624643002635 10.166052638149282 0 0 0
199 0 1 -1.1794 3.8777619059376964 7.834145167005699 11.474000543390455 0 0 0
665 0 2 0.5897 2.892521143060367 7.753886512003915 12.996826866767924 1 1 0
71 0 2 0.5897 4.001982189378046 4.545827637300685 13.02516390643393 1 0 0
34 0 1 -1.1794 8.604230874913817 5.228158296816165 12.026778771962798 0 0 0
493 0 1 -1.1794 6.068895069520789 4.70318596174239 10.381216679208471 -1 1 1
495 0 2 0.5897 5.744482485247862 5.306385013645866 9.731177713749535 -1 1 0
201 0 2 0.5897 4.720623041196254 7.534061182872214 11.834998631578005 0 0 0
36 0 2 0.5897 7.686212235955629 5.248971423069134 11.793436894255496 0 0 0
146 0 2 0.5897 7.718165651968006 7.285395643194844 10.49080256717381 0 0 0
145 0 1 -1.1794 6.912977635165954 7.794340608134833 10.596576265362991 0 0 0
72 0 2 0.5897 5.407208732663186 4.598781626842194 12.197033089645721 1 0 0
147 0 2 0.5897 6.357195564411576 7.631143966376476 9.823181505610641 0 0 0