LAMMPS (29 Sep 2021 - Update 2)
  using 1 OpenMP thread(s) per MPI task
plugin load libdeepmd_lmp.so
Loading plugin: deepmd pair style v2.0 by Han Wang
Loading plugin: compute deeptensor/atom v2.0 by Han Wang
Loading plugin: fix dplr v2.0 by Han Wang
echo both

include		in.partitions
variable        pid world 0
include		in.temp
variable        temperature equal 250
variable        tempDamp equal 0.100
include		in.pressure
variable        pressure equal 986.923
variable        pressureDamp equal 1.0 # This is 1 ps
include		in.seed
variable        seed world 745823

units           metal
atom_style	full
include		in.box
read_data       water.data
Reading data file ...
  orthogonal box = (0.0000000 0.0000000 0.0000000) to (18.207573 21.446115 22.213196)
  1 by 1 by 1 MPI processor grid
  reading atoms ...
  864 atoms
  reading velocities ...
  864 velocities
Finding 1-2 1-3 1-4 neighbors ...
  special bond factors lj:    0        0        0       
  special bond factors coul:  0        0        0       
     0 = max # of 1-2 neighbors
     0 = max # of 1-3 neighbors
     0 = max # of 1-4 neighbors
     1 = max # of special neighbors
  special bonds CPU = 0.000 seconds
  read_data CPU = 0.581 seconds
include 	in.setup
variable	out_freq equal 500
variable	out_freq2 equal 500

timestep        0.0005

neigh_modify    delay 7 every 1

include         in.deepmd
# This is deepMD model

# create groups ###
#group ox type 2
#group hy type 1

mass 2 15.999
mass 1 1.008

pair_style      deepmd ../graph.pb
pair_coeff      * *

bond_style      none
angle_style     none
dihedral_style  none
improper_style  none
neigh_modify exclude none


neighbor        2.0 bin
neigh_modify    every 10 delay 0 check no

thermo          ${out_freq}
thermo          500
thermo_style 	custom step temp pe etotal epair emol press lx ly lz xy xz yz vol pxx pyy pzz pxy pxz pyz cella cellb cellc cellalpha cellbeta cellgamma


restart 	${out_freq} restart.lmp.${pid} restart2.lmp.${pid}
restart 	500 restart.lmp.${pid} restart2.lmp.${pid}
restart 	500 restart.lmp.0 restart2.lmp.${pid}
restart 	500 restart.lmp.0 restart2.lmp.0


include         in.dump
dump            myDump all atom ${out_freq2} dump.water.${pid}
dump            myDump all atom 500 dump.water.${pid}
dump            myDump all atom 500 dump.water.0
dump            myDump2 all dcd ${out_freq2} dump.dcd
dump            myDump2 all dcd 500 dump.dcd
dump_modify     myDump append yes
dump_modify     myDump2 append yes


timer           timeout 23:50:00 every 1000
New timer settings: style=normal  mode=nosync  timeout=23:50:00

fix             2 all nph iso ${pressure} ${pressure} ${pressureDamp}
fix             2 all nph iso 986.923 ${pressure} ${pressureDamp}
fix             2 all nph iso 986.923 986.923 ${pressureDamp}
fix             2 all nph iso 986.923 986.923 1
fix             3 all temp/csvr ${temperature} ${temperature} ${tempDamp} ${seed}
fix             3 all temp/csvr 250 ${temperature} ${tempDamp} ${seed}
fix             3 all temp/csvr 250 250 ${tempDamp} ${seed}
fix             3 all temp/csvr 250 250 0.1 ${seed}
fix             3 all temp/csvr 250 250 0.1 745823
velocity 	all create ${temperature} ${seed} dist gaussian
velocity 	all create 250 ${seed} dist gaussian
velocity 	all create 250 745823 dist gaussian

run             2000000

CITE-CITE-CITE-CITE-CITE-CITE-CITE-CITE-CITE-CITE-CITE-CITE-CITE

Your simulation uses code contributions which should be cited:

- USER-DEEPMD package:

@article{Wang_ComputPhysCommun_2018_v228_p178,
  author = {Wang, Han and Zhang, Linfeng and Han, Jiequn and E, Weinan},
  doi = {10.1016/j.cpc.2018.03.016},
  url = {https://doi.org/10.1016/j.cpc.2018.03.016},
  year = 2018,
  month = {jul},
  publisher = {Elsevier {BV}},
  volume = 228,
  journal = {Comput. Phys. Commun.},
  title = {{DeePMD-kit: A deep learning package for many-body potential energy representation and molecular dynamics}},
  pages = {178--184}
}

CITE-CITE-CITE-CITE-CITE-CITE-CITE-CITE-CITE-CITE-CITE-CITE-CITE

Neighbor list info ...
  update every 10 steps, delay 0 steps, check no
  max neighbors/atom: 2000, page size: 100000
  master list distance cutoff = 8
  ghost atom cutoff = 8
  binsize = 4, bins = 5 6 6
  1 neighbor lists, perpetual/occasional/extra = 1 0 0
  (1) pair deepmd, perpetual
      attributes: full, newton on
      pair build: full/bin
      stencil: full/bin/3d
      bin: standard
Per MPI rank memory allocation (min/avg/max) = 7.215 | 7.215 | 7.215 Mbytes
Step Temp PotEng TotEng E_pair E_mol Press Lx Ly Lz Xy Xz Yz Volume Pxx Pyy Pzz Pxy Pxz Pyz Cella Cellb Cellc CellAlpha CellBeta CellGamma 
       0          250    -134.9383   -107.05043    -134.9383            0    24425.263    18.207573    21.446115    22.213196            0            0            0    8673.8466    24307.224    25178.205    23790.359    1108.6926   -267.67561   -867.59355    18.207573    21.446115    22.213196           90           90           90 
     500    247.71206   -129.72222   -102.08956   -129.72222            0   -1649.8331    18.264552    21.513229     22.28271            0            0            0    8755.5339    1028.7295   -3920.2169   -2058.0119    1433.7185   -1199.3716   -749.24965    18.264552    21.513229     22.28271           90           90           90 
    1000    251.43524   -127.92392   -99.875938   -127.92392            0    3019.1098     18.25845    21.506042    22.275266            0            0            0    8746.7617     2149.747    3514.4889    3393.0936   -1324.4046    1231.3335   -1364.8653     18.25845    21.506042    22.275266           90           90           90 
    1500    240.17426   -128.70181   -101.91001   -128.70181            0    1711.6193    18.214126    21.453834    22.221191            0            0            0    8683.2155    2497.2763   -707.33485    3344.9164    128.91561   -461.77614   -1747.2461    18.214126    21.453834    22.221191           90           90           90 
    2000    245.34727   -126.97708   -99.608221   -126.97708            0   -1600.9576    18.191363    21.427022     22.19342            0            0            0     8650.701   -1606.7459   -32.812916   -3163.3139     954.8529    1642.6839   -506.91029    18.191363    21.427022     22.19342           90           90           90 
    2500    251.97994   -126.90988   -98.801142   -126.90988            0    2579.3569    18.148799    21.376887    22.141491            0            0            0    8590.1196    1628.3523    2787.6035     3322.115     1415.436   -827.34517   -2807.4235    18.148799    21.376887    22.141491           90           90           90 
    3000    255.68303   -128.09581   -99.573985   -128.09581            0    -2909.807    18.232888    21.475932     22.24408            0            0            0    8710.0757   -1405.8404   -1392.0115   -5931.5691   -26.312032     481.0217   -2100.2111    18.232888    21.475932     22.24408           90           90           90 
    3500    249.07448   -128.68707   -100.90244   -128.68707            0    1936.2507    18.183538    21.417805    22.183874            0            0            0    8639.5424    -2789.945    3007.4644    5591.2326    1621.7738    3097.5099    673.45115    18.183538    21.417805    22.183874           90           90           90 
    4000    248.86141   -128.74829   -100.98743   -128.74829            0    3757.3318    18.108166    21.329027     22.09192            0            0            0    8532.5524    3729.0631    3574.4391    3968.4932    1657.9923    3131.5873   -2666.4223    18.108166    21.329027     22.09192           90           90           90 
    4500    248.18638   -128.46699   -100.78142   -128.46699            0   -1475.7991    18.097021      21.3159    22.078323            0            0            0     8516.808   -807.47477   -1868.3858   -1751.5367    204.69401   -865.99327   -1212.5532    18.097021      21.3159    22.078323           90           90           90 
    5000    253.46214   -128.73344   -100.45936   -128.73344            0    1143.2934    18.082196    21.298438    22.060237            0            0            0    8495.8942   -1485.8207    1583.9675    3331.7335   -282.11145   -466.12012   -884.09681    18.082196    21.298438    22.060237           90           90           90 
    5500    234.51378   -127.71846    -101.5581   -127.71846            0   -1850.1038    18.136545    21.362453    22.126542            0            0            0    8572.7317   -2080.4772   -1005.8527   -2463.9816   -1576.2525    137.19609     1710.784    18.136545    21.362453    22.126542           90           90           90 
    6000    248.46069   -128.27203   -100.55587   -128.27203            0    2435.4288    17.968747    21.164809    21.921829            0            0            0    8336.9834    957.47135     2176.793     4172.022     3089.912    2490.0039   -522.25153    17.968747    21.164809    21.921829           90           90           90 
    6500    243.08358   -128.25584    -101.1395   -128.25584            0    797.47469    18.001612     21.20352    21.961924            0            0            0    8382.8128    874.49911   -379.56889    1897.4938    314.11779    886.90072    1165.5037    18.001612     21.20352    21.961924           90           90           90 
    7000    244.93201   -126.25021   -98.927672   -126.25021            0    924.78109     18.02185    21.227358    21.986615            0            0            0    8411.1176   -943.35373    3530.6802    187.01678   -746.56018    831.99046    307.86176     18.02185    21.227358    21.986615           90           90           90 
    7500    245.33987   -126.84246   -99.474431   -126.84246            0    1753.5618    17.980937    21.179168      21.9367            0            0            0    8353.9622    1146.2746    2213.1138     1901.297    140.73499    346.91059    -964.0588    17.980937    21.179168      21.9367           90           90           90 
    8000    252.15504    -127.5405   -99.412224    -127.5405            0    1694.2909    17.965195    21.160625    21.917495            0            0            0    8332.0399    691.46894    1636.8455    2754.5582   -465.30098    1791.6448   -3875.1102    17.965195    21.160625    21.917495           90           90           90 
    8500     247.7782   -127.90017   -100.26014   -127.90017            0   -711.19027    17.951251    21.144202    21.900484            0            0            0    8312.6548   -378.50583   -2805.5105    1050.4455    1267.5294   -457.95127   -2310.3177    17.951251    21.144202    21.900484           90           90           90 
    9000    260.37771   -127.78357   -98.738042   -127.78357            0    2467.6235    17.922325    21.110131    21.865195            0            0            0    8272.5354     2658.805    2975.2339    1768.8316    1684.6633    196.22347    1299.5118    17.922325    21.110131    21.865195           90           90           90 
    9500    251.55713   -126.77817    -98.71659   -126.77817            0    1525.6569    17.867012    21.044979    21.797712            0            0            0    8196.1773   -1552.5068    3515.0998    2614.3775    315.18592    1374.9604    2232.5425    17.867012    21.044979    21.797712           90           90           90 
   10000    262.11123   -127.69063   -98.451729   -127.69063            0    1351.7154    18.027363    21.233852    21.993341            0            0            0    8418.8388    644.35009   -658.55359    4069.3498    1173.9577    2591.9538   -2535.3672    18.027363    21.233852    21.993341           90           90           90 
   10500    259.25695   -125.52345   -96.602949   -125.52345            0    222.82306    17.962759    21.157756    21.914523            0            0            0    8328.6512   -907.24707   -1883.3321    3459.0484    1059.0754   -870.96045    789.86671    17.962759    21.157756    21.914523           90           90           90 
   11000    260.55955   -128.38047   -99.314663   -128.38047            0    1997.7375    17.934039    21.123928    21.879485            0            0            0     8288.766    1486.4591    1309.3307    3197.4226    -2071.467    2476.3221    -437.3953    17.934039    21.123928    21.879485           90           90           90 
   11500    255.78229   -128.21187   -99.678969   -128.21187            0    925.01228    18.046462    21.256348    22.016641            0            0            0    8445.6251    1053.0721    -76.18371    1798.1485    627.57674    1111.4566   -1028.4523    18.046462    21.256348    22.016641           90           90           90 
   12000    259.28376   -127.04042   -98.116926   -127.04042            0   -309.58866    18.017466    21.222194    21.981266            0            0            0    8404.9802     263.9943   -270.56838    -922.1919   -870.22269    703.84388   -812.74178    18.017466    21.222194    21.981266           90           90           90 
   12500    260.26289   -127.18542   -98.152706   -127.18542            0    3544.2786    17.905188    21.089946    21.844287            0            0            0    8248.8278    797.72986    6543.8772    3291.2287    87.230511   -728.53607   -1056.3285    17.905188    21.089946    21.844287           90           90           90 
   13000    257.76343    -126.3929   -97.639005    -126.3929            0    1320.7028      17.9871    21.186426    21.944219            0            0            0    8362.5548    208.28637     3117.807    636.01499   -1686.8448   -1324.2851     2542.388      17.9871    21.186426    21.944219           90           90           90 
   13500    243.27765   -126.45314   -99.315157   -126.45314            0   -925.76782    18.107536    21.328285    22.091151            0            0            0    8531.6623   -1740.0189    728.34454   -1765.6291   -480.25032    113.39128      1303.46    18.107536    21.328285    22.091151           90           90           90 
   14000    248.20744   -128.12583   -100.43791   -128.12583            0    1628.5312    17.887131    21.068676    21.822257            0            0            0    8223.8959    3553.2203   -1060.0206    2392.3939   -1220.1877    262.33113    3978.4077    17.887131    21.068676    21.822257           90           90           90 
   14500    247.50156   -129.09512   -101.48595   -129.09512            0    1313.7389    17.975427    21.172678    21.929979            0            0            0    8346.2853    1520.4571    2964.6616   -543.90207    325.82531   -326.01492   -92.395235    17.975427    21.172678    21.929979           90           90           90 
   15000    254.39344   -128.36048   -99.982506   -128.36048            0    1654.1176     18.02361    21.229431    21.988762            0            0            0    8413.5821    2446.7559    1213.1755    1302.4213    822.25868    1760.3182   -1028.2876     18.02361    21.229431    21.988762           90           90           90 
   15500    256.00851   -128.28786    -99.72972   -128.28786            0   -2365.1448    18.021275     21.22668    21.985912            0            0            0    8410.3113   -1727.0057   -3622.8207   -1745.6081   -2547.6461   -1483.8052   -7.3638351    18.021275     21.22668    21.985912           90           90           90 
   16000    253.21008   -128.56164   -100.31567   -128.56164            0    2359.5662    17.962875    21.157893    21.914665            0            0            0    8328.8132    2938.1938    453.77087    3686.7339    1126.5889   -271.67053   -595.84938    17.962875    21.157893    21.914665           90           90           90 
   16500    245.53584   -127.79015   -100.40026   -127.79015            0   -1157.9694    18.028271    21.234921    21.994448            0            0            0    8420.1102    943.75954   -2045.5107    -2372.157   -1741.4721   -94.896928   -632.09176    18.028271    21.234921    21.994448           90           90           90 
   17000    254.53766   -128.56368   -100.16962   -128.56368            0    2412.1718    18.066122    21.279504    22.040626            0            0            0    8473.2565    3584.5843   -299.54414    3951.4751    -323.4277   -2399.9694    557.37923    18.066122    21.279504    22.040626           90           90           90 
   17500    245.87212   -127.38346   -99.956057   -127.38346            0    518.29985    18.054216    21.265481    22.026101            0            0            0    8456.5162    168.45742    1477.2693   -90.827141   -234.51303   -172.56096   -758.23863    18.054216    21.265481    22.026101           90           90           90 
   18000    241.58575   -128.52538   -101.57613   -128.52538            0    2387.3148     18.00429    21.206675    21.965192            0            0            0    8386.5548    2090.6048    3390.3898    1680.9496   -1418.3767    244.91346    1180.6441     18.00429    21.206675    21.965192           90           90           90 
   18500    254.07398   -128.53397   -100.19164   -128.53397            0    2821.1722    18.054689    21.266037    22.026677            0            0            0      8457.18    3061.2696    2947.2518    2454.9953    2832.2803    577.99982   -1962.0804    18.054689    21.266037    22.026677           90           90           90 
   19000    250.99258   -128.40925   -100.41065   -128.40925            0   -327.74755    18.074207    21.289027    22.050489            0            0            0    8484.6376   -1777.3963    263.89736    530.25632   -2578.4901    -1703.191    1577.7515    18.074207    21.289027    22.050489           90           90           90 
   19500    258.80292   -128.32305   -99.453193   -128.32305            0    654.99114    17.936807    21.127188    21.882862            0            0            0    8292.6041    1824.6971    1306.5802   -1166.3039   -636.14347    532.03922    922.80548    17.936807    21.127188    21.882862           90           90           90 
   20000    248.58351   -128.20567   -100.47581   -128.20567            0    3144.8129     17.95915    21.153505     21.91012            0            0            0    8323.6318    4066.4518     4127.649    1240.3379    151.02938    -1282.999    313.36222     17.95915    21.153505     21.91012           90           90           90 
   20500    248.86036   -128.33434   -100.57359   -128.33434            0    1652.8016    18.035027    21.242878     22.00269            0            0            0      8429.58      1768.75    3438.5999   -248.94526    3417.2518   -828.71964    500.56841    18.035027    21.242878     22.00269           90           90           90 
   21000    246.15343   -128.98981   -101.53102   -128.98981            0    369.65478    18.035169    21.243045    22.002863            0            0            0    8429.7787    2150.0548    1227.3594   -2268.4499    287.90811    358.08676    1407.2879    18.035169    21.243045    22.002863           90           90           90 
   21500     244.3928   -129.09148   -101.82909   -129.09148            0    309.19131    17.921562    21.109232    21.864263            0            0            0    8271.4783     1712.594    944.08053   -1729.1006    162.10891    1121.9353    501.72672    17.921562    21.109232    21.864263           90           90           90 
   22000     252.3731   -128.60602   -100.45342   -128.60602            0     139.4061     17.99754    21.198724    21.956956            0            0            0    8377.1247   -1136.1944    962.53686    591.87585    1618.4816   -2025.4501   -681.53273     17.99754    21.198724    21.956956           90           90           90 
   22500    243.50082   -128.21729   -101.05441   -128.21729            0     911.9072    18.055228    21.266672    22.027335            0            0            0    8457.9373     732.0287   -1348.1912    3351.8841    404.34519    72.768808    1738.7978    18.055228    21.266672    22.027335           90           90           90 
   23000     242.1781   -128.25546   -101.24013   -128.25546            0    517.84593    17.991972    21.192166    21.950163            0            0            0    8369.3526    202.17126    2549.2826   -1197.9161   -1627.4652    15.138979    168.44151    17.991972    21.192166    21.950163           90           90           90 
   23500    265.42232   -129.08746   -99.479196   -129.08746            0    1448.4113     17.95171    21.144742    21.901043            0            0            0    8313.2913    4882.2651    1028.2395   -1565.2708   -477.63998    94.504704    291.66004     17.95171    21.144742    21.901043           90           90           90 
   24000    257.39981   -127.07856   -98.365222   -127.07856            0    1726.5066    17.966953    21.162696     21.91964            0            0            0    8334.4866     1399.134    2395.8232    1384.5627   -430.43398   -531.67076   -634.19961    17.966953    21.162696     21.91964           90           90           90 
   24500    245.52106    -127.0243   -99.636061    -127.0243            0    491.14715    18.019075    21.224089    21.983228            0            0            0    8407.2316   -698.74296    2819.1386   -646.95417    1037.6194     668.3712   -1462.6699    18.019075    21.224089    21.983228           90           90           90 
   25000    264.04584   -128.07293    -98.61822   -128.07293            0     1502.105    18.021985    21.227517    21.986779            0            0            0    8411.3058    602.42378    4525.6183   -621.72706     1120.653    1687.4963   -615.94264    18.021985    21.227517    21.986779           90           90           90 
   25500    251.23244   -126.61861   -98.593254   -126.61861            0    112.04737    17.983568    21.182267     21.93991            0            0            0    8357.6301    372.48601   -16.932878   -19.411017    872.71315    2411.2796   -1776.9498    17.983568    21.182267     21.93991           90           90           90 
   26000    260.54659   -127.77351   -98.709142   -127.77351            0    2544.8758    17.903285    21.087704    21.841965            0            0            0    8246.1975    581.59216    3881.0899    3171.9454    1940.6588   -787.65494   -186.53932    17.903285    21.087704    21.841965           90           90           90 
   26500    249.54956   -128.06414   -100.22652   -128.06414            0    1985.5808    17.926146    21.114632    21.869856            0            0            0    8277.8277    903.81551     3075.748    1977.1789     155.8977    1744.3486   -853.15505    17.926146    21.114632    21.869856           90           90           90 
   27000    252.04254   -127.05131   -98.935581   -127.05131            0    2449.2932    18.009019    21.212245    21.970961            0            0            0     8393.165    4675.2756    1310.2816    1362.3222    1065.9868    1039.5819   -517.33351    18.009019    21.212245    21.970961           90           90           90 
   27500    261.17217   -128.78956   -99.655411   -128.78956            0   -1179.1123    17.915603    21.102213    21.856994            0            0            0    8263.2307   -172.64138   -2617.2337   -747.46177    -1329.944   -1070.4425    1886.4597    17.915603    21.102213    21.856994           90           90           90 
   28000     241.9264   -128.24344   -101.25619   -128.24344            0   -499.84633     17.86934    21.047721    21.800552            0            0            0    8199.3812   -2337.2085    2417.6994   -1580.0299   -27.952056   -796.25169   -1980.1545     17.86934    21.047721    21.800552           90           90           90 
   28500    243.51803    -126.5947     -99.4299    -126.5947            0   -364.25047    17.893985     21.07675     21.83062            0            0            0     8233.354    239.48568   -1029.4241   -302.81298   -981.51682   -594.35269    274.49066    17.893985     21.07675     21.83062           90           90           90 
   29000    243.29146   -127.68482   -100.54529   -127.68482            0    244.20119    17.906034    21.090942    21.845319            0            0            0    8249.9963   -1475.1234   -1820.3564    4028.0834   -183.70658    125.73897   -1253.4315    17.906034    21.090942    21.845319           90           90           90 
   29500    253.16574   -127.12536   -98.884341   -127.12536            0    414.24531    17.951106    21.144031    21.900307            0            0            0    8312.4533    884.40748    526.39414   -168.06569   -1335.1688   -1600.4699   -1387.6682    17.951106    21.144031    21.900307           90           90           90 
   30000    268.14249   -127.21599   -97.304292   -127.21599            0    4592.8653    17.864903    21.042495    21.795139            0            0            0     8193.275    1616.6618    7383.4017    4778.5324   -855.00329   -363.86852      1317.29    17.864903    21.042495    21.795139           90           90           90 
   30500    249.16876    -126.3576   -98.562445    -126.3576            0    886.12261    17.914174     21.10053     21.85525            0            0            0    8261.2532    2315.3625   -732.58155    1075.5869   -25.741192    354.39957    725.77711    17.914174     21.10053     21.85525           90           90           90 
   31000    250.77691   -126.83745    -98.86291   -126.83745            0    2057.6484    17.869106    21.047445    21.800267            0            0            0     8199.059     3231.235    495.22349    2446.4868   -907.49427     929.9807   -1573.2358    17.869106    21.047445    21.800267           90           90           90 
   31500    251.42328   -127.81066   -99.764014   -127.81066            0    1708.7475    18.026421    21.232742    21.992191            0            0            0    8417.5184    1728.9512    2281.1862    1116.1053   -1301.7263    1505.6388    476.79248    18.026421    21.232742    21.992191           90           90           90 
   32000    257.41886   -128.24668   -99.531214   -128.24668            0    1170.1533    17.935593    21.125759    21.881381            0            0            0    8290.9215    1142.3779      718.055    1650.0269   -1743.0947    343.55459   -1034.9224    17.935593    21.125759    21.881381           90           90           90 
   32500    255.03027   -128.61539   -100.16638   -128.61539            0    2033.4431    17.808629    20.976212    21.726486            0            0            0    8116.0937    2027.4327    3503.9029    568.99357    1204.0304    1927.4439   -1468.0995    17.808629    20.976212    21.726486           90           90           90 
   33000     253.1703   -128.54073   -100.29921   -128.54073            0    2473.0583    17.927576    21.116316    21.871601            0            0            0    8279.8088    4170.1062    3506.2062    -257.1374    60.468443    419.36493   -1493.9663    17.927576    21.116316    21.871601           90           90           90 
   33500    255.82051    -129.0636   -100.52644    -129.0636            0    1044.8121    17.949182    21.141765     21.89796            0            0            0    8309.7808   -1846.9075    5265.4279   -284.08404    -2018.687   -2040.8133   -3067.2859    17.949182    21.141765     21.89796           90           90           90 
   34000    241.20244   -129.73559    -102.8291   -129.73559            0    3549.1495    17.872033    21.050894    21.803839            0            0            0    8203.0898    3232.8591    2123.6978    5290.8916   -423.56415   -436.78202    413.10662    17.872033    21.050894    21.803839           90           90           90 
   34500     237.4246   -130.01047   -103.52539   -130.01047            0    2200.0426    17.872273    21.051176    21.804131            0            0            0    8203.4199    3751.1243    3191.6602   -342.65655   -767.53325    -498.8822     525.9422    17.872273    21.051176    21.804131           90           90           90 
   35000    246.71367   -132.01843   -104.49715   -132.01843            0    2150.0507    17.869493    21.047901    21.800739            0            0            0    8199.5916     1794.927    986.83562    3668.3896    2079.1822   -627.84342    1016.6091    17.869493    21.047901    21.800739           90           90           90 
   35500    239.74045    -130.4713   -103.72789    -130.4713            0    460.71243    17.866289    21.044128    21.796831            0            0            0    8195.1828   -1874.1082     679.8563    2576.3892    360.33324   -368.60497    1706.0844    17.866289    21.044128    21.796831           90           90           90 
   36000    242.98389   -129.88821   -102.78299   -129.88821            0   -1382.4423    17.938403    21.129068    21.884809            0            0            0    8294.8187    -44.44778   -3882.9311    -219.9481   -517.30912    -728.7631   -402.36464    17.938403    21.129068    21.884809           90           90           90 
   36500    255.18893   -130.33976   -101.87305   -130.33976            0    1690.1103    17.915682    21.102306     21.85709            0            0            0    8263.3398    1766.1113    35.745946    3268.4736   -100.34199    1402.2101   -2428.5061    17.915682    21.102306     21.85709           90           90           90 
   37000     249.8395   -129.88645   -102.01648   -129.88645            0   -1571.9284    17.932428    21.122031     21.87752            0            0            0    8286.5331   -1662.6271   -669.77203   -2383.3861   -424.18259   -722.42282    527.26169    17.932428    21.122031     21.87752           90           90           90 
   37500    244.98868   -129.62872   -102.29987   -129.62872            0    330.69376    17.854531    21.030278    21.782486            0            0            0    8179.0129    2723.5203    -63.86316   -1667.5759   -1387.9418   -1814.7911     -257.597    17.854531    21.030278    21.782486           90           90           90 
   38000     248.1043   -129.00223   -101.32583   -129.00223            0    397.58563    17.917604     21.10457    21.859435            0            0            0    8265.9993    -1047.023    812.31193     1427.468   -521.49913   -663.83558   -1193.4548    17.917604     21.10457    21.859435           90           90           90 
   38500    249.67282   -129.08333   -101.23195   -129.08333            0   -416.40657    18.017476    21.222206    21.981278            0            0            0    8404.9939   -1575.6896      1307.13   -980.66009     2294.586    1370.5546   -146.51308    18.017476    21.222206    21.981278           90           90           90 
   39000     249.7996   -130.34039   -102.47487   -130.34039            0    3722.9264    17.901892    21.086063    21.840266            0            0            0    8244.2729    2403.2274    2460.9997     6304.552    1053.0054     687.1704    395.40515    17.901892    21.086063    21.840266           90           90           90 
   39500    253.55848   -129.76285   -101.47802   -129.76285            0    -54.93179    17.868175    21.046349    21.799132            0            0            0    8197.7783    1649.3094    1805.2799   -3619.3847    2474.0962     473.1866    2252.9251    17.868175    21.046349    21.799132           90           90           90 
   40000     250.7562   -130.11754   -102.14531   -130.11754            0    2117.9195    17.854053    21.029715    21.781902            0            0            0    8178.3562    2141.6247    1805.3507     2406.783   -159.07692    505.45296   -972.72306    17.854053    21.029715    21.781902           90           90           90 
   40500    244.12318   -129.76799   -102.53569   -129.76799            0     4103.774    17.861996     21.03907    21.791592            0            0            0    8189.2757    3039.2961    3678.9644    5593.0615    1842.2912   -1969.9173    6.0346425    17.861996     21.03907    21.791592           90           90           90 
   41000    243.39642   -128.60865   -101.45741   -128.60865            0   -3245.7011    17.929968    21.119133    21.874518            0            0            0    8283.1224   -6054.5398   -990.38798   -2692.1755   -1270.5059 -0.093366464    153.32312    17.929968    21.119133    21.874518           90           90           90 
   41500    255.27233   -129.25799   -100.78198   -129.25799            0    2234.3637    17.751708    20.909166    21.657041            0            0            0    8038.5178    2111.7179    2399.3381     2192.035   -530.93442    248.93753   -22.191281    17.751708    20.909166    21.657041           90           90           90 
   42000    259.31544   -129.26068   -100.33365   -129.26068            0    2499.4043    17.827432    20.998359    21.749425            0            0            0    8141.8277   -645.82591    2309.7094    5834.3296    -1299.411   -270.98706    1419.9399    17.827432    20.998359    21.749425           90           90           90 
   42500    254.35684   -128.82453   -100.45064   -128.82453            0    848.35849    17.830502    21.001975     21.75317            0            0            0    8146.0347    2579.6995     2173.168   -2207.7921   -899.28212   -1055.8618    175.28989    17.830502    21.001975     21.75317           90           90           90 
   43000    251.59184   -128.03873   -99.973284   -128.03873            0    820.91462    17.834089      21.0062    21.757546            0            0            0    8150.9519   -509.00015    1795.9789    1175.7651   -1372.8674    1390.2592    4.4120964    17.834089      21.0062    21.757546           90           90           90 
   43500    247.95174   -128.59076   -100.93137   -128.59076            0    1498.9893    17.898673    21.082272    21.836339            0            0            0    8239.8267    1523.6114     1280.209    1693.1475   -1197.9713   -2805.1414    1556.3133    17.898673    21.082272    21.836339           90           90           90 
   44000     250.1076     -128.409   -100.50912     -128.409            0    362.13833    17.904307    21.088908    21.843212            0            0            0    8247.6096    2442.6465   -3882.4474    2526.2159   -2999.5585    2078.9125   -214.41878    17.904307    21.088908    21.843212           90           90           90 
   44500    261.41248   -129.34418   -100.18322   -129.34418            0    2539.8536    17.885998    21.067342    21.820875            0            0            0    8222.3337    2557.5456    3725.2216    1336.7935   -918.60327   -310.16983     362.1953    17.885998    21.067342    21.820875           90           90           90 
   45000    234.30758   -128.54294   -102.40558   -128.54294            0   -469.73482    17.878225    21.058186    21.811392            0            0            0    8211.6181   -541.67246    769.19267   -1636.7247    163.82446     598.2602    286.65499    17.878225    21.058186    21.811392           90           90           90 
   45500    242.48906   -129.05987   -102.00985   -129.05987            0    1507.2978    17.767846    20.928175     21.67673            0            0            0    8060.4616    2676.1856    1100.7707    744.93704    630.29246    71.900459   -1828.3388    17.767846    20.928175     21.67673           90           90           90 
   46000    254.25682   -129.29486   -100.93213   -129.29486            0    1583.0243    17.840099     21.01328    21.764879            0            0            0    8159.1961    1732.1609    2915.8108    101.10114    701.20607    1084.1171    2213.3454    17.840099     21.01328    21.764879           90           90           90 
   46500    250.71649    -129.0901   -101.12229    -129.0901            0    592.29236     17.91575    21.102386    21.857172            0            0            0    8263.4331   -148.49062   -413.18314    2338.5508    -3254.028   -1657.3302   -771.91359     17.91575    21.102386    21.857172           90           90           90 
   47000    251.73954   -128.76998   -100.68806   -128.76998            0    912.16667    17.900393    21.084297    21.838437            0            0            0    8242.2019   -833.16496    1034.0357    2535.6292   -605.19193   -1424.6858   -621.06172    17.900393    21.084297    21.838437           90           90           90 
   47500    244.83925   -127.46633   -100.15414   -127.46633            0    698.24989    17.890976    21.073206    21.826949            0            0            0    8229.2015    568.27537   -2284.0435    3810.5178    2282.0324   -1974.1941    1150.3279    17.890976    21.073206    21.826949           90           90           90 
   48000    258.23146   -128.01109   -99.204984   -128.01109            0     2109.607    17.824881    20.995354    21.746312            0            0            0     8138.333    1845.5248    2974.1071    1509.1893    173.24848    1836.0199    326.73233    17.824881    20.995354    21.746312           90           90           90 
   48500    247.93614   -127.58563   -99.927984   -127.58563            0    1654.5603    17.927529    21.116261    21.871543            0            0            0    8279.7435     1256.056   -1007.9336    4715.5584   -1439.5365    1343.5263   -112.77254    17.927529    21.116261    21.871543           90           90           90 
   49000    254.86393   -126.37765   -97.947193   -126.37765            0    845.47192    17.929104    21.118116    21.873465            0            0            0    8281.9259    1751.7996    1115.2459   -330.62972   -1497.2532   -58.083182   -1151.4726    17.929104    21.118116    21.873465           90           90           90 
   49500    269.64505   -125.75868   -95.679364   -125.75868            0    2261.2895    17.877425    21.057245    21.810417            0            0            0    8210.5166     993.0534   -113.80861    5904.6238   -855.96358   -2653.5196    1727.8557    17.877425    21.057245    21.810417           90           90           90 
   50000    253.31657   -126.60765   -98.349801   -126.60765            0   -1166.2644     18.02764    21.234177    21.993678            0            0            0    8419.2259    -2598.094   -1481.0376     580.3385   -1425.9097   -843.16681   -1998.1185     18.02764    21.234177    21.993678           90           90           90 
   50500    247.56022   -127.23808   -99.622361   -127.23808            0     1231.626    17.948461    21.140915     21.89708            0            0            0    8308.7786    2561.3544   -192.11585    1325.6395   -122.54687    2068.3092    466.87838    17.948461    21.140915     21.89708           90           90           90 
   51000    256.10325   -128.36622    -99.79752   -128.36622            0    3161.8618    17.899462    21.083201    21.837302            0            0            0    8240.9165    1785.6022    2960.4086    4739.5747    2015.1319    705.57719     1560.475    17.899462    21.083201    21.837302           90           90           90 
   51500    243.12831   -128.68128   -101.55995   -128.68128            0    1173.0126     17.91022    21.095873    21.850427            0            0            0    8255.7846   -1167.2804    3275.5999    1410.7185   -105.38444   -1908.7843    2135.1819     17.91022    21.095873    21.850427           90           90           90 
   52000     252.0753   -130.82954   -102.71016   -130.82954            0    2236.4183    17.899232     21.08293     21.83702            0            0            0    8240.5979    1274.0219    2085.5714    3349.6616    267.68303    578.77173    1108.2346    17.899232     21.08293     21.83702           90           90           90 
   52500    255.43388   -128.48171    -99.98768   -128.48171            0   -11.967874    17.896707    21.079956    21.833941            0            0            0    8237.1119    1175.7137    871.46909   -2083.0864    1881.2118    2272.8069   -1595.3498    17.896707    21.079956    21.833941           90           90           90 
   53000    250.26623   -129.49911   -101.58154   -129.49911            0    913.58219    17.951468    21.144457    21.900748            0            0            0    8312.9555    963.72668    565.44778    1211.5721    1086.0656   -142.34857    1016.6108    17.951468    21.144457    21.900748           90           90           90 
   53500    256.64351   -130.65627    -102.0273   -130.65627            0    3340.2825    17.901937    21.086116     21.84032            0            0            0    8244.3346    6397.5221    1416.8299    2206.4955    623.22915    589.86015    255.06546    17.901937    21.086116     21.84032           90           90           90 
   54000    248.63863   -128.24814   -100.51212   -128.24814            0    898.00159    17.931939    21.121454    21.876923            0            0            0    8285.8543    778.24483    -328.6067    2244.3666   -1650.1177   -197.66667   -2389.6433    17.931939    21.121454    21.876923           90           90           90 
   54500    232.08031   -128.82233   -102.93342   -128.82233            0    266.30025    17.831826    21.003535    21.754786            0            0            0    8147.8499    -1443.423   -270.90145    2513.2252    1239.1536   -955.27378    503.79639    17.831826    21.003535    21.754786           90           90           90 
   55000     257.7111   -130.35826    -101.6102   -130.35826            0    2311.0121    17.785852    20.949384    21.698698            0            0            0     8084.992    1403.3879    4070.4326    1459.2157   -465.22371    2453.1373   -3188.5843    17.785852    20.949384    21.698698           90           90           90 
   55500    232.70837   -128.82785   -102.86889   -128.82785            0    1484.6685    17.912619    21.098699    21.853353            0            0            0    8259.1025    2185.4527    1205.9968    1062.5559    2574.7531    476.92181    1274.2822    17.912619    21.098699    21.853353           90           90           90 
   56000    253.17148   -128.49562   -100.25396   -128.49562            0    666.95268    17.880576    21.060955     21.81426            0            0            0    8214.8579   -909.05806    1171.2475    1738.6686   -993.69325    621.30886    281.30877    17.880576    21.060955     21.81426           90           90           90 
   56500    259.08468   -128.31896   -99.417673   -128.31896            0    1553.0774    17.734153    20.888488    21.635624            0            0            0     8014.693      695.902    3683.8117    279.51864    2330.4192   -1146.7264   -2526.6777    17.734153    20.888488    21.635624           90           90           90 
   57000    251.57868   -128.63279   -100.56881   -128.63279            0    1259.0612    17.814239     20.98282     21.73333            0            0            0    8123.7662   -18.424573    867.97668    2927.6314     43.32394   -668.12469    155.27286    17.814239     20.98282     21.73333           90           90           90 
   57500    255.35728   -129.28543   -100.79994   -129.28543            0      26.0744    17.871053    21.049739    21.802643            0            0            0    8201.7399   -580.57657     975.2221   -316.42233   -1809.6377    1603.1931   -383.59628    17.871053    21.049739    21.802643           90           90           90 
   58000    255.28607   -128.86487   -100.38732   -128.86487            0    2474.0084     17.79709     20.96262    21.712407            0            0            0    8100.3264    3455.0478    3176.5307     790.4467    314.26929    1894.5572   -2566.4905     17.79709     20.96262    21.712407           90           90           90 
   58500    247.26964    -128.6097   -101.02639    -128.6097            0    1193.0224    17.782904    20.945911    21.695101            0            0            0    8080.9719    988.23963    2298.4069    292.42086   -37.697379    -1214.357   -155.65183    17.782904    20.945911    21.695101           90           90           90 
   59000    255.05183   -127.92879   -99.477374   -127.92879            0    1111.4616    17.769053    20.929597    21.678203            0            0            0    8062.1045    395.81047    1636.0598    1302.5145   -3760.4261    1664.2956   -1415.3068    17.769053    20.929597    21.678203           90           90           90 
   59500    251.33165   -127.29252     -99.2561   -127.29252            0    3429.7939    17.711733    20.862081    21.608272            0            0            0    7984.3344     3611.209    912.14127    5766.0314    33.140445    1068.9882   -325.64796    17.711733    20.862081    21.608272           90           90           90 
   60000    240.80622   -127.41406   -100.55176   -127.41406            0     207.3305    17.779857    20.942322    21.691383            0            0            0    8076.8185    1133.7744     1053.808    -1565.591   -2158.0023   -564.87633   -587.48758    17.779857    20.942322    21.691383           90           90           90 
   60500    236.16495   -127.38685    -101.0423   -127.38685            0    77.621312    17.767932    20.928275    21.676834            0            0            0    8060.5778    892.85065   -285.27503   -374.71169    2453.7313    479.32606   -678.63408    17.767932    20.928275    21.676834           90           90           90 
   61000     247.3592   -128.07732   -100.48403   -128.07732            0    2451.5495    17.711376    20.861661    21.607837            0            0            0    7983.8523    252.92579    1400.6894    5701.0334    2397.0248   -1584.6348   -1505.9759    17.711376    20.861661    21.607837           90           90           90 
   61500    248.69931   -128.01564   -100.27286   -128.01564            0   -2139.7447    17.760921    20.920018    21.668281            0            0            0    8051.0401   -3054.6809    709.23619   -4073.7892   -977.41005    187.28055   -1419.9733    17.760921    20.920018    21.668281           90           90           90 
   62000    253.53136   -127.13408   -98.852273   -127.13408            0   -412.86656    17.784917    20.948283    21.697557            0            0            0    8083.7174     2178.421   -1056.1038   -2360.9169   -348.95741    897.12904    522.76415    17.784917    20.948283    21.697557           90           90           90 
   62500    251.27452   -128.27645    -100.2464   -128.27645            0    1350.9134    17.800884    20.967089    21.717037            0            0            0    8105.5089    400.61249    2771.5442    880.58339    54.227813    2533.9588    387.42513    17.800884    20.967089    21.717037           90           90           90 
   63000    259.15571   -126.23988   -97.330668   -126.23988            0    1341.1231    17.806117    20.973253    21.723421            0            0            0     8112.659   -629.76624    3064.3038    1588.8317    1125.5167   -3439.6663    24.041325    17.806117    20.973253    21.723421           90           90           90 
   63500     244.1246   -127.45861   -100.22614   -127.45861            0    1774.8605    17.898655     21.08225    21.836317            0            0            0    8239.8015    1154.7475    3418.0016    751.83251    1533.6044    772.52226   -2615.4595    17.898655     21.08225    21.836317           90           90           90 
   64000    249.53132   -127.11174   -99.276148   -127.11174            0   -619.35535    17.830284    21.001718    21.752904            0            0            0    8145.7356   -3742.9725    2634.8804   -749.97399   -312.85334    -2094.224    317.25695    17.830284    21.001718    21.752904           90           90           90 
   64500    248.36897   -127.67913   -99.973203   -127.67913            0    1668.2455    17.776401    20.938251    21.687167            0            0            0    8072.1096    125.29573    3799.9354    1079.5055    1235.4412   -1862.6735    2358.5297    17.776401    20.938251    21.687167           90           90           90 
   65000    239.69968   -128.81715   -102.07829   -128.81715            0     3496.731      17.7524    20.909982    21.657886            0            0            0    8039.4585    602.25623    5206.5166    4681.4203   -1362.4696    425.55676   -1832.7452      17.7524    20.909982    21.657886           90           90           90 
   65500    244.56421   -128.58076   -101.29926   -128.58076            0   -729.55029     17.78272    20.945694    21.694876            0            0            0    8080.7211   -3304.4866   -1511.2081    2627.0439    1607.5853   -402.64013    433.90025     17.78272    20.945694    21.694876           90           90           90 
   66000    259.90607   -127.78734   -98.794427   -127.78734            0    3182.1061    17.820092    20.989713    21.740469            0            0            0    8131.7749    66.845009    4412.7793     5066.694   -1494.9224   -2196.0767    548.83217    17.820092    20.989713    21.740469           90           90           90 
   66500    264.24106   -128.99257   -99.516084   -128.99257            0    213.87708    17.852576    21.027975      21.7801            0            0            0    8176.3265    3266.1007   -1322.5618   -1301.9076   -1021.0288    2612.6785     376.4184    17.852576    21.027975      21.7801           90           90           90 
   67000    245.17895    -128.7085   -101.35841    -128.7085            0    1260.9178    17.816661    20.985672    21.736284            0            0            0    8127.0796    1879.4387   -288.91585    2192.2307   -2840.0395    929.31532   -1117.1884    17.816661    20.985672    21.736284           90           90           90 
   67500     249.5603    -129.2775   -101.43868    -129.2775            0    1666.5512    17.776938    20.938884    21.687823            0            0            0     8072.842    1945.3567    659.42157    2394.8753    1983.7454   -1031.7731   -1620.1144    17.776938    20.938884    21.687823           90           90           90 
   68000    243.64176   -128.28596   -101.10735   -128.28596            0   -2690.0972    17.865371    21.043046     21.79571            0            0            0    8193.9185   -1010.7088   -4001.1549    -3058.428    35.157264    1348.5912     1066.157    17.865371    21.043046     21.79571           90           90           90 
   68500    244.07489   -127.51253   -100.28561   -127.51253            0    2865.5046     17.85294    21.028404    21.780545            0            0            0     8176.827   -190.65533    3213.9697    5573.1995   -340.41529   -1347.7213    890.83246     17.85294    21.028404    21.780545           90           90           90 
   69000    242.61053   -129.36687    -102.3033   -129.36687            0   -146.48073    17.905943    21.090835    21.845208            0            0            0    8249.8711    1283.4125   -767.45528   -955.39936   -2328.9994    1320.7279     958.8366    17.905943    21.090835    21.845208           90           90           90 
   69500    244.05065   -129.90571   -102.68149   -129.90571            0    1320.7699    17.855669    21.031619    21.783874            0            0            0    8180.5775    1071.1078    1467.1785    1424.0233   -118.35998   -1641.8632     376.8031    17.855669    21.031619    21.783874           90           90           90 
   70000    239.67242   -128.51248   -101.77666   -128.51248            0    2661.0895    17.806596    20.973818    21.724006            0            0            0    8113.3145    1467.1471    3134.0043     3382.117    2538.8062   -1251.0985    1413.7699    17.806596    20.973818    21.724006           90           90           90 
   70500    243.41664   -128.60744   -101.45394   -128.60744            0   -1627.8906    17.869196    21.047552    21.800377            0            0            0    8199.1838   -1506.6062    842.94352    -4220.009    1419.1801   -755.43823   -1887.1913    17.869196    21.047552    21.800377           90           90           90 
   71000    256.78352    -130.5692   -101.92461    -130.5692            0    3323.7526    17.733521    20.887744    21.634853            0            0            0    8013.8363    1172.5446    3120.3653     5678.348    1300.2624    1211.7424   -751.68154    17.733521    20.887744    21.634853           90           90           90 
   71500    248.63426     -128.807   -101.07148     -128.807            0   -974.26043    17.753733    20.911552    21.659512            0            0            0    8041.2695    756.40823   -978.46792   -2700.7216   -1986.8253    1885.9897    290.29764    17.753733    20.911552    21.659512           90           90           90 
   72000    268.16204   -127.09788   -97.183999   -127.09788            0    3070.2152    17.781308    20.944031    21.693154            0            0            0    8078.7966     4574.192     3251.741    1384.7126    1023.9388   -1841.2328    833.82795    17.781308    20.944031    21.693154           90           90           90 
   72500    249.99552   -126.88617    -98.99879   -126.88617            0    224.50072    17.813467     20.98191    21.732387            0            0            0    8122.7092     494.8313    993.74465   -815.07377   -22.974026    203.13889    389.63019    17.813467     20.98191    21.732387           90           90           90 
   73000    247.09297   -128.51043   -100.94684   -128.51043            0    1549.8237    17.695519    20.842983    21.588491            0            0            0    7962.4274   -403.62092    1699.0006    3354.0915   -589.25074    1656.1593   -791.75845    17.695519    20.842983    21.588491           90           90           90 
   73500    251.41767   -129.08189   -101.03587   -129.08189            0    1128.9386    17.772255    20.933368    21.682109            0            0            0    8066.4637    988.74444    4014.0817   -1616.0102     993.4492    57.992516    172.24393    17.772255    20.933368    21.682109           90           90           90 
   74000    240.27942   -128.77896   -101.97543   -128.77896            0    2552.7809    17.855634    21.031577    21.783831            0            0            0    8180.5291    2592.1167      4322.75    743.47599    3769.3786   -2158.6556    -611.9923    17.855634    21.031577    21.783831           90           90           90 
   74500    253.55097   -129.44982   -101.16582   -129.44982            0    2339.6466    17.696919    20.844632    21.590199            0            0            0    7964.3166    1888.5859   -2562.7892    7693.1431    -128.4797    -25.93418   -381.50755    17.696919    20.844632    21.590199           90           90           90 
   75000    251.21043   -129.21225   -101.18935   -129.21225            0    2943.8584    17.830477    21.001946     21.75314            0            0            0    8146.0008    3889.4993    4648.6315    293.44431    875.96811   -271.71574    74.157529    17.830477    21.001946     21.75314           90           90           90 
   75500    245.75036    -129.3452   -101.93137    -129.3452            0   -1344.6361    17.858407    21.034843    21.787214            0            0            0    8184.3405   -1814.9228    -2653.041    434.05553   -1391.8799     -989.374    569.86778    17.858407    21.034843    21.787214           90           90           90 
   76000    251.77235   -129.18626   -101.10067   -129.18626            0    4089.8979    17.787823    20.951706    21.701103            0            0            0    8087.6806    2669.6046    3346.3514    6253.7377    1154.0364   -647.40487   -1509.5189    17.787823    20.951706    21.701103           90           90           90 
   76500    240.46502   -131.76259   -104.93836   -131.76259            0   -3382.6748    17.792975    20.957774    21.707388            0            0            0    8094.7098    -3956.333   -3548.2323   -2643.4592   -3299.8111   -1724.7587    646.67347    17.792975    20.957774    21.707388           90           90           90 
   77000    242.95086   -131.51042   -104.40888   -131.51042            0    963.83424    17.831634    21.003308    21.754551            0            0            0    8147.5863    110.18635     1010.561    1770.7553   -670.99107   -69.194413   -517.79607    17.831634    21.003308    21.754551           90           90           90 
   77500    250.74703   -130.03325   -102.06204   -130.03325            0   -604.59895    17.850693    21.025757    21.777803            0            0            0    8173.7391    1644.8264   -3851.5925    392.96926    426.97719   -1876.6382   -1088.9522    17.850693    21.025757    21.777803           90           90           90 
   78000    260.77167   -129.39084   -100.30137   -129.39084            0     1211.321    17.920038    21.107437    21.862404            0            0            0    8269.3684    2623.9022    2299.8115   -1289.7506    587.40201    1154.6911    378.04272    17.920038    21.107437    21.862404           90           90           90 
   78500    241.12579   -130.48914    -103.5912   -130.48914            0    439.02263    17.884951    21.066108    21.819597            0            0            0    8220.8891    -1139.278    2283.1656    173.18026   -1113.6608   -1977.5079   -764.47233    17.884951    21.066108    21.819597           90           90           90 
   79000    244.75113   -130.49565   -103.19329   -130.49565            0    -854.2904    17.981938    21.180347    21.937922            0            0            0    8355.3582   -4311.5608   -519.42733    2268.1169    965.52542   -482.92662    1893.2847    17.981938    21.180347    21.937922           90           90           90 
   79500    249.25163    -128.7976   -100.99321    -128.7976            0    2861.8625    17.861458    21.038438    21.790937            0            0            0    8188.5368    3795.3642     3718.417    1071.8063   -258.50898   -100.39124   -909.74724    17.861458    21.038438    21.790937           90           90           90 
   80000    253.22742   -129.34929   -101.10139   -129.34929            0   -1104.6682    17.830981    21.002539    21.753754            0            0            0    8146.6913   -4598.8268    240.11403     1044.708   -894.67743     30.71242    601.45657    17.830981    21.002539    21.753754           90           90           90 
   80500    254.64692   -130.20697   -101.80072   -130.20697            0    3056.9379    17.900961    21.084967    21.839131            0            0            0    8242.9872    863.34342     1083.033    7224.4372    1478.8894    4646.0224    2441.5718    17.900961    21.084967    21.839131           90           90           90 
   81000    248.59577   -130.17738   -102.44615   -130.17738            0   -174.18319    18.017708    21.222479    21.981561            0            0            0     8405.319   -202.59994     1113.518   -1433.4676   -913.75247   -685.95377   -1998.0533    18.017708    21.222479    21.981561           90           90           90 
   81500    247.51401   -130.62714   -103.01658   -130.62714            0    223.05478    17.895405    21.078423    21.832352            0            0            0    8235.3142    2089.5265   -219.30798   -1201.0542   -2694.8351    415.03463    1664.1902    17.895405    21.078423    21.832352           90           90           90 
   82000    240.14154   -130.53677   -103.74862   -130.53677            0    1956.4908    17.822457    20.992499    21.743356            0            0            0    8135.0139    3145.6502    2157.4517     566.3704   -1094.7274   -476.74883    147.07319    17.822457    20.992499    21.743356           90           90           90 
   82500    261.98232   -129.65698   -100.43246   -129.65698            0   -1420.3044    17.897322     21.08068    21.834691            0            0            0    8237.9608    -1880.591   -544.20345   -1836.1189    1825.8337    598.90045   -578.20057    17.897322     21.08068    21.834691           90           90           90 
   83000    256.95572   -129.90585   -101.24205   -129.90585            0     749.0029    17.954545    21.148081    21.904502            0            0            0    8317.2305    -319.2414    739.67552    1826.5746    647.39693   -1670.2235   -197.81052    17.954545    21.148081    21.904502           90           90           90 
   83500    256.80423   -130.59637   -101.94947   -130.59637            0   -1293.1787    17.922076    21.109837     21.86489            0            0            0    8272.1899   -2678.6012    1034.3491   -2235.2838    -1750.241       1194.4   -871.81821    17.922076    21.109837     21.86489           90           90           90 
   84000    254.03265   -128.82938   -100.49166   -128.82938            0    2016.9816    17.948277    21.140699    21.896856            0            0            0     8308.524    1953.6526    590.53416    3506.7579     112.0194    1290.5159   -390.75278    17.948277    21.140699    21.896856           90           90           90 
   84500    252.75845   -129.24092   -101.04533   -129.24092            0    162.07258    17.925005    21.113287    21.868463            0            0            0    8276.2459   -661.40109   -575.74345    1723.3623   -1893.1847     987.9748    579.04096    17.925005    21.113287    21.868463           90           90           90 
   85000    258.70561   -131.43557   -102.57657   -131.43557            0    90.091448    17.933753    21.123591    21.879136            0            0            0    8288.3695    -410.3683   -548.15824    1228.8009    1710.2297    95.353232    526.75695    17.933753    21.123591    21.879136           90           90           90 
   85500    254.96717   -130.11417    -101.6722   -130.11417            0    90.749617    17.939485    21.130343    21.886129            0            0            0    8296.3193    227.18774     2395.762   -2350.7009   -907.36948     1178.363    50.704246    17.939485    21.130343    21.886129           90           90           90 
   86000    243.12787   -129.64044   -102.51916   -129.64044            0    862.39796    17.912514    21.098575    21.853225            0            0            0    8258.9569   -450.49969    913.28365    2124.4099   -2306.3861   -1099.2599    1327.5353    17.912514    21.098575    21.853225           90           90           90 
   86500    243.08514   -129.97936   -102.86284   -129.97936            0    2589.7322    17.850602     21.02565    21.777692            0            0            0    8173.6145    308.30164    3344.6574    4116.2377   -546.64685    -2498.222    133.52659    17.850602     21.02565    21.777692           90           90           90 
   87000    246.60866   -131.59317    -104.0836   -131.59317            0   -1353.8865    17.918422    21.105534    21.860433            0            0            0    8267.1317   -1499.4552   -2350.2865   -211.91764    -583.3906   -168.79216   -348.51235    17.918422    21.105534    21.860433           90           90           90 
   87500    257.87261    -131.5567   -102.79063    -131.5567            0    3163.7201    17.979986    21.178047     21.93554            0            0            0    8352.6367    3212.6811    4516.9816    1761.4976    823.80644    1172.4721      2018.08    17.979986    21.178047     21.93554           90           90           90 
   88000    256.23124   -131.05233   -102.46935   -131.05233            0    372.95535    17.890058    21.072125    21.825829            0            0            0    8227.9346    754.06349   -1126.2079    1491.0105    700.83371    791.15178   -914.23059    17.890058    21.072125    21.825829           90           90           90 
   88500    241.18003   -130.32053   -103.41654   -130.32053            0   -58.181306    17.940646    21.131711    21.887546            0            0            0    8297.9309   -2154.0037    4334.7856   -2355.3259   -567.11349     28.79655   -2112.1242    17.940646    21.131711    21.887546           90           90           90 
   89000    242.02265   -132.36529    -105.3673   -132.36529            0    2111.3361    17.901372     21.08545    21.839631            0            0            0    8243.5541    1967.5903    2283.5765    2082.8416    1174.3999   -1891.5397     322.2169    17.901372     21.08545    21.839631           90           90           90 
   89500    234.84366   -131.40309   -105.20592   -131.40309            0    1290.7005    17.839086    21.012086    21.763643            0            0            0     8157.806     3369.414    146.77799    355.90938   -70.003918    735.70609    1242.4354    17.839086    21.012086    21.763643           90           90           90 
   90000    237.88227   -132.14413     -105.608   -132.14413            0   -240.66821    17.980362    21.178491       21.936            0            0            0    8353.1616   -153.45539   -1090.1454    521.59622   -300.87819   -87.097089    438.60893    17.980362    21.178491       21.936           90           90           90 
   90500    245.81681   -130.16442   -102.74319   -130.16442            0    1535.7779    17.928155    21.116998    21.872307            0            0            0    8280.6109    1804.7123    1521.4218    1281.1996   -1933.1073   -3194.1311   -727.51186    17.928155    21.116998    21.872307           90           90           90 
   91000    249.50841   -130.62901   -102.79597   -130.62901            0   -1984.0002    17.905209     21.08997    21.844312            0            0            0    8248.8559    -3079.693   -1524.6072   -1347.7004    2891.6802    511.10326   -1834.2652    17.905209     21.08997    21.844312           90           90           90 
   91500    240.77437    -132.2407   -105.38196    -132.2407            0    2407.1328    17.876533    21.056194    21.809328            0            0            0    8209.2874    1946.1114     3244.686     2030.601   -1078.6151   -992.57589    477.36842    17.876533    21.056194    21.809328           90           90           90 
   92000    248.93053   -131.15354   -103.38497   -131.15354            0     1908.944    17.910781    21.096533     21.85111            0            0            0    8256.5591   -664.54151    3289.4841    3101.8893   -1474.8239    8.9750845   -231.67507    17.910781    21.096533     21.85111           90           90           90 
   92500    242.71144   -130.57154   -103.49671   -130.57154            0    728.06342    17.846138    21.020392    21.772246            0            0            0    8167.4837    296.16885    258.12812    1629.8933   -91.392305    415.62848   -777.21584    17.846138    21.020392    21.772246           90           90           90 
   93000    245.72862   -130.42555   -103.01415   -130.42555            0    2977.8387    17.879526    21.059718    21.812979            0            0            0    8213.4105    3165.6375    3095.5766    2672.3019    927.09722    -1797.937   -2123.1556    17.879526    21.059718    21.812979           90           90           90 
   93500    247.39105   -131.12345    -103.5266   -131.12345            0    1316.0059    18.029613    21.236502    21.996085            0            0            0    8421.9912    2081.0893    1497.0441    369.88431   -161.91822    504.36481   -23.779381    18.029613    21.236502    21.996085           90           90           90 
   94000    249.72626   -131.36845   -103.51111   -131.36845            0    1210.2583    17.845455    21.019588    21.771413            0            0            0    8166.5466   -2093.6328    3196.0571    2528.3505     872.7189    930.98968   -1360.9164    17.845455    21.019588    21.771413           90           90           90 
   94500    243.19552    -130.6416   -103.51278    -130.6416            0    1625.6828    17.879071    21.059183    21.812424            0            0            0    8212.7839    4313.1563   -1784.2331    2348.1252    1854.4887   -149.90309    997.62862    17.879071    21.059183    21.812424           90           90           90 
   95000    241.41851   -132.04465   -105.11405   -132.04465            0   -165.57118    17.920902    21.108454    21.863458            0            0            0     8270.564    -161.5396   -249.89693   -85.277031    938.05059    954.89048    105.48691    17.920902    21.108454    21.863458           90           90           90 
   95500    243.09307   -129.71437   -102.59697   -129.71437            0    903.39094    17.824214    20.994569    21.745499            0            0            0      8137.42   -629.77681   -392.23833     3732.188   -1287.5693    1594.8072   -2171.5404    17.824214    20.994569    21.745499           90           90           90 
   96000    250.62586   -129.09727   -101.13958   -129.09727            0    968.65175    17.895467    21.078495    21.832427            0            0            0    8235.3989    1471.2893    1611.2635   -176.59759    442.37865    1489.3642   -219.49057    17.895467    21.078495    21.832427           90           90           90 
   96500    246.20852   -128.83407   -101.36914   -128.83407            0    277.86353    17.887851    21.069525    21.823136            0            0            0    8224.8898   -110.26237    118.23576    825.61719   -792.00051   -392.82596   -851.89818    17.887851    21.069525    21.823136           90           90           90 
   97000    255.49767   -129.97977   -101.47862   -129.97977            0    639.27069    17.926816     21.11542    21.870673            0            0            0    8278.7549   -1361.9317    1504.4234    1775.3203   -1238.6441    939.55125   -2361.6091    17.926816     21.11542    21.870673           90           90           90 
   97500    249.81428   -129.35542   -101.48827   -129.35542            0    1054.3963    17.924771    21.113012    21.868178            0            0            0    8275.9223    2940.6412    784.89204   -562.34447   -485.02157    787.56659    -245.0326    17.924771    21.113012    21.868178           90           90           90 
   98000    248.41303   -131.09181   -103.38096   -131.09181            0    996.70889    17.864248    21.041724    21.794341            0            0            0    8192.3744   -207.91287    1097.5367    2100.5028   -1982.4173    60.534593    96.750342    17.864248    21.041724    21.794341           90           90           90 
   98500    249.92533   -130.60973   -102.73018   -130.60973            0    3275.6652    17.906592    21.091599    21.845999            0            0            0    8250.7675    1673.6099    1318.5221    6834.8635   -139.34056   -1442.8964   -2981.7664    17.906592    21.091599    21.845999           90           90           90 
   99000    245.31584   -130.44528   -103.07993   -130.44528            0    1131.6664    17.972336    21.169037    21.926207            0            0            0    8341.9801    764.03782    1439.0872    1191.8743    1222.7718   -131.37701    467.89876    17.972336    21.169037    21.926207           90           90           90 
   99500    254.74789   -129.37717   -100.95966   -129.37717            0    1381.3684    17.925775    21.114194    21.869403            0            0            0    8277.3126    3666.1794   -1082.7405    1560.6664    82.374274   -1370.6616   -2175.0113    17.925775    21.114194    21.869403           90           90           90 
  100000    243.56009   -128.75043   -101.58093   -128.75043            0    282.46351    17.941243    21.132413    21.888274            0            0            0    8298.7588    648.62006    957.25532   -758.48485    23.635574    343.03387   -969.76496    17.941243    21.132413    21.888274           90           90           90 
  100500     250.6905   -129.70163   -101.73673   -129.70163            0    3733.1641    17.858083    21.034463     21.78682            0            0            0    8183.8961    1810.5377    4545.7448    4843.2098     1006.423   -1500.3663   -2166.1367    17.858083    21.034463     21.78682           90           90           90 
  101000    245.99373    -130.0236   -102.58262    -130.0236            0    374.31068     17.90886    21.094271    21.848767            0            0            0    8253.9038    534.31946   -1623.4347    2212.0472   -959.73018    2859.1966    841.94429     17.90886    21.094271    21.848767           90           90           90 
  101500    247.07743   -130.00757   -102.44571   -130.00757            0     739.6257    17.955268    21.148933    21.905384            0            0            0    8318.2356    2265.4904    2363.0721   -2409.6854   -773.44241   -266.97258    263.79041    17.955268    21.148933    21.905384           90           90           90 
  102000     244.5961    -129.3361   -102.05104    -129.3361            0    1678.4559    17.877081    21.056839    21.809997            0            0            0    8210.0422    2963.3182     2919.801   -847.75144   -709.34732   -1146.0319    892.71247    17.877081    21.056839    21.809997           90           90           90 
  102500    239.55194   -129.86897   -103.14659   -129.86897            0   -364.51713    17.923241    21.111209    21.866311            0            0            0    8273.8029    -340.0977   -967.30289    213.84918    627.98157   -535.94617    307.11103    17.923241    21.111209    21.866311           90           90           90 
  103000    252.76268   -130.41112   -102.21506   -130.41112            0     1350.828     17.86488    21.042467    21.795111            0            0            0     8193.243    1585.7963   -372.27471    2838.9623   -2180.1915    2695.0708   -686.45052     17.86488    21.042467    21.795111           90           90           90 
  103500    240.78329   -130.72441   -103.86467   -130.72441            0    826.61257    17.842741    21.016391    21.768101            0            0            0    8162.8205   -1346.1193    2678.3529    1147.6041   -2177.4916    1671.9978    93.455154    17.842741    21.016391    21.768101           90           90           90 
  104000    256.27764   -130.79849   -102.21033   -130.79849            0    83.306157    17.934782    21.124803    21.880391            0            0            0     8289.796    215.33319    1381.2482   -1346.6629    1560.2345    864.62167   -1793.0513    17.934782    21.124803    21.880391           90           90           90 
  104500    237.90047   -130.07901   -103.54086   -130.07901            0   -2222.1842    17.954184    21.147657    21.904062            0            0            0    8316.7299    -2128.016   -2271.2446   -2267.2922    1045.3683    555.12593   -1375.8008    17.954184    21.147657    21.904062           90           90           90 
  105000    258.74385   -130.09357    -101.2303   -130.09357            0    5330.8732    17.898919    21.082562    21.836639            0            0            0    8240.1666    6127.4608    4039.7172    5825.4417    1907.1541   -702.16448   -595.09846    17.898919    21.082562    21.836639           90           90           90 
  105500    250.86495   -129.07644   -101.09207   -129.07644            0   -333.71028     17.94992    21.142633    21.898859            0            0            0    8310.8047   -992.47995     990.8723    -999.5232    -1598.631   -3713.2757   -2241.8382     17.94992    21.142633    21.898859           90           90           90 
  106000    243.01645    -128.6415   -101.53265    -128.6415            0    1939.3415    17.965888    21.161442     21.91834            0            0            0    8333.0041   -56.651734     3793.055    2081.6211   -482.37584    274.68252     2429.885    17.965888    21.161442     21.91834           90           90           90 
  106500    256.00104   -130.58071   -102.02341   -130.58071            0   -552.74574    17.955611    21.149337    21.905803            0            0            0    8318.7127    1817.6926    -1299.692   -2176.2378    277.11529      1992.11   -119.20754    17.955611    21.149337    21.905803           90           90           90 
  107000    247.69112   -129.57954   -101.94922   -129.57954            0   -1326.0508    17.861949    21.039015    21.791535            0            0            0    8189.2113    -2227.653   -3081.9915    1331.4922   -517.52635   -657.47427    1900.5923    17.861949    21.039015    21.791535           90           90           90 
  107500    255.26143   -130.68236   -102.20756   -130.68236            0    6575.3724    17.781214     20.94392    21.693039            0            0            0    8078.6681    6100.2522    5057.7689     8568.096   -1411.0685   -1386.4202    244.74066    17.781214     20.94392    21.693039           90           90           90 
  108000    238.55017   -127.59754   -100.98691   -127.59754            0   -1649.7423    17.965317     21.16077    21.917645            0            0            0    8332.2107   -3675.3909   -714.73746   -559.09842   -443.94936    1139.5609   -749.14547    17.965317     21.16077    21.917645           90           90           90 
  108500    254.09115   -128.55634   -100.21209   -128.55634            0    182.15468    17.955532    21.149244    21.905706            0            0            0    8318.6025   -2336.7031    1650.0863    1233.0809    678.04165   -1372.4637   -2071.6264    17.955532    21.149244    21.905706           90           90           90 
  109000    256.58379   -130.89189   -102.26958   -130.89189            0    1772.1613     17.86008    21.036814    21.789255            0            0            0     8186.641    680.91278    4573.1064    62.464792   -318.79521    175.36665   -3030.6667     17.86008    21.036814    21.789255           90           90           90 
  109500    252.86494   -128.71794   -100.51048   -128.71794            0   -2167.9236    17.898861    21.082493    21.836568            0            0            0    8240.0859   -1125.6788    -1673.169   -3704.9229    465.87435    565.25267    887.61553    17.898861    21.082493    21.836568           90           90           90 
  110000    232.46532   -126.88991   -100.95806   -126.88991            0    1678.6434     17.88529    21.066508    21.820011            0            0            0     8221.357    1841.3799    632.01112    2562.5392    90.264382    2686.1884    4305.0941     17.88529    21.066508    21.820011           90           90           90 
  110500    238.77344   -129.56009   -102.92455   -129.56009            0    161.73646    17.922292    21.110092    21.865154            0            0            0    8272.4897   -1115.0709   -1309.6102    2909.8904   -944.86484   -1142.6451   -671.54578    17.922292    21.110092    21.865154           90           90           90 
  111000    250.50406   -129.26172   -101.31761   -129.26172            0    3073.1384    17.873234    21.052308    21.805304            0            0            0    8204.7435    2790.3346    3845.1171    2583.9635   -53.447428   -598.61592    2566.1363    17.873234    21.052308    21.805304           90           90           90 
  111500    260.49708   -130.69253   -101.63369   -130.69253            0   -1071.7559    17.943079    21.134576    21.890514            0            0            0    8301.3064   -598.06605   -1967.5317    -649.6699    1786.7066   -639.12597    332.91451    17.943079    21.134576    21.890514           90           90           90 
[...]
 1973500    263.12014   -130.88827   -101.53683   -130.88827            0    1126.5509    17.837841    21.010619    21.762123            0            0            0    8156.0973    -1904.619    1571.4458    3712.8258    16.855251    549.73725   -1126.7469    17.837841    21.010619    21.762123           90           90           90 
 1974000    253.35103   -130.64139    -102.3797   -130.64139            0     1968.927    17.785525    20.948998    21.698299            0            0            0     8084.546    5732.9461   -640.01153    813.84655   -1176.8466   -1597.1845   -862.76898    17.785525    20.948998    21.698299           90           90           90 
 1974500    258.00867   -132.02241   -103.24116   -132.02241            0    1895.3685    17.786662    20.950337    21.699685            0            0            0    8086.0958    1770.9847    2940.3546    974.76632    672.25246    2342.9505    -2688.019    17.786662    20.950337    21.699685           90           90           90 
 1975000     249.4628   -131.75245    -103.9245   -131.75245            0    542.82957    17.807968    20.975434    21.725679            0            0            0    8115.1899   -1585.3094    4622.4321   -1408.6341   -94.421527    1773.1223    645.68563    17.807968    20.975434    21.725679           90           90           90 
 1975500    240.78818    -130.2771   -103.41682    -130.2771            0   -1306.3933    17.863799    21.041195    21.793793            0            0            0    8191.7569    -1223.146   -755.77825   -1940.2556   -1915.7735   -1213.0914   -2273.3688    17.863799    21.041195    21.793793           90           90           90 
 1976000    240.02863   -129.60916   -102.83361   -129.60916            0    2724.8685    17.813573    20.982035    21.732517            0            0            0    8122.8542    3429.6903    3929.7394    815.17577    565.92273   -596.40687   -1076.5916    17.813573    20.982035    21.732517           90           90           90 
 1976500    246.09879   -130.36867   -102.91598   -130.36867            0     1609.481    17.759874    20.918785    21.667005            0            0            0    8049.6173    4930.9305    84.051635   -186.53915     449.4647   -2552.7052    673.63698    17.759874    20.918785    21.667005           90           90           90 
 1977000    256.09826   -131.63578   -103.06763   -131.63578            0    400.45808     17.81425    20.982833    21.733343            0            0            0    8123.7809   -1413.8554    1125.1954    1490.0342    2053.9886    1291.3952   -655.67982     17.81425    20.982833    21.733343           90           90           90 
 1977500    245.96974   -129.55776   -102.11947   -129.55776            0   -1463.0914    17.865854    21.043616      21.7963            0            0            0    8194.5845    171.99962   -1543.4812   -3017.7925   -447.75006    180.23406    1444.1235    17.865854    21.043616      21.7963           90           90           90 
 1978000    249.40624   -129.52032   -101.69868   -129.52032            0    1381.5751    17.797689    20.963326    21.713139            0            0            0    8101.1449    317.86038    956.43909    2870.4259    1987.8673    1360.3056   -1828.9401    17.797689    20.963326    21.713139           90           90           90 
 1978500    247.45794   -129.71531     -102.111   -129.71531            0    -2098.486    17.906359    21.091324    21.845715            0            0            0    8250.4455   -857.84193   -5494.9246    57.308586   -908.39895    2281.0658    2139.2605    17.906359    21.091324    21.845715           90           90           90 
 1979000    248.07536   -130.45232   -102.77914   -130.45232            0   -1369.7257    17.856139    21.032172    21.784448            0            0            0    8181.2233   -1545.3184   -566.69755   -1997.1613   -2309.5102    -1492.249   -212.45585    17.856139    21.032172    21.784448           90           90           90 
 1979500     260.5425   -129.98727   -100.92336   -129.98727            0    1447.9835    17.835136    21.007434    21.758824            0            0            0    8152.3885   -806.26211    1672.5159    3477.6965   -565.65853   -1227.9834    1054.3466    17.835136    21.007434    21.758824           90           90           90 
 1980000    261.80801   -130.68127    -101.4762   -130.68127            0    3258.2476    17.867181    21.045178    21.797918            0            0            0    8196.4093    1207.0919    7896.7202    670.93062    1455.4454     92.80487    2473.7873    17.867181    21.045178    21.797918           90           90           90 
 1980500    252.77401   -130.06432     -101.867   -130.06432            0    3213.1891    17.826653    20.997441    21.748474            0            0            0    8140.7603    2505.5479     5668.777    1465.2425   -1877.9371   -1700.9055    1958.6706    17.826653    20.997441    21.748474           90           90           90 
 1981000    249.97535   -128.31774   -100.43262   -128.31774            0    2170.5485    17.814038    20.982582    21.733084            0            0            0    8123.4902    1801.4703    3602.4901     1107.685    1547.0462    2885.2035   -1582.7499    17.814038    20.982582    21.733084           90           90           90 
 1981500    254.40513   -129.82176   -101.44248   -129.82176            0    872.21353    17.803278    20.969909    21.719957            0            0            0    8108.7794    4044.7168    1509.3138     -2937.39   -2530.2102   -395.94947     1562.291    17.803278    20.969909    21.719957           90           90           90 
 1982000    265.22188   -130.66418   -101.07828   -130.66418            0    799.94617    17.883525     21.06443    21.817859            0            0            0    8218.9239   -754.75563   -1373.7495    4528.3436    1537.6897   -1994.1221    1194.2119    17.883525     21.06443    21.817859           90           90           90 
 1982500    244.21585   -129.73497   -102.49233   -129.73497            0   -557.50852    17.947001    21.139196    21.895299            0            0            0    8306.7518    2597.8266    115.75583    -4386.108    984.67897   -667.30337   -53.277154    17.947001    21.139196    21.895299           90           90           90 
 1983000    252.01059   -129.57003   -101.45787   -129.57003            0    4984.0266    17.737284    20.892177    21.639445            0            0            0    8018.9392    4499.6101    6153.4932    4298.9764    4037.7321    2238.4196    479.38478    17.737284    20.892177    21.639445           90           90           90 
 1983500    245.37778   -129.07003   -101.69777   -129.07003            0    987.04902    17.842064    21.015593    21.767276            0            0            0    8161.8916    820.29726    1698.4943    442.35551     1151.817   -1745.5093   -386.52327    17.842064    21.015593    21.767276           90           90           90 
 1984000    254.38774   -130.35025   -101.97292   -130.35025            0    1712.2413    17.876419    21.056059    21.809189            0            0            0    8209.1298    2292.3877    706.41365    2137.9227   -528.78718    486.02494    1457.6802    17.876419    21.056059    21.809189           90           90           90 
 1984500    261.52704   -128.99205   -99.818318   -128.99205            0    2238.8386    17.778161    20.940325    21.689315            0            0            0    8074.5085    3981.1062    2957.2432   -221.83376   -1004.8383   -319.01576    336.01183    17.778161    20.940325    21.689315           90           90           90 
 1985000    251.84361   -127.41378   -99.320248   -127.41378            0   -2165.1109    17.848661    21.023364    21.775325            0            0            0     8170.949   -1744.8039   -3171.8774   -1578.6513   -285.38861   -802.68158    1332.6669    17.848661    21.023364    21.775325           90           90           90 
 1985500    255.65819   -128.93743   -100.41837   -128.93743            0   -514.50678     17.87242     21.05135    21.804311            0            0            0    8203.6228    1334.5706    197.30113    -3075.392   -857.79906    295.48657   -187.37203     17.87242     21.05135    21.804311           90           90           90 
 1986000    256.59162   -130.87337   -102.25019   -130.87337            0    4601.7378    17.819243    20.988713    21.739434            0            0            0    8130.6128    5879.8121    6452.3595    1473.0416    -183.4558    -824.4631     2717.667    17.819243    20.988713    21.739434           90           90           90 
 1986500    257.78747   -130.29943   -101.54285   -130.29943            0   -486.48742    17.800912    20.967122    21.717071            0            0            0     8105.547    -2632.107    1099.1462    73.498491    3894.4892   -1056.1332   -1621.0685    17.800912    20.967122    21.717071           90           90           90 
 1987000    254.47503   -130.45348    -102.0664   -130.45348            0    571.53237    17.902043    21.086241     21.84045            0            0            0     8244.481    689.43887    404.00261    621.15563   -2747.1283     176.9893   -471.12456    17.902043    21.086241     21.84045           90           90           90 
 1987500    250.82168   -131.15338   -103.17385   -131.15338            0     653.1215    17.864234    21.041707    21.794323            0            0            0    8192.3545    649.95077    353.13662     956.2771   -1132.7461    284.39669    1251.9794    17.864234    21.041707    21.794323           90           90           90 
 1988000    252.29695   -127.22189   -99.077785   -127.22189            0    1463.0482    17.869591    21.048017    21.800859            0            0            0    8199.7276    728.27003    3937.0161   -276.14163    1064.6813    764.98466    285.26023    17.869591    21.048017    21.800859           90           90           90 
 1988500    265.84491     -129.451   -99.795596     -129.451            0    1874.8804    17.961721    21.156534    21.913258            0            0            0    8327.2084   -84.248891    704.92392    5003.9662    1274.4091   -634.62429   -1746.3447    17.961721    21.156534    21.913258           90           90           90 
 1989000    245.66993   -129.97034   -102.56549   -129.97034            0    37.212467    17.902793    21.087125    21.841365            0            0            0     8245.518      4631.52   -905.80025   -3614.0824     827.4668    757.74987   -2284.3251    17.902793    21.087125    21.841365           90           90           90 
 1989500    245.06484   -129.31861   -101.98126   -129.31861            0   -1036.7673    17.841432     21.01485    21.766505            0            0            0     8161.025     235.1268    1018.1913   -4363.6201   -542.53102    -1084.092    1024.9934    17.841432     21.01485    21.766505           90           90           90 
 1990000     255.8842   -130.11202   -101.56775   -130.11202            0    3042.2334    17.806788    20.974043    21.724239            0            0            0    8113.5765    1609.1983    4867.0297    2650.4722    -1097.341    -102.4884    2200.1902    17.806788    20.974043    21.724239           90           90           90 
 1990500    254.63247   -130.41435   -102.00972   -130.41435            0    -389.8245    17.869296    21.047669    21.800499            0            0            0     8199.321    1052.3022   -571.29707   -1650.4787   -802.59577    -155.5705   -1733.2185    17.869296    21.047669    21.800499           90           90           90 
 1991000    243.09819   -131.52932   -104.41135   -131.52932            0    1033.0943    17.824846    20.995313     21.74627            0            0            0    8138.2851      2037.63    223.93273    837.72022   -1220.3416    1105.0495   -1267.7778    17.824846    20.995313     21.74627           90           90           90 
 1991500    247.26762   -129.07622   -101.49314   -129.07622            0    680.46277    17.773524    20.934863    21.683657            0            0            0    8068.1914    650.71168   -2748.0849    4138.7615    4039.5235    148.29283     1542.215    17.773524    20.934863    21.683657           90           90           90 
 1992000    252.71063   -131.03577   -102.84552   -131.03577            0    2118.0727    17.869475     21.04788    21.800717            0            0            0    8199.5672   -34.527828    4516.3023    1872.4437   -369.53317   -346.05243    1370.2246    17.869475     21.04788    21.800717           90           90           90 
 1992500    234.12944    -128.9853   -102.86781    -128.9853            0    3113.3561      17.8937    21.076414    21.830271            0            0            0    8232.9597    4356.9732    4149.2197    833.87558   -1881.1034   -2368.4305    1128.8583      17.8937    21.076414    21.830271           90           90           90 
 1993000    250.99383    -130.4886   -102.48986    -130.4886            0    2329.5698    17.815529    20.984339    21.734903            0            0            0    8125.5305    1580.9739    4387.2391    1020.4964    511.97534    1490.9979    2530.9808    17.815529    20.984339    21.734903           90           90           90 
 1993500    253.49732    -131.2223   -102.94429    -131.2223            0   -1599.4437    17.815098    20.983831    21.734377            0            0            0    8124.9402    -1391.186   -212.86682   -3194.2781   -356.74924   -889.15023   -55.580046    17.815098    20.983831    21.734377           90           90           90 
 1994000    249.88452   -131.11257   -103.23757   -131.11257            0      2190.87    17.801449    20.967754    21.717725            0            0            0    8106.2801    4324.0884    1657.6365    590.88508   -2166.5449    941.16927    333.32084    17.801449    20.967754    21.717725           90           90           90 
 1994500    256.75586   -132.23615   -103.59465   -132.23615            0    1062.2043    17.732942    20.887063    21.634148            0            0            0    8013.0521   -942.87028    195.71336    3933.7698    32.674601   -1666.0922    1115.3319    17.732942    20.887063    21.634148           90           90           90 
 1995000    248.65127   -131.09776   -103.36033   -131.09776            0   -45.007226    17.750559    20.907813     21.65564            0            0            0    8036.9573   -2637.3807    3440.4072   -938.04818    565.51778   -1675.2089    634.36334    17.750559    20.907813     21.65564           90           90           90 
 1995500    241.35923   -131.17435   -104.25037   -131.17435            0    2233.8068    17.853287    21.028812    21.780967            0            0            0    8177.3029    3896.2772    1493.1087    1312.0345    -906.8082   -795.33276    824.59883    17.853287    21.028812    21.780967           90           90           90 
 1996000    243.32144   -129.43102   -102.28815   -129.43102            0     820.2928    17.841107    21.014467    21.766109            0            0            0     8160.579    2943.5262    1015.0047   -1497.6526    415.01491   -161.69035    2015.5245    17.841107    21.014467    21.766109           90           90           90 
 1996500    243.74799   -129.50982   -102.31936   -129.50982            0      851.467    17.854057    21.029719    21.781907            0            0            0     8178.361    766.30922    1278.4009    509.69088   -996.66271    1205.0611   -1049.7353    17.854057    21.029719    21.781907           90           90           90 
 1997000    257.07989   -130.42047   -101.74282   -130.42047            0    2468.6277    17.822013    20.991977    21.742814            0            0            0     8134.406    2684.6781    6008.1217   -1286.9167   -1144.8088    1869.1096   -219.64299    17.822013    20.991977    21.742814           90           90           90 
 1997500    243.25145   -128.83148   -101.69641   -128.83148            0    3134.6091    17.780881    20.943528    21.692633            0            0            0    8078.2146    1793.1281    2170.1606    5440.5385    454.33843    616.96373    247.90563    17.780881    20.943528    21.692633           90           90           90 
 1998000    239.47133   -129.08396   -102.37057   -129.08396            0   -1349.1832    17.869018    21.047341    21.800159            0            0            0    8198.9377   -1211.8941   -1274.1381   -1561.5175    496.62256    -633.8543     1906.822    17.869018    21.047341    21.800159           90           90           90 
 1998500    240.47075   -129.41971   -102.59484   -129.41971            0   -2147.8822    17.787588    20.951429    21.700816            0            0            0      8087.36   -2050.3858   -554.68096   -3838.5799    2505.7483   -1097.2206   -455.67087    17.787588    20.951429    21.700816           90           90           90 
 1999000    242.00596   -130.06262   -103.06649   -130.06262            0    3133.6123    17.758355    20.916996    21.665151            0            0            0    8047.5517    2075.1852    1183.4962    6142.1555    715.55375   -1810.4309    865.49766    17.758355    20.916996    21.665151           90           90           90 
 1999500    246.16417     -129.148   -101.68801     -129.148            0    656.87322    17.803856     20.97059    21.720662            0            0            0    8109.5692    2682.8922   -1067.4485    355.17601    3758.5547    3633.5406   -819.02516    17.803856     20.97059    21.720662           90           90           90 
 2000000    252.31973   -129.48952   -101.34287   -129.48952            0    1076.8962    17.895598    21.078649    21.832587            0            0            0    8235.5798    1385.1975    1741.3747    104.11642   -915.09357   -51.461883   -1501.3657    17.895598    21.078649    21.832587           90           90           90 
Loop time of 10899 on 1 procs for 2000000 steps with 864 atoms

Performance: 7.927 ns/day, 3.027 hours/ns, 183.503 timesteps/s
73.8% CPU use with 1 MPI tasks x 1 OpenMP threads

MPI task timing breakdown:
Section |  min time  |  avg time  |  max time  |%varavg| %total
---------------------------------------------------------------
Pair    | 9478       | 9478       | 9478       |   0.0 | 86.96
Bond    | 0.30773    | 0.30773    | 0.30773    |   0.0 |  0.00
Neigh   | 1294.6     | 1294.6     | 1294.6     |   0.0 | 11.88
Comm    | 44.719     | 44.719     | 44.719     |   0.0 |  0.41
Output  | 9.831      | 9.831      | 9.831      |   0.0 |  0.09
Modify  | 62.907     | 62.907     | 62.907     |   0.0 |  0.58
Other   |            | 8.64       |            |       |  0.08

Nlocal:        864.000 ave         864 max         864 min
Histogram: 1 0 0 0 0 0 0 0 0 0
Nghost:        4153.00 ave        4153 max        4153 min
Histogram: 1 0 0 0 0 0 0 0 0 0
Neighs:         0.00000 ave           0 max           0 min
Histogram: 1 0 0 0 0 0 0 0 0 0
FullNghs:      194408.0 ave      194408 max      194408 min
Histogram: 1 0 0 0 0 0 0 0 0 0

Total # of neighbors = 194408
Ave neighs/atom = 225.00926
Ave special neighs/atom = 0.0000000
Neighbor list builds = 200000
Dangerous builds not checked

unfix		3
unfix		2

write_data	data.final.${pid}
write_data	data.final.0
System init for write_data ...

write_restart   restart.lmp.${pid}
write_restart   restart.lmp.0
System init for write_restart ...
Unloading pair style deepmd
Unloading compute style deepmd
Unloading fix style deepmd
Total wall time: 3:01:47
