LAMMPS data file via write_data, version 29 Sep 2021, timestep = 2000000

864 atoms
2 atom types

0.1922074141357477 18.015365585861687 xlo xhi
0.22639493508683017 21.219720064911932 ylo yhi
0.23449259068528683 21.97870340931293 zlo zhi

Masses

1 1.008
2 15.999

Atoms # full

100 0 1 -1.1794 1.4190329356526037 0.8157474054014366 2.239108281862803 1 0 0
101 0 2 0.5897 2.187624175987346 0.4000630131074535 1.832879925921656 1 0 0
102 0 2 0.5897 1.5930583329970684 0.8325598139761375 3.215024664276729 1 0 0
767 0 2 0.5897 0.8545887086006977 2.1417033326350596 1.314485479628814 -1 1 1
637 0 1 -1.1794 0.37172598495119796 3.850688755876233 3.8801558444690802 1 1 1
639 0 2 0.5897 0.4664526500339859 2.9369604604070303 4.176510074471543 1 1 1
766 0 1 -1.1794 0.6302583469131755 2.6351182139844695 0.5178326878425618 0 1 1
99 0 2 0.5897 5.222227543910426 3.566325970785113 2.8193887428075275 0 0 0
97 0 1 -1.1794 5.58924071290838 2.87047923862222 2.204783045876522 0 0 0
98 0 2 0.5897 5.256365986026377 3.0209859316791494 1.3250792724499267 0 0 0
543 0 2 0.5897 5.3613126974660705 1.249246234188907 2.9549173713064434 1 1 0
541 0 1 -1.1794 5.351713567731338 0.47933025292210035 3.5482925383051422 1 1 0
636 0 2 0.5897 7.395222456969646 2.5334197286458147 2.324079702044189 -1 0 0
634 0 1 -1.1794 8.390594858431408 2.433040135104792 2.3496069614773636 -1 0 0
635 0 2 0.5897 8.554336109270544 2.1110301604033603 3.2186920383698707 -1 0 0
542 0 2 0.5897 5.302328088189634 0.862116889697009 4.389189592725114 1 1 0
668 0 2 0.5897 8.94003682367338 2.919633333147093 0.26604630512424127 0 1 0
218 0 2 0.5897 8.706975645589615 4.196629532299397 1.951213376067673 0 0 1
58 0 1 -1.1794 11.19540353509978 1.7752588819696797 3.9853538235252803 1 0 0
60 0 2 0.5897 11.661659295487839 2.390120621816709 3.371170315699315 1 0 0
473 0 2 0.5897 10.65320821541554 0.6331377717151628 2.742896408682196 0 1 1
344 0 2 0.5897 11.213273724129966 0.3974335171898108 0.4609313549954081 0 0 0
22 0 1 -1.1794 12.698524549024116 3.7112713666389365 2.8376263254008616 0 0 0
683 0 2 0.5897 13.28858691812886 3.154134359100071 0.8068148888765081 0 0 1
732 0 2 0.5897 14.903085797844064 1.2257108347726222 3.404780223702972 0 0 1
730 0 1 -1.1794 15.194376292183195 1.3899567681186504 2.494344661045478 0 0 1
731 0 2 0.5897 15.945656314171407 0.8211903430607763 2.271732885964915 0 0 1
368 0 2 0.5897 15.641919144373821 3.222275360512944 2.5570603644096175 0 0 1
638 0 2 0.5897 17.365034441492895 3.8823585473623936 3.3607614237851875 0 1 1
367 0 1 -1.1794 15.670804952273363 4.147577338923164 2.853558339408024 0 0 1
23 0 2 0.5897 13.612005875067856 3.9189416386676963 3.0416050453629286 0 0 0
747 0 2 0.5897 13.907135875639161 0.34266120275196627 1.4466563609183543 0 1 0
839 0 2 0.5897 3.8585914004828075 6.312378232365082 2.063015416872809 1 0 1
838 0 1 -1.1794 4.124978248360835 6.287083854247654 1.1262081986340053 1 0 1
840 0 2 0.5897 3.304769389812194 6.052508821861792 0.6890062475678086 1 0 1
752 0 2 0.5897 2.229822170668844 7.379366569887364 3.95420568009789 0 1 1
132 0 2 0.5897 1.1661702316647191 6.163466218298434 0.4919355901816924 1 0 0
751 0 1 -1.1794 1.7467334941928678 8.035438383086028 3.4690602307042737 1 1 1
506 0 2 0.5897 0.9841725482271374 8.09427781137411 1.753786611333558 1 0 1
505 0 1 -1.1794 0.3164472612656316 7.914242545462769 0.9970197999383501 1 0 1
753 0 2 0.5897 0.8496730207753276 7.935550280490075 3.8622921882551386 1 1 1
41 0 2 0.5897 1.9037110021354946 5.184394580847335 3.883514477576197 0 0 1
42 0 2 0.5897 3.483536767087718 5.15892291836204 3.7894046553012646 -1 0 1
40 0 1 -1.1794 2.699579816961681 5.732285407937241 3.893501564834971 0 0 1
676 0 1 -1.1794 4.8901881084481165 4.529615448659423 4.373356741723119 1 1 1
467 0 2 0.5897 6.097534282310692 6.35152694661719 1.2445945172921693 0 0 0
162 0 2 0.5897 7.281025387748025 6.640185558244148 3.7287636674320446 -1 0 0
466 0 1 -1.1794 7.0178723312450755 6.686048572980169 1.2563409455175703 0 0 0
323 0 2 0.5897 7.441229464336736 8.21503424567749 2.1843793278306567 1 0 0
160 0 1 -1.1794 7.186179314238394 5.919655613494004 4.364517342662791 -1 0 0
678 0 2 0.5897 5.66025771269046 5.048582906422753 4.337624441876827 1 1 1
468 0 2 0.5897 7.605103309509343 5.9638824080112 1.1655472209316473 0 0 0
392 0 2 0.5897 8.999827227770409 8.378309130363748 3.5555373843685327 0 0 0
217 0 1 -1.1794 9.170936291623462 4.662048734268576 1.2127640929041652 0 0 1
24 0 2 0.5897 12.318246915196577 4.507264648466379 2.523144806477625 0 0 0
38 0 2 0.5897 10.632678613071322 6.912735166635231 3.1459183051337565 1 1 0
39 0 2 0.5897 11.74912514247343 6.623242175773234 2.1517021251220836 1 1 0
37 0 1 -1.1794 11.112584881812992 6.149141735783517 2.701040995910797 1 1 0
219 0 2 0.5897 9.796108650589959 5.29180019023483 1.565925839956172 0 0 1
397 0 1 -1.1794 12.266913170299043 8.472144185990187 1.4143690017318424 -1 1 0
391 0 1 -1.1794 9.860987944596374 8.025898392925058 3.926892152472804 0 0 0
127 0 1 -1.1794 13.44766358853602 5.862796110088715 0.49647237785007786 0 0 0
54 0 2 0.5897 11.847096809801998 5.527596432918838 4.408872641992668 0 0 0
369 0 2 0.5897 15.788279348299035 4.692949549528208 2.087723855101202 0 0 1
765 0 2 0.5897 16.340193247972152 7.673971075357909 3.517979980267564 0 0 1
507 0 2 0.5897 17.304426105839404 7.697885573473568 1.4774419581663054 0 0 1
835 0 1 -1.1794 15.508557959980571 7.281653464492189 1.9462630439188646 0 0 0
837 0 2 0.5897 14.986245819048241 6.631120404659526 1.4082849080165516 0 0 0
836 0 2 0.5897 14.876668467674405 7.916190775763105 2.2014997751416194 0 0 0
763 0 1 -1.1794 16.8740023297464 7.632571880761288 4.34463389003748 0 0 1
155 0 2 0.5897 2.0455079948795962 9.746883369567074 3.776317007194112 0 -1 1
154 0 1 -1.1794 2.231829550193372 10.699238425124605 3.7073772138292904 0 -1 1
693 0 2 0.5897 2.99079314527793 11.2067716958986 2.0977319469291373 0 0 0
692 0 2 0.5897 2.792126490531525 11.310785286003886 0.5137446283634473 0 0 0
156 0 2 0.5897 2.6097931120557134 10.975973239023231 4.560682026904367 0 -1 1
691 0 1 -1.1794 3.3718776936427677 11.559387937391241 1.2440762753486132 0 0 0
599 0 2 0.5897 0.5042987330644639 11.593657263590027 3.7182690070588755 0 0 0
186 0 2 0.5897 4.955674139663316 8.81001038551338 4.397163743921282 1 0 1
322 0 1 -1.1794 7.779180352294408 8.908417379067835 2.762658757302936 1 0 0
324 0 2 0.5897 6.996538763286172 9.37439465212797 3.0534446513942886 1 0 0
185 0 2 0.5897 4.999829101201891 10.293776670069564 3.9026939887334824 1 0 1
184 0 1 -1.1794 5.383971837311553 9.403480142403449 3.75777489418071 1 0 1
512 0 2 0.5897 4.891484864385326 8.83771170832053 1.9615651321357048 0 -1 1
277 0 1 -1.1794 8.483597212240479 12.688163064959518 0.9952265284908103 0 0 1
349 0 1 -1.1794 6.991387854929567 11.769312246411426 3.4745091622248125 1 0 0
351 0 2 0.5897 7.246906356787744 11.9682742747117 2.5641800623060513 1 0 0
278 0 2 0.5897 8.943557032570848 11.8707465796519 1.0966555733947418 0 0 1
350 0 2 0.5897 7.817747525110948 11.561995357438468 3.9614613914783514 1 0 0
513 0 2 0.5897 4.826497816164784 10.128335116726506 1.1404883123466933 0 -1 1
511 0 1 -1.1794 5.03472828476452 9.202814877317788 1.0511801583643567 0 -1 1
398 0 2 0.5897 12.618620508235127 8.64094731575573 0.48723878254650915 -1 1 0
353 0 2 0.5897 9.104382849609053 9.518407045599348 1.3696696880194252 0 0 1
399 0 2 0.5897 11.442572329327083 8.992200838171735 1.5300553669911856 -1 1 0
352 0 1 -1.1794 9.95475476561364 10.072501550244843 1.3473038627111207 0 0 1
711 0 2 0.5897 11.698323717531274 11.068232083042258 3.3308038893677043 0 1 2
709 0 1 -1.1794 11.773714733838622 10.368385524214084 3.9831279774775132 0 1 2
362 0 2 0.5897 13.070106398052884 12.316197131122431 1.4687224295322563 0 0 0
710 0 2 0.5897 11.020208205804256 9.820432086663944 4.004486934693174 0 1 2
354 0 2 0.5897 10.325337748615379 10.069903090554279 0.42301236569471656 0 0 1
361 0 1 -1.1794 12.433378834982749 12.728871172546716 2.111714015512667 0 0 0
77 0 2 0.5897 13.348690228332917 9.332877610850316 3.2918010812061933 -1 0 0
598 0 1 -1.1794 17.38033285109592 11.6266078711445 3.63532922910621 -1 0 0
76 0 1 -1.1794 14.288179538662657 9.073225984605934 3.4519716424389792 -1 0 0
78 0 2 0.5897 14.702830563228545 9.895747206328227 3.6439519910426266 -1 0 0
234 0 2 0.5897 16.598837589803864 11.663518011880146 2.2542437039667576 1 -1 1
232 0 1 -1.1794 16.17924126978049 11.841701350463325 1.4120166979742428 1 -1 1
600 0 2 0.5897 17.119959961845492 12.445872889445326 4.043696429650616 -1 0 0
294 0 2 0.5897 14.769097848039387 11.241779606306872 0.5672191560926336 0 0 1
233 0 2 0.5897 16.103430702422443 12.763290787421248 1.0759918294292505 1 -1 1
860 0 2 0.5897 17.30850418205831 10.85814590193208 0.32503435814702786 -1 0 1
780 0 2 0.5897 2.138433506090847 14.64791315400507 1.684402099870904 -1 0 1
778 0 1 -1.1794 2.1816933354952135 14.855499271875171 2.619377852130376 -1 0 1
779 0 2 0.5897 3.0420344790578104 15.326770127818767 2.73987327920416 -1 0 1
177 0 2 0.5897 1.680861063081207 14.403853696607943 4.293626719852179 0 1 0
244 0 1 -1.1794 4.319723696531735 16.857135545960663 2.3957133575036584 0 0 0
702 0 2 0.5897 0.3162435722235533 15.859301435499209 3.0744775577649706 1 0 0
660 0 2 0.5897 4.649507666147694 13.111731685101267 1.0250196200931665 -1 -1 1
658 0 1 -1.1794 5.107713186886941 13.883649222616912 0.6505185449446327 -1 -1 1
245 0 2 0.5897 5.218688261512812 16.513945600939074 2.4978633753877295 0 0 0
29 0 2 0.5897 6.724460485403905 14.79741981183616 1.485494047424982 0 0 1
28 0 1 -1.1794 7.032827913689798 15.502379155024286 2.1321245892652305 0 0 1
30 0 2 0.5897 6.95581460681244 15.19353469322326 3.037889809307602 0 0 1
714 0 2 0.5897 8.014572092359764 17.010851026373395 1.8317191726138267 1 0 0
501 0 2 0.5897 6.624371896267784 13.312456679531955 4.343107238553894 1 0 0
279 0 2 0.5897 9.277523325866378 13.238512468217362 1.0954626220375203 0 0 1
363 0 2 0.5897 11.777472723283758 13.171179877625567 1.5635868453298472 0 0 0
300 0 2 0.5897 13.447567864477705 13.045708186254098 3.6277316945983333 0 0 1
192 0 2 0.5897 10.637463525744202 15.12413065370177 1.3222602556104437 0 0 0
574 0 1 -1.1794 10.796145400385427 16.523606072862304 2.1284140002008263 0 -1 0
190 0 1 -1.1794 10.577481748742718 14.255512437037071 0.857342658318761 0 -1 0
111 0 2 0.5897 11.86943008381257 15.854778547651074 3.730782494716664 0 0 0
410 0 2 0.5897 13.110892701574693 14.790363261898419 1.174774346835235 0 -1 0
411 0 2 0.5897 12.915810459253974 16.109250318551485 0.3485791711298565 0 -1 0
576 0 2 0.5897 9.907561576551284 16.89072286802662 2.135293617592212 0 -1 0
409 0 1 -1.1794 13.582306522444302 15.515669432156223 0.7622066182948837 0 -1 0
298 0 1 -1.1794 13.82629605139582 13.325869349850228 4.528150805677803 0 -1 1
700 0 1 -1.1794 17.221318686174726 15.80448997466763 2.871611005375969 0 0 0
510 0 2 0.5897 16.648455116803888 14.859348402651783 4.181125563443336 0 -1 0
183 0 2 0.5897 16.51128380190662 14.930396357259289 1.3505309129652339 0 0 0
181 0 1 -1.1794 16.171243438076097 14.39123721948138 0.607699517326421 0 0 0
701 0 2 0.5897 16.815483330748453 16.612580205805738 3.240216930835166 0 0 0
89 0 2 0.5897 14.67576180515442 16.81437968367986 1.6201304498788385 -1 -1 1
182 0 2 0.5897 15.262479688463086 14.808090788158568 0.5951453430167692 0 -1 0
694 0 1 -1.1794 3.1364943902892803 20.40365808530527 0.6229909730981588 0 0 0
522 0 2 0.5897 4.208128802012751 20.06610269765164 3.8575642285720635 0 -1 0
695 0 2 0.5897 4.152072351936015 20.395550059525597 0.6160864676072566 0 0 0
225 0 2 0.5897 2.2381352662845386 18.642742508818912 3.9036537823437913 0 0 0
223 0 1 -1.1794 1.356652021531871 18.269960503012765 4.007942605824622 0 0 0
750 0 2 0.5897 1.584865929121246 17.7571155189576 1.42340653191435 0 0 0
520 0 1 -1.1794 3.9041529909429085 19.167840843279706 4.023148651390518 0 -1 0
696 0 2 0.5897 2.8455630158186787 19.50102564431228 0.557796383282074 0 0 0
246 0 2 0.5897 4.295215397626268 17.590028709366287 3.0500800877050107 -1 0 0
748 0 1 -1.1794 1.7797542666293025 18.000313462906863 0.523478910535506 0 0 1
224 0 2 0.5897 0.6577989875796937 18.93460183632138 3.810348167417775 0 0 0
656 0 2 0.5897 5.02636519189959 17.736573218969898 0.7158489893976503 -1 -1 0
822 0 2 0.5897 7.356933524388959 20.48982902414558 3.008184441426648 0 -1 1
821 0 2 0.5897 8.661402527222913 20.72542312667051 2.2229357075620415 0 -1 1
820 0 1 -1.1794 7.790287764068461 20.303580641087855 2.1456609321890427 0 -1 1
713 0 2 0.5897 8.165946226859763 18.655649882856732 2.079191176527279 1 0 0
712 0 1 -1.1794 8.597751797968805 17.785392151464567 1.663839779246591 1 0 0
384 0 2 0.5897 6.585435344829582 20.674309168304163 0.9339679879983611 -1 0 1
375 0 2 0.5897 8.761805195084186 17.685381313863818 4.523108651264413 1 0 0
382 0 1 -1.1794 5.836534680467535 20.489732476983114 0.3502310796601672 -1 0 1
472 0 1 -1.1794 10.430726582773687 20.98733061089684 2.0575239240180476 0 0 1
575 0 2 0.5897 11.387888414844072 17.297256435608844 1.95736790653919 0 -1 1
474 0 2 0.5897 11.025578441872325 20.210890654290992 2.2544364478330623 0 0 1
414 0 2 0.5897 12.40595833800038 18.93948929751955 3.589523064295618 0 0 0
413 0 2 0.5897 12.934488250438164 18.908359714985302 2.1027772976416017 0 0 0
412 0 1 -1.1794 12.213295319287074 18.69207863380465 2.6591557666357355 0 0 0
745 0 1 -1.1794 13.886331458969794 20.47634496616415 1.0269194045523813 0 0 0
338 0 2 0.5897 17.860922848383417 20.537670112302397 1.7004449618030104 -1 0 1
337 0 1 -1.1794 16.98273530321018 20.125796176227176 1.6712440314608619 -1 0 1
746 0 2 0.5897 14.794496674304503 20.140798949180294 1.0800868900504437 0 0 0
339 0 2 0.5897 16.91043443974817 20.12547230791144 0.6623457931661125 -1 0 1
88 0 1 -1.1794 15.238341468706958 17.597132474062462 1.7287146068258488 -1 -1 1
348 0 2 0.5897 15.60056402243118 18.236422959591593 3.3801500195551584 -1 1 0
346 0 1 -1.1794 16.075562411002707 18.131657799056814 4.226365963064697 -1 1 0
90 0 2 0.5897 15.807826469301267 17.601892730452715 0.9713696222632814 -1 -1 1
61 0 1 -1.1794 0.9905678569023822 1.0929759882934684 4.848782075951562 1 0 1
33 0 2 0.5897 3.2134650672943663 2.305841492257113 6.869825893815099 0 1 0
31 0 1 -1.1794 2.610972409504296 1.5374826586142094 6.986913487533947 0 1 1
62 0 2 0.5897 1.4917763046560317 1.2507221264234918 5.669818986834114 1 0 1
818 0 2 0.5897 1.389455685493369 1.5382235743956174 8.46203195895447 0 1 0
439 0 1 -1.1794 3.717945148124887 4.130016441206383 6.695812667395283 1 1 1
32 0 2 0.5897 3.2772055483822258 0.9037907229046663 7.266633645528181 0 1 1
441 0 2 0.5897 2.841729233832843 4.423728224576952 6.944779898314965 1 1 1
440 0 2 0.5897 4.352331741115141 4.414308081812102 7.329008366208815 1 1 1
677 0 2 0.5897 4.639431275627389 4.327785823417953 5.261609786626357 1 1 1
379 0 1 -1.1794 4.597305543966447 0.43469724250800507 8.880997230735428 0 0 0
517 0 1 -1.1794 8.391853008349868 1.6784861321612792 5.054346555476484 0 0 1
519 0 2 0.5897 7.527217800994256 1.5263570323149875 5.398204403677589 0 0 1
496 0 1 -1.1794 6.362041000529005 3.112779423534747 7.948803511193487 0 0 -1
498 0 2 0.5897 7.315480870171391 3.334892563278078 7.944363392627158 0 0 -1
396 0 2 0.5897 5.880130185566085 1.7232034901580813 7.044189371054293 0 1 0
394 0 1 -1.1794 5.548945719867524 1.1822710521019655 6.252314623178071 0 1 0
247 0 1 -1.1794 8.951268515881125 4.033728464811581 7.9069935730078456 0 1 0
497 0 2 0.5897 6.037453435857705 3.099540425611831 8.851582526155084 0 0 -1
518 0 2 0.5897 8.701550271960594 2.4316843647229636 5.566845348632911 0 0 1
395 0 2 0.5897 5.622512575440765 0.2611263413745084 6.519219229784409 0 1 -1
59 0 2 0.5897 11.582037727158044 2.124457069144575 4.8104264260580125 1 0 0
377 0 2 0.5897 11.351104639388815 4.114210519828486 6.207798020295156 -1 1 0
376 0 1 -1.1794 11.155332506013224 3.19941430862355 6.520651178523307 -1 1 0
248 0 2 0.5897 9.67018796184294 3.6478646375698713 7.355402561146059 0 1 0
378 0 2 0.5897 11.577920260504877 3.033981478108204 7.402962017650623 -1 1 0
330 0 2 0.5897 12.96621959586804 2.183786169307865 8.914298870454344 0 0 0
328 0 1 -1.1794 12.279930640510893 2.818292708950997 8.769980532969612 0 0 0
249 0 2 0.5897 9.386476081327416 4.090548225348774 8.825436580889146 0 1 0
63 0 2 0.5897 17.90704285535008 1.0556446076570232 5.239697283823769 0 0 1
604 0 1 -1.1794 14.280186735544632 0.6270086204120763 8.521408563941575 -1 1 0
698 0 2 0.5897 14.735158440447572 2.003548667626521 5.756990286329685 0 1 1
697 0 1 -1.1794 14.531787573453634 1.1884393576778993 5.356089599381172 0 1 1
605 0 2 0.5897 14.317510900748475 0.7461825822347247 7.552703547957097 -1 1 0
699 0 2 0.5897 15.293001108404715 0.5839312357260685 5.505444330425228 0 1 1
685 0 1 -1.1794 14.49369373086243 3.7901770617981034 6.32545311906003 0 0 0
686 0 2 0.5897 15.309590861174103 4.279392485435416 6.285026029391564 0 0 0
687 0 2 0.5897 14.090283981028213 3.9008539240019506 7.21914955594123 0 0 0
121 0 1 -1.1794 1.3678441318868706 5.23234361009661 7.608104118204109 -1 1 0
372 0 2 0.5897 3.5467454199464417 6.822563481908194 5.114301253034773 0 0 0
123 0 2 0.5897 1.41307069965827 6.137214420440577 7.308702968932071 -1 1 0
370 0 1 -1.1794 4.079615359691332 7.59657736140931 5.399502195694686 0 0 0
371 0 2 0.5897 3.506966038425621 8.127146997722981 6.026248454049532 0 0 0
718 0 1 -1.1794 0.5446846455412694 7.957485748154303 8.109088960554054 0 0 -1
122 0 2 0.5897 1.7591794976721524 5.188980798855323 8.516450322386364 -1 1 0
140 0 2 0.5897 4.8278962481264704 7.148290009165226 7.123491869186948 1 0 0
161 0 2 0.5897 7.3751696375557625 6.192523721458938 5.277466945714356 -1 0 0
141 0 2 0.5897 6.200862998212053 6.795140689190046 7.500723942524713 1 0 0
139 0 1 -1.1794 5.298349411567342 6.715016108576893 7.8696023589438 1 0 0
601 0 1 -1.1794 7.984161415905549 6.462282363183305 7.251797768438887 0 0 1
603 0 2 0.5897 8.618132632916895 5.73066439274028 7.36960972530054 0 0 1
602 0 2 0.5897 8.558511510385445 7.282839572214337 7.217896878407818 0 0 1
52 0 1 -1.1794 12.043502920673376 5.458523285685245 5.298965429802143 0 0 0
53 0 2 0.5897 12.849683697836417 4.8909980271434 5.263619381035163 0 0 0
544 0 1 -1.1794 13.064895895851246 7.9894111772324825 5.861182616607508 0 0 0
565 0 1 -1.1794 9.668080136174584 8.569744426073159 6.820182714991432 0 0 1
566 0 2 0.5897 10.437763361116316 8.622897067534407 7.4311942143466245 0 0 1
393 0 2 0.5897 9.79677218792444 8.063114015258543 4.8801070893434915 0 0 0
545 0 2 0.5897 12.417323017792087 7.285425497602167 5.939251879582599 0 0 1
546 0 2 0.5897 13.19075471273143 8.209638928251884 4.928392251663257 0 0 0
5 0 2 0.5897 17.472158397198417 4.562650263934553 5.474026274521793 -1 1 0
6 0 2 0.5897 17.590417415712803 4.857757604798724 7.008471059631854 -1 1 0
764 0 2 0.5897 16.940305268548936 6.730643415959127 4.640857422277158 0 0 1
4 0 1 -1.1794 16.971369856163218 4.857946007826564 6.261752497701384 -1 1 0
666 0 2 0.5897 15.497277767374808 6.187675548682767 6.929313325391364 0 0 0
665 0 2 0.5897 14.373100480034287 7.246417312374113 6.495091027588143 0 0 0
664 0 1 -1.1794 14.836609011191943 6.835234529342253 7.268988415464855 0 0 0
311 0 2 0.5897 14.713188174547529 8.187113312109068 8.535434929503111 -1 1 0
437 0 2 0.5897 14.071484942850864 5.683642442906306 8.762594302737723 -1 0 0
720 0 2 0.5897 18.01119224280046 7.657779216228864 8.928569477645427 -1 0 -1
623 0 2 0.5897 2.0164250677568445 8.648010677371918 7.755510767005823 -1 0 0
418 0 1 -1.1794 1.1698349400476102 11.29028005002006 6.522168066803261 0 0 0
622 0 1 -1.1794 2.7426788481199287 9.17167459722641 7.389538454967936 -1 0 0
419 0 2 0.5897 0.37841160319014205 10.829675690711294 6.272351526907134 0 0 0
420 0 2 0.5897 1.4602078581086928 11.909790228279393 5.86576720244557 0 0 0
624 0 2 0.5897 2.2697322042324037 9.946423776048416 7.003179509199803 -1 0 0
307 0 1 -1.1794 4.163395935117613 11.70487203597424 5.54702301825111 1 0 1
309 0 2 0.5897 4.3858716232764685 12.495844730571562 5.083975985248103 1 0 1
734 0 2 0.5897 1.6213984921568882 12.538432856099892 7.830753202205 1 0 0
788 0 2 0.5897 3.941278095038997 9.359074552727852 8.44005705879433 0 0 0
795 0 2 0.5897 5.798025620754617 10.775164973661049 8.430929330768706 0 1 1
308 0 2 0.5897 4.825631040762884 11.75391244879002 6.296392254183343 1 0 1
793 0 1 -1.1794 5.997593818786883 11.54290641977369 7.910738492395622 0 1 1
794 0 2 0.5897 6.234011611570571 12.178081286365755 8.590706121521594 0 1 1
611 0 2 0.5897 7.847984697040182 11.239311690538136 6.755989099925846 0 1 0
610 0 1 -1.1794 8.517243061134185 11.269478547979999 6.108680003943607 0 1 0
567 0 2 0.5897 9.406496285116727 9.464228111532487 6.577817320106646 0 0 1
612 0 2 0.5897 9.23570486054789 11.600440226339664 6.642477862568933 0 1 0
423 0 2 0.5897 12.068011462972912 10.981237970873604 5.503080310963209 -1 1 0
421 0 1 -1.1794 12.307057171307724 11.604775862155487 6.233513695354236 -1 1 0
422 0 2 0.5897 13.08600628012389 11.26846960412201 6.727204417213417 -1 1 0
9 0 2 0.5897 12.344967276904532 8.99819818424405 8.175908216148237 -1 0 0
7 0 1 -1.1794 11.539696772306593 8.78335997712386 8.646590220509667 0 0 0
559 0 1 -1.1794 10.326282999484965 12.601046035278834 7.77567507170493 0 0 0
561 0 2 0.5897 11.070023700168198 12.500979879612062 7.192640582185256 0 0 0
299 0 2 0.5897 13.327158059983107 12.680150259937603 5.0167368893812565 0 -1 1
806 0 2 0.5897 16.024870788177935 9.898771551771851 6.734016422126979 -1 0 1
460 0 1 -1.1794 14.744841961850035 11.2381713696997 7.641124840858313 -1 0 0
461 0 2 0.5897 14.667486822511163 10.546891432246577 8.351735919902751 -1 0 0
462 0 2 0.5897 14.797153109276971 12.146702539801808 7.996081965325506 -1 0 0
807 0 2 0.5897 16.489834035745428 8.631320558062646 5.988438264962237 -1 0 1
805 0 1 -1.1794 16.824290950822814 9.441861972573694 6.378206586941041 -1 0 1
719 0 2 0.5897 17.78272707207656 8.625838042520506 7.678358099067199 -1 0 -1
175 0 1 -1.1794 1.504269853187107 13.879445131059843 5.109214572200883 0 1 0
176 0 2 0.5897 0.7514230707893326 14.317693656944842 5.506459690338493 -1 1 0
287 0 2 0.5897 2.9918919285089234 14.46982319627867 5.7301988642402915 1 0 0
336 0 2 0.5897 2.765217319605258 14.7694520454694 8.571426403603235 -1 0 0
334 0 1 -1.1794 3.5892295352578976 15.318684373603478 8.601723765388812 -1 0 0
335 0 2 0.5897 3.8583406175933472 15.214423571336956 7.685310752545422 -1 0 0
733 0 1 -1.1794 1.4398594527778383 13.248083775448443 8.486072384497373 1 0 0
735 0 2 0.5897 0.9959765118734234 13.886902933656076 7.942441955862251 1 0 0
286 0 1 -1.1794 3.877884385294517 14.769875161663425 6.040999587890855 1 0 0
288 0 2 0.5897 4.513008478840059 14.74259167752949 5.325441481090915 1 0 0
499 0 1 -1.1794 6.4031579838256985 14.182222771223586 4.662591848124822 1 0 0
500 0 2 0.5897 7.037301135358321 14.25643763518499 5.411907201995121 1 0 0
830 0 2 0.5897 6.9792126272466035 16.78266913432534 7.488351092060842 0 0 1
68 0 2 0.5897 8.32445170365598 14.649702357873318 7.529449036346885 0 0 0
67 0 1 -1.1794 8.708719882491772 14.314305460845198 6.719039633548927 0 0 0
110 0 2 0.5897 12.742084324469099 14.931371180551709 4.635384130527148 0 0 0
69 0 2 0.5897 9.279286612959401 15.015334029347951 6.36019331105433 1 0 0
560 0 2 0.5897 9.641761313407704 13.205496187449427 7.323426985739129 0 0 0
109 0 1 -1.1794 12.085282511193117 15.618433266427918 4.619134056353001 0 0 0
226 0 1 -1.1794 13.013795539516678 15.786947505332037 8.583927203969889 0 0 0
444 0 2 0.5897 10.8168098754674 16.565117003008805 6.134103313644691 0 0 0
442 0 1 -1.1794 9.98728393474099 16.87374103581369 6.452659078639223 0 0 0
509 0 2 0.5897 15.548672828899651 13.956222279229046 4.920155178924044 0 0 0
508 0 1 -1.1794 16.50102965009761 14.167704948849213 4.897420731108809 0 0 0
816 0 2 0.5897 17.996340135100038 15.903585534999687 6.9876630403292905 -1 -1 1
814 0 1 -1.1794 17.5857290126835 15.020849559605958 7.249132472264054 -1 -1 1
815 0 2 0.5897 16.899119087179844 14.768575373298125 6.546391977649784 -1 -1 1
74 0 2 0.5897 13.784035439138204 16.380990978050967 5.36542479158027 0 0 0
73 0 1 -1.1794 14.549912426278036 16.729424770380135 5.813504373848285 0 0 0
663 0 2 0.5897 14.096052808199474 14.247269356276432 8.577707600229173 0 0 0
661 0 1 -1.1794 14.79946735872402 13.592153667388217 8.846823331285664 0 0 0
521 0 2 0.5897 4.0379773990958014 19.080224441395487 4.981798447787514 0 -1 0
26 0 2 0.5897 3.125788022534751 17.135740472608184 8.651551452043101 1 0 0
582 0 2 0.5897 0.7120211101280682 17.814900433251903 5.888309688896832 1 -1 0
25 0 1 -1.1794 2.858798333973449 18.05072172069091 8.52289444595773 1 0 0
581 0 2 0.5897 1.616342031098177 17.741305818377544 7.075188485853884 1 -1 0
580 0 1 -1.1794 0.6914920512639787 17.580299507952564 6.817367797401691 1 -1 0
173 0 2 0.5897 3.8874811494152928 19.101441294758637 7.473467372340341 0 -1 0
172 0 1 -1.1794 4.4458921180771425 19.18353051864662 6.701483529910911 0 -1 0
831 0 2 0.5897 7.4161952240874385 17.841416298091428 6.328896049061602 0 0 1
829 0 1 -1.1794 6.8304806735433345 17.65336443748782 7.112735816832133 0 0 1
373 0 1 -1.1794 8.13939079001749 18.371008537381492 4.754926624221064 1 0 0
174 0 2 0.5897 5.087661650716859 18.491507460923078 6.7677250372714655 0 -1 0
374 0 2 0.5897 8.70003756007123 19.063754640134757 5.157061780112671 1 0 0
11 0 2 0.5897 8.505721046821154 20.27099941577473 8.760883835742975 0 0 1
381 0 2 0.5897 5.231006040641171 20.723607851538112 8.901635615700917 0 -1 0
842 0 2 0.5897 6.9512778279106024 19.004639592189648 8.62203722678438 0 -1 0
10 0 1 -1.1794 9.352236224506617 20.650958275364534 8.508127587843953 0 0 1
12 0 2 0.5897 9.534032366268516 20.57692133387495 7.5394832308973445 0 0 1
169 0 1 -1.1794 12.73091537964498 19.878872017470087 5.024032512499353 0 -1 -1
96 0 2 0.5897 9.697083329994888 21.20812650924177 5.423273870690911 1 -1 0
94 0 1 -1.1794 9.912534245996627 20.30779963420075 5.836161784358752 1 -1 0
443 0 2 0.5897 10.16114721347932 17.088149369160476 7.360918204484321 0 0 0
95 0 2 0.5897 10.845374933260194 20.07584691098987 5.6439663112642435 1 -1 0
171 0 2 0.5897 13.144696156999952 19.45474272918943 5.830488212857218 0 -1 -1
170 0 2 0.5897 13.09822564369645 20.804718824574756 5.006782094379389 0 -1 -1
528 0 2 0.5897 10.261730507254011 19.120433398782694 8.91544091838482 -1 -1 0
75 0 2 0.5897 14.25707682189151 17.347402948654754 6.509891743056329 0 0 0
651 0 2 0.5897 17.712553802814128 18.84795608042471 7.774808313721894 -1 0 0
347 0 2 0.5897 15.572045256568819 17.477678110990194 4.713974356646144 -1 1 0
596 0 2 0.5897 16.39007769065318 19.662507737416835 4.829246621388621 -1 0 0
606 0 2 0.5897 13.67636187524628 20.858881664289953 8.687976221302927 -1 0 0
87 0 2 0.5897 13.670043334671277 18.769044711816075 8.299097873861411 0 1 -1
595 0 1 -1.1794 16.61301815559195 20.442392816171104 5.373828010534823 -1 0 0
597 0 2 0.5897 16.744497658254993 20.092993163903888 6.224261977915331 -1 0 0
85 0 1 -1.1794 14.264721983314763 18.76588448227156 7.56506082820782 0 1 -1
650 0 2 0.5897 17.240313448873927 19.837521688656867 8.79906937763234 -1 0 0
649 0 1 -1.1794 16.949998489808788 19.365932466767827 7.96202927913128 -1 0 0
86 0 2 0.5897 15.19459231089111 18.878358198544024 7.931475665350914 0 1 -1
817 0 1 -1.1794 0.8989328127714552 1.7284654840304032 9.258946976572222 0 1 0
317 0 2 0.5897 2.6626591809168816 3.690167997337205 10.376164350707041 0 0 0
819 0 2 0.5897 1.6276002971563168 1.561871584399558 9.879781964295768 0 1 0
808 0 1 -1.1794 2.5442130830218037 2.293777141791695 11.634774073616699 1 1 0
810 0 2 0.5897 2.0701726319796103 2.499593563632293 12.488231785162471 1 1 0
809 0 2 0.5897 3.3772122984175152 1.9095445501169628 11.856657209576092 1 1 0
380 0 2 0.5897 5.052169328804211 1.0673489854393168 9.461207781978663 0 0 0
168 0 2 0.5897 5.322731031650915 3.552672371030317 10.865783992554453 1 0 0
166 0 1 -1.1794 5.733992816915482 2.7146261905478495 10.742665756158889 1 0 0
167 0 2 0.5897 6.582367177865209 2.7917029027507536 11.180728028985985 1 0 0
115 0 1 -1.1794 7.916205328942512 2.07888093169911 12.034749765418578 0 1 0
116 0 2 0.5897 8.11141298681578 1.9450582188917742 12.972916654227081 0 1 0
117 0 2 0.5897 8.62601286841566 1.643808184026531 11.606378429099992 0 1 0
729 0 2 0.5897 8.841848815336597 3.8056947723022247 11.34060706618678 0 0 1
761 0 2 0.5897 5.282389000496941 0.9571663454605928 12.396002643744108 0 1 0
727 0 1 -1.1794 9.497585060383082 4.299532387846132 10.84463315331871 0 0 1
675 0 2 0.5897 10.403387264146778 2.049159943272601 10.042066749847343 -1 0 0
674 0 2 0.5897 10.085530801487698 0.6578675335702521 9.772949435819188 -1 0 0
329 0 2 0.5897 12.672628035884347 3.61990674892916 9.07553724365919 0 0 0
673 0 1 -1.1794 10.205548795391012 1.225487758898105 10.532380928669866 -1 0 0
65 0 2 0.5897 12.73908815687623 3.271291656496845 11.685296238071315 0 0 0
66 0 2 0.5897 12.035671857209287 3.8975451070013674 12.813090137989432 0 0 0
64 0 1 -1.1794 12.056728150163833 3.9327455742964674 11.819978344517454 0 0 0
728 0 2 0.5897 10.332080761004775 4.330795562614521 11.358518134296043 0 0 1
285 0 2 0.5897 17.659692692318483 3.9454760917600264 12.309027787710695 1 1 0
284 0 2 0.5897 17.72994452695463 3.4180179843060983 10.80009489348853 1 1 0
283 0 1 -1.1794 17.344893384187756 4.085481977274873 11.420333477335802 1 1 0
722 0 2 0.5897 15.885687569414475 0.5933401018996647 10.260821362716909 -1 1 0
2 0 2 0.5897 17.020786595013046 0.5840002280184762 12.446380807926529 -1 1 0
723 0 2 0.5897 17.404306923981085 0.7064373219033612 10.267380089798793 -1 1 0
289 0 1 -1.1794 13.836117748396656 1.2293953491938407 12.557716906617996 0 0 0
291 0 2 0.5897 14.142545784926279 1.7762429283053083 11.825637208051562 0 1 0
214 0 1 -1.1794 14.727137937685013 3.294758648630346 10.850897212024282 0 0 0
215 0 2 0.5897 15.650897080343855 3.566198979017511 10.834686263660991 0 0 0
216 0 2 0.5897 14.201018113439046 4.044756422531863 10.516236359522262 0 0 0
1 0 1 -1.1794 17.518959100201048 0.37981778005392364 13.280240057979004 -1 1 0
316 0 1 -1.1794 2.5690623792848926 4.609556222419232 9.996024954553556 0 0 0